      -----------------------------------------------------------      
     |                   =====================                   |     
     |                           x T B                           |     
     |                   =====================                   |     
     |                         S. Grimme                         |     
     |          Mulliken Center for Theoretical Chemistry        |     
     |                    University of Bonn                     |     
      -----------------------------------------------------------      

   * xtb version 6.6.1 (8d0f1dd) compiled by 'conda@1efc2f54142f' on 2023-08-01

   xtb is free software: you can redistribute it and/or modify it under
   the terms of the GNU Lesser General Public License as published by
   the Free Software Foundation, either version 3 of the License, or
   (at your option) any later version.
   
   xtb is distributed in the hope that it will be useful,
   but WITHOUT ANY WARRANTY; without even the implied warranty of
   MERCHANTABILITY or FITNESS FOR A PARTICULAR PURPOSE.  See the
   GNU Lesser General Public License for more details.
   
   Cite this work as:
   * C. Bannwarth, E. Caldeweyher, S. Ehlert, A. Hansen, P. Pracht,
     J. Seibert, S. Spicher, S. Grimme, WIREs Comput. Mol. Sci., 2020, 11,
     e01493. DOI: 10.1002/wcms.1493
   
   for GFN2-xTB:
   * C. Bannwarth, S. Ehlert and S. Grimme., J. Chem. Theory Comput., 2019,
     15, 1652-1671. DOI: 10.1021/acs.jctc.8b01176
   for GFN1-xTB:
   * S. Grimme, C. Bannwarth, P. Shushkov, J. Chem. Theory Comput., 2017,
     13, 1989-2009. DOI: 10.1021/acs.jctc.7b00118
   for GFN0-xTB:
   * P. Pracht, E. Caldeweyher, S. Ehlert, S. Grimme, ChemRxiv, 2019, preprint.
     DOI: 10.26434/chemrxiv.8326202.v1
   for GFN-FF:
   * S. Spicher and S. Grimme, Angew. Chem. Int. Ed., 2020, 59, 15665-15673.
     DOI: 10.1002/anie.202004239
   
   for ALPB and GBSA implicit solvation:
   * S. Ehlert, M. Stahn, S. Spicher, S. Grimme, J. Chem. Theory Comput.,
     2021, 17, 4250-4261. DOI: 10.1021/acs.jctc.1c00471
   
   for DFT-D4:
   * E. Caldeweyher, C. Bannwarth and S. Grimme, J. Chem. Phys., 2017,
     147, 034112. DOI: 10.1063/1.4993215
   * E. Caldeweyher, S. Ehlert, A. Hansen, H. Neugebauer, S. Spicher,
     C. Bannwarth and S. Grimme, J. Chem. Phys., 2019, 150, 154122.
     DOI: 10.1063/1.5090222
   * E. Caldeweyher, J.-M. Mewes, S. Ehlert and S. Grimme, Phys. Chem. Chem. Phys.
     2020, 22, 8499-8512. DOI: 10.1039/D0CP00502A
   
   for sTDA-xTB:
   * S. Grimme and C. Bannwarth, J. Chem. Phys., 2016, 145, 054103.
     DOI: 10.1063/1.4959605
   
   in the mass-spec context:
   * V. Asgeirsson, C. Bauer and S. Grimme, Chem. Sci., 2017, 8, 4879.
     DOI: 10.1039/c7sc00601b
   * J. Koopman and S. Grimme, ACS Omega 2019, 4, 12, 15120-15133.
     DOI: 10.1021/acsomega.9b02011
   
   for metadynamics refer to:
   * S. Grimme, J. Chem. Theory Comput., 2019, 155, 2847-2862
     DOI: 10.1021/acs.jctc.9b00143
   
   for SPH calculations refer to:
   * S. Spicher and S. Grimme, J. Chem. Theory Comput., 2021, 17, 1701-1714
     DOI: 10.1021/acs.jctc.0c01306
   
   with help from (in alphabetical order)
   P. Atkinson, C. Bannwarth, F. Bohle, G. Brandenburg, E. Caldeweyher
   M. Checinski, S. Dohm, S. Ehlert, S. Ehrlich, I. Gerasimov, C. Hölzer
   A. Katbashev, J. Koopman, C. Lavigne, S. Lehtola, F. März, M. Müller,
   F. Musil, H. Neugebauer, J. Pisarek, C. Plett, P. Pracht, F. Pultar,
   J. Seibert, P. Shushkov, S. Spicher, M. Stahn, M. Steiner, T. Strunk,
   J. Stückrath, T. Rose, and J. Unsleber
   
 * started run on 2024/06/05 at 19:58:41.619     

           -------------------------------------------------
          |                Calculation Setup                |
           -------------------------------------------------

          program call               : xtb struc.xyz --opt loose --input .xc1 --gfn2
          hostname                   : n-62-29-9
          coordinate file            : struc.xyz
          omp threads                :                     1

   ID    Z sym.   atoms
    1    6 C      1, 3, 5-7, 10, 11, 14
    2    7 N      2, 4, 9, 13
    3    8 O      8, 12
    4    1 H      15-25
constraining bond 12 22 to    4.6333300 Å, actual value:    3.4782509 Å

           -------------------------------------------------
          |                 G F N 2 - x T B                 |
           -------------------------------------------------

        Reference                      10.1021/acs.jctc.8b01176
      * Hamiltonian:
        H0-scaling (s, p, d)           1.850000    2.230000    2.230000
        zeta-weighting                 0.500000
      * Dispersion:
        s8                             2.700000
        a1                             0.520000
        a2                             5.000000
        s9                             5.000000
      * Repulsion:
        kExp                           1.500000    1.000000
        rExp                           1.000000
      * Coulomb:
        alpha                          2.000000
        third order                    shell-resolved
        anisotropic                    true
        a3                             3.000000
        a5                             4.000000
        cn-shift                       1.200000
        cn-exp                         4.000000
        max-rad                        5.000000


          ...................................................
          :                      SETUP                      :
          :.................................................:
          :  # basis functions                  67          :
          :  # atomic orbitals                  67          :
          :  # shells                           39          :
          :  # electrons                        74          :
          :  max. iterations                   250          :
          :  Hamiltonian                  GFN2-xTB          :
          :  restarted?                      false          :
          :  GBSA solvation                  false          :
          :  PC potential                    false          :
          :  electronic temp.         7500.0000000     K    :
          :  accuracy                    1.0000000          :
          :  -> integral cutoff          0.2500000E+02      :
          :  -> integral neglect         0.1000000E-07      :
          :  -> SCF convergence          0.1000000E-05 Eh   :
          :  -> wf. convergence          0.1000000E-03 e    :
          :  Broyden damping             0.4000000          :
          ...................................................

 iter      E             dE          RMSdq      gap      omega  full diag
   1    -42.5960780 -0.425961E+02  0.440E+00    3.52       0.0  T
   2    -42.7780033 -0.181925E+00  0.248E+00    3.37       1.0  T
   3    -42.7871777 -0.917437E-02  0.149E+00    3.50       1.0  T
   4    -42.7817164  0.546128E-02  0.642E-01    3.42       1.0  T
   5    -42.7911189 -0.940247E-02  0.115E-01    3.49       1.0  T
   6    -42.7912109 -0.920486E-04  0.685E-02    3.46       1.0  T
   7    -42.7912647 -0.537856E-04  0.265E-02    3.48       1.0  T
   8    -42.7912686 -0.385526E-05  0.113E-02    3.47       1.8  T
   9    -42.7912697 -0.111307E-05  0.441E-03    3.47       4.5  T
  10    -42.7912698 -0.733569E-07  0.139E-03    3.47      14.4  T
  11    -42.7912698 -0.243437E-08  0.602E-04    3.47      33.2  T
  12    -42.7912698 -0.222032E-08  0.181E-04    3.47     110.6  T

   *** convergence criteria satisfied after 12 iterations ***

         #    Occupation            Energy/Eh            Energy/eV
      -------------------------------------------------------------
         1        2.0000           -0.9116047             -24.8060
       ...           ...                  ...                  ...
        31        1.9942           -0.6212459             -16.9050
        32        1.9930           -0.6166804             -16.7807
        33        1.9876           -0.6031136             -16.4116
        34        1.9710           -0.5827317             -15.8569
        35        1.9403           -0.5651917             -15.3796
        36        1.9387           -0.5645672             -15.3627
        37        1.9155           -0.5566412             -15.1470 (HOMO)
        38        0.1907           -0.4290919             -11.6762 (LUMO)
        39        0.0640           -0.4015676             -10.9272
        40        0.0206           -0.3740689             -10.1789
        41        0.0006           -0.2879107              -7.8344
        42        0.0000           -0.2065811              -5.6214
       ...           ...                  ...                  ...
        67                          0.5613577              15.2753
      -------------------------------------------------------------
                  HL-Gap            0.1275493 Eh            3.4708 eV
             Fermi-level           -0.4825284 Eh          -13.1303 eV

 SCC (total)                   0 d,  0 h,  0 min,  0.035 sec
 SCC setup                      ...        0 min,  0.000 sec (  0.669%)
 Dispersion                     ...        0 min,  0.000 sec (  0.824%)
 classical contributions        ...        0 min,  0.000 sec (  0.236%)
 integral evaluation            ...        0 min,  0.005 sec ( 13.550%)
 iterations                     ...        0 min,  0.018 sec ( 50.824%)
 molecular gradient             ...        0 min,  0.012 sec ( 33.372%)
 printout                       ...        0 min,  0.000 sec (  0.489%)

         :::::::::::::::::::::::::::::::::::::::::::::::::::::
         ::                     SUMMARY                     ::
         :::::::::::::::::::::::::::::::::::::::::::::::::::::
         :: total energy             -44.642321032908 Eh    ::
         :: gradient norm              3.084275083511 Eh/a0 ::
         :: HOMO-LUMO gap              3.470793873671 eV    ::
         ::.................................................::
         :: SCC energy               -42.791269777655 Eh    ::
         :: -> isotropic ES            0.136760385929 Eh    ::
         :: -> anisotropic ES         -0.005341405309 Eh    ::
         :: -> anisotropic XC          0.011501049227 Eh    ::
         :: -> dispersion             -0.022650340738 Eh    ::
         :: repulsion energy           0.531105277918 Eh    ::
         :: add. restraining          -2.382270692180 Eh    ::
         :: total charge               1.000000000010 e     ::
         :::::::::::::::::::::::::::::::::::::::::::::::::::::

      ----------------------------------------------------------- 
     |                   =====================                   |
     |                        A N C O P T                        |
     |                   =====================                   |
     |               Approximate Normal Coordinate               |
     |                Rational Function Optimizer                |
      ----------------------------------------------------------- 

          ...................................................
          :                      SETUP                      :
          :.................................................:
          :   optimization level             loose          :
          :   max. optcycles                   200          :
          :   ANC micro-cycles                  20          :
          :   degrees of freedom                69          :
          :.................................................:
          :   RF solver                   davidson          :
          :   write xtbopt.log                true          :
          :   linear?                        false          :
          :   energy convergence         0.5000000E-04 Eh   :
          :   grad. convergence          0.4000000E-02 Eh/α :
          :   maxmium RF displ.          1.0000000          :
          :   Hlow (freq-cutoff)         0.1000000E-01      :
          :   Hmax (freq-cutoff)         5.0000000          :
          :   S6 in model hess.         20.0000000          :
          ...................................................

generating ANC from model Hessian ...
Using Lindh-Hessian (1995)
 Shifting diagonal of input Hessian by    1.7809773276492513     
 Lowest  eigenvalues of input Hessian
    0.010000    0.000000    0.000000    0.000000    0.000000    0.000000
    0.000000    1.783935    1.785382    1.789766    1.790793    1.792769
    1.793252    1.799381    1.802984    1.804785    1.815011    1.821317
 Highest eigenvalues
    3.884551    3.932109    4.009749    4.086355    4.205881    4.369298


........................................................................
.............................. CYCLE    1 ..............................
........................................................................

 iter      E             dE          RMSdq      gap      omega  full diag
   1    -42.7912698 -0.427913E+02  0.838E-05    3.47       0.0  T
   2    -42.7912698 -0.247127E-10  0.452E-05    3.47     442.9  T
   3    -42.7912698 -0.149214E-11  0.279E-05    3.47     715.8  T
     SCC iter.                  ...        0 min,  0.005 sec
     gradient                   ...        0 min,  0.012 sec
 * total energy  :   -44.6423210 Eh     change       -0.2401990E-09 Eh
   gradient norm :     3.0842748 Eh/α   predicted     0.0000000E+00 (-100.00%)
   displ. norm   :     0.9957143 α      lambda       -0.3054930E+01
   maximum displ.:     0.9929373 α      in ANC's #1, #55, #46, ...

........................................................................
.............................. CYCLE    2 ..............................
........................................................................

 iter      E             dE          RMSdq      gap      omega  full diag
   1    -42.7942404 -0.427942E+02  0.819E-01    3.32       0.0  T
   2    -42.7963806 -0.214021E-02  0.507E-01    3.44       1.0  T
   3    -42.7961095  0.271125E-03  0.194E-01    3.34       1.0  T
   4    -42.7966475 -0.538073E-03  0.677E-02    3.42       1.0  T
   5    -42.7967328 -0.852517E-04  0.245E-02    3.40       1.0  T
   6    -42.7967352 -0.239473E-05  0.127E-02    3.40       1.6  T
   7    -42.7967363 -0.110215E-05  0.453E-03    3.40       4.4  T
   8    -42.7967366 -0.316304E-06  0.182E-03    3.40      11.0  T
   9    -42.7967366 -0.955318E-08  0.672E-04    3.40      29.8  T
  10    -42.7967366 -0.302375E-08  0.244E-04    3.40      82.1  T
     SCC iter.                  ...        0 min,  0.014 sec
     gradient                   ...        0 min,  0.012 sec
 * total energy  :   -48.5972071 Eh     change       -0.3954886E+01 Eh
   gradient norm :     4.8695232 Eh/α   predicted    -0.3049798E+01 ( -22.89%)
   displ. norm   :     0.9979773 α      lambda       -0.4856419E+01
   maximum displ.:     0.9964069 α      in ANC's #1, #63, #46, ...

........................................................................
.............................. CYCLE    3 ..............................
........................................................................

 iter      E             dE          RMSdq      gap      omega  full diag
   1    -42.6298316 -0.426298E+02  0.960E-01    2.33       0.0  T
   2    -42.6330369 -0.320527E-02  0.662E-01    2.92       1.0  T
   3    -42.6345500 -0.151312E-02  0.356E-01    2.46       1.0  T
   4    -42.6361220 -0.157197E-02  0.154E-01    2.76       1.0  T
   5    -42.6365893 -0.467322E-03  0.420E-02    2.67       1.0  T
   6    -42.6365976 -0.831835E-05  0.219E-02    2.67       1.0  T
   7    -42.6366020 -0.432227E-05  0.769E-03    2.67       2.6  T
   8    -42.6366032 -0.124290E-05  0.293E-03    2.67       6.8  T
   9    -42.6366032 -0.245908E-07  0.122E-03    2.67      16.4  T
  10    -42.6366032 -0.863155E-08  0.365E-04    2.67      54.7  T
  11    -42.6366032 -0.690243E-09  0.186E-04    2.67     107.6  T
     SCC iter.                  ...        0 min,  0.015 sec
     gradient                   ...        0 min,  0.012 sec
 * total energy  :   -54.3947454 Eh     change       -0.5797538E+01 Eh
   gradient norm :     6.8002802 Eh/α   predicted    -0.4846625E+01 ( -16.40%)
   displ. norm   :     0.9978330 α      lambda       -0.6780921E+01
   maximum displ.:     0.9946125 α      in ANC's #1, #69, #54, ...

........................................................................
.............................. CYCLE    4 ..............................
........................................................................

 iter      E             dE          RMSdq      gap      omega  full diag
   1    -42.2190435 -0.422190E+02  0.226E+00    0.83       0.0  T
   2    -42.2133834  0.566011E-02  0.199E+00    2.39       1.0  T
   3    -42.3366631 -0.123280E+00  0.574E-01    1.31       1.0  T
   4    -42.3345652  0.209791E-02  0.421E-01    1.41       1.0  T
   5    -42.3372358 -0.267062E-02  0.174E-01    1.31       1.0  T
   6    -42.3383756 -0.113984E-02  0.632E-02    1.38       1.0  T
   7    -42.3384307 -0.550645E-04  0.250E-02    1.37       1.0  T
   8    -42.3384372 -0.645986E-05  0.949E-03    1.37       2.1  T
   9    -42.3384382 -0.993123E-06  0.451E-03    1.37       4.4  T
  10    -42.3384384 -0.282041E-06  0.182E-03    1.37      11.0  T
  11    -42.3384385 -0.423098E-07  0.527E-04    1.37      38.0  T
  12    -42.3384385 -0.287543E-08  0.228E-04    1.37      87.9  T
     SCC iter.                  ...        0 min,  0.017 sec
     gradient                   ...        0 min,  0.012 sec
 * total energy  :   -62.1506974 Eh     change       -0.7755952E+01 Eh
   gradient norm :     8.7641426 Eh/α   predicted    -0.6766255E+01 ( -12.76%)
   displ. norm   :     0.9973907 α      lambda       -0.8734741E+01
   maximum displ.:     0.9915695 α      in ANC's #1, #55, #69, ...

........................................................................
.............................. CYCLE    5 ..............................
........................................................................

 iter      E             dE          RMSdq      gap      omega  full diag
   1    -41.9312006 -0.419312E+02  0.291E+00    0.58       0.0  T
   2    -41.8294592  0.101741E+00  0.310E+00    1.39       1.0  T
   3    -42.1287466 -0.299287E+00  0.112E+00    0.38       1.0  T
   4    -42.1063860  0.223606E-01  0.815E-01    0.31       1.0  T
   5    -42.1277587 -0.213727E-01  0.372E-01    0.49       1.0  T
   6    -42.1330497 -0.529097E-02  0.891E-02    0.43       1.0  T
   7    -42.1331461 -0.964050E-04  0.446E-02    0.43       1.0  T
   8    -42.1331701 -0.240265E-04  0.156E-02    0.42       1.3  T
   9    -42.1331759 -0.572294E-05  0.636E-03    0.42       3.1  T
  10    -42.1331767 -0.842357E-06  0.255E-03    0.42       7.8  T
  11    -42.1331767 -0.235006E-07  0.108E-03    0.42      18.5  T
  12    -42.1331767 -0.189256E-07  0.365E-04    0.42      54.8  T
  13    -42.1331767 -0.647809E-09  0.151E-04    0.42     132.9  T
     SCC iter.                  ...        0 min,  0.018 sec
     gradient                   ...        0 min,  0.012 sec
 * total energy  :   -71.1190126 Eh     change       -0.8968315E+01 Eh
   gradient norm :     5.8876221 Eh/α   predicted    -0.8712034E+01 (  -2.86%)
   displ. norm   :     0.7918379 α      lambda       -0.4651175E+01
   maximum displ.:     0.7679310 α      in ANC's #1, #55, #54, ...

........................................................................
.............................. CYCLE    6 ..............................
........................................................................

 iter      E             dE          RMSdq      gap      omega  full diag
   1    -42.0415429 -0.420415E+02  0.241E+00    0.82       0.0  T
   2    -41.8882185  0.153324E+00  0.303E+00    0.96       1.0  T
   3    -42.1859515 -0.297733E+00  0.113E+00    1.78       1.0  T
   4    -42.1888589 -0.290741E-02  0.883E-01    1.33       1.0  T
   5    -42.1982901 -0.943118E-02  0.223E-01    1.60       1.0  T
   6    -42.1988193 -0.529220E-03  0.977E-02    1.53       1.0  T
   7    -42.1990980 -0.278615E-03  0.390E-02    1.56       1.0  T
   8    -42.1991052 -0.721372E-05  0.191E-02    1.56       1.0  T
   9    -42.1991079 -0.269047E-05  0.549E-03    1.57       3.6  T
  10    -42.1991086 -0.734881E-06  0.242E-03    1.56       8.3  T
  11    -42.1991087 -0.101785E-06  0.784E-04    1.56      25.5  T
  12    -42.1991087 -0.386606E-08  0.277E-04    1.56      72.3  T
     SCC iter.                  ...        0 min,  0.017 sec
     gradient                   ...        0 min,  0.012 sec
 * total energy  :   -43.7277809 Eh     change        0.2739123E+02 Eh
   gradient norm :   359.7271613 Eh/α   predicted    -0.3783750E+01 (-113.81%)
   displ. norm   :     0.9962939 α      lambda       -0.3583937E+03
   maximum displ.:     0.8706516 α      in ANC's #1, #47, #55, ...

........................................................................
.............................. CYCLE    7 ..............................
........................................................................

 iter      E             dE          RMSdq      gap      omega  full diag
   1    -42.2279303 -0.422279E+02  0.191E+00    0.88       0.0  T
   2    -42.2007951  0.271352E-01  0.187E+00    1.82       1.0  T
   3    -42.2851500 -0.843549E-01  0.724E-01    1.60       1.0  T
   4    -42.2758830  0.926700E-02  0.619E-01    1.27       1.0  T
   5    -42.2864100 -0.105270E-01  0.148E-01    1.64       1.0  T
   6    -42.2871886 -0.778590E-03  0.404E-02    1.55       1.0  T
   7    -42.2872220 -0.334339E-04  0.205E-02    1.57       1.0  T
   8    -42.2872278 -0.583397E-05  0.956E-03    1.57       2.1  T
   9    -42.2872283 -0.489911E-06  0.346E-03    1.57       5.8  T
  10    -42.2872285 -0.217254E-06  0.130E-03    1.56      15.4  T
  11    -42.2872286 -0.183737E-07  0.427E-04    1.56      46.8  T
  12    -42.2872286 -0.685617E-09  0.115E-04    1.56     174.0  T
     SCC iter.                  ...        0 min,  0.017 sec
     gradient                   ...        0 min,  0.012 sec
 * total energy  :   -67.5574827 Eh     change       -0.2382970E+02 Eh
   gradient norm :     9.6969441 Eh/α   predicted    -0.3570680E+03 (1398.42%)
   displ. norm   :     0.2830507 α      lambda       -0.4711666E+00
   maximum displ.:     0.0986707 α      in ANC's #23, #1, #54, ...

........................................................................
.............................. CYCLE    8 ..............................
........................................................................

 iter      E             dE          RMSdq      gap      omega  full diag
   1    -42.3631127 -0.423631E+02  0.769E-01    2.45       0.0  T
   2    -42.3595107  0.360199E-02  0.890E-01    1.44       1.0  T
   3    -42.3812381 -0.217275E-01  0.277E-01    1.98       1.0  T
   4    -42.3808915  0.346626E-03  0.166E-01    1.84       1.0  T
   5    -42.3812973 -0.405804E-03  0.712E-02    1.91       1.0  T
   6    -42.3813907 -0.933498E-04  0.398E-02    1.92       1.0  T
   7    -42.3814282 -0.375670E-04  0.122E-02    1.93       1.6  T
   8    -42.3814292 -0.100953E-05  0.792E-03    1.93       2.5  T
   9    -42.3814303 -0.107746E-05  0.240E-03    1.93       8.3  T
  10    -42.3814304 -0.491830E-07  0.125E-03    1.93      15.9  T
  11    -42.3814304 -0.382031E-08  0.616E-04    1.93      32.5  T
  12    -42.3814304 -0.942118E-08  0.191E-04    1.93     104.7  T
     SCC iter.                  ...        0 min,  0.017 sec
     gradient                   ...        0 min,  0.012 sec
 * total energy  :   -67.8779757 Eh     change       -0.3204930E+00 Eh
   gradient norm :     9.6681296 Eh/α   predicted    -0.2544369E+00 ( -20.61%)
   displ. norm   :     0.5097782 α      lambda       -0.1135244E+01
   maximum displ.:     0.1486026 α      in ANC's #56, #23, #40, ...

........................................................................
.............................. CYCLE    9 ..............................
........................................................................

 iter      E             dE          RMSdq      gap      omega  full diag
   1    -42.4720982 -0.424721E+02  0.685E-01    2.42       0.0  T
   2    -42.4730267 -0.928450E-03  0.537E-01    1.99       1.0  T
   3    -42.4747689 -0.174218E-02  0.304E-01    2.31       1.0  T
   4    -42.4760408 -0.127197E-02  0.105E-01    2.13       1.0  T
   5    -42.4761742 -0.133392E-03  0.336E-02    2.17       1.0  T
   6    -42.4761733  0.896616E-06  0.189E-02    2.17       1.1  T
   7    -42.4761751 -0.174717E-05  0.135E-02    2.17       1.5  T
   8    -42.4761795 -0.443342E-05  0.470E-03    2.17       4.3  T
   9    -42.4761798 -0.326021E-06  0.215E-03    2.17       9.3  T
  10    -42.4761799 -0.448941E-07  0.107E-03    2.17      18.7  T
  11    -42.4761799 -0.169866E-07  0.248E-04    2.17      80.7  T
  12    -42.4761799 -0.363869E-09  0.102E-04    2.17     195.5  T
     SCC iter.                  ...        0 min,  0.017 sec
     gradient                   ...        0 min,  0.012 sec
 * total energy  :   -68.8931519 Eh     change       -0.1015176E+01 Eh
   gradient norm :     9.5513756 Eh/α   predicted    -0.7151329E+00 ( -29.56%)
   displ. norm   :     0.6283335 α      lambda       -0.2819051E+01
   maximum displ.:     0.2018131 α      in ANC's #44, #40, #1, ...

........................................................................
.............................. CYCLE   10 ..............................
........................................................................

 iter      E             dE          RMSdq      gap      omega  full diag
   1    -42.4743304 -0.424743E+02  0.103E+00    1.81       0.0  T
   2    -42.4267105  0.476199E-01  0.151E+00    1.25       1.0  T
   3    -42.5052087 -0.784982E-01  0.373E-01    2.06       1.0  T
   4    -42.5043320  0.876719E-03  0.290E-01    1.95       1.0  T
   5    -42.5050330 -0.701019E-03  0.108E-01    2.08       1.0  T
   6    -42.5053897 -0.356750E-03  0.391E-02    2.04       1.0  T
   7    -42.5054276 -0.378382E-04  0.141E-02    2.05       1.4  T
   8    -42.5054259  0.171978E-05  0.103E-02    2.05       1.9  T
   9    -42.5054292 -0.334335E-05  0.306E-03    2.05       6.5  T
  10    -42.5054293 -0.771367E-07  0.110E-03    2.05      18.2  T
  11    -42.5054293 -0.645868E-08  0.431E-04    2.05      46.5  T
  12    -42.5054293 -0.248107E-08  0.178E-04    2.05     112.5  T
     SCC iter.                  ...        0 min,  0.017 sec
     gradient                   ...        0 min,  0.012 sec
 * total energy  :   -71.3005676 Eh     change       -0.2407416E+01 Eh
   gradient norm :     6.6471582 Eh/α   predicted    -0.1966012E+01 ( -18.34%)
   displ. norm   :     0.5587122 α      lambda       -0.3395244E+01
   maximum displ.:     0.4467470 α      in ANC's #1, #48, #69, ...

........................................................................
.............................. CYCLE   11 ..............................
........................................................................

 iter      E             dE          RMSdq      gap      omega  full diag
   1    -42.5106584 -0.425107E+02  0.104E+00    1.54       0.0  T
   2    -42.4923989  0.182595E-01  0.995E-01    1.52       1.0  T
   3    -42.5074345 -0.150356E-01  0.627E-01    1.65       1.0  T
   4    -42.5178907 -0.104562E-01  0.231E-01    1.68       1.0  T
   5    -42.5186471 -0.756457E-03  0.148E-01    1.69       1.0  T
   6    -42.5194677 -0.820539E-03  0.244E-02    1.69       1.0  T
   7    -42.5194701 -0.246522E-05  0.152E-02    1.69       1.3  T
   8    -42.5194737 -0.353203E-05  0.441E-03    1.69       4.5  T
   9    -42.5194741 -0.397768E-06  0.130E-03    1.69      15.4  T
  10    -42.5194741 -0.149104E-07  0.473E-04    1.69      42.3  T
  11    -42.5194741 -0.878082E-09  0.174E-04    1.69     114.7  T
     SCC iter.                  ...        0 min,  0.016 sec
     gradient                   ...        0 min,  0.012 sec
 * total energy  :   -66.5984540 Eh     change        0.4702114E+01 Eh
   gradient norm :    57.7915502 Eh/α   predicted    -0.2227550E+01 (-147.37%)
   displ. norm   :     0.3103599 α      lambda       -0.1613311E+02
   maximum displ.:     0.1510397 α      in ANC's #44, #1, #69, ...

........................................................................
.............................. CYCLE   12 ..............................
........................................................................

 iter      E             dE          RMSdq      gap      omega  full diag
   1    -42.5385120 -0.425385E+02  0.494E-01    1.73       0.0  T
   2    -42.5332850  0.522702E-02  0.483E-01    1.73       1.0  T
   3    -42.5390173 -0.573233E-02  0.297E-01    1.68       1.0  T
   4    -42.5398219 -0.804618E-03  0.180E-01    1.73       1.0  T
   5    -42.5411711 -0.134920E-02  0.475E-02    1.72       1.0  T
   6    -42.5412331 -0.619736E-04  0.154E-02    1.72       1.3  T
   7    -42.5412351 -0.200637E-05  0.864E-03    1.72       2.3  T
   8    -42.5412364 -0.127728E-05  0.155E-03    1.72      12.9  T
   9    -42.5412364 -0.406415E-07  0.539E-04    1.72      37.1  T
  10    -42.5412364 -0.153123E-08  0.294E-04    1.72      68.0  T
     SCC iter.                  ...        0 min,  0.014 sec
     gradient                   ...        0 min,  0.012 sec
 * total energy  :   -72.0027875 Eh     change       -0.5404333E+01 Eh
   gradient norm :     0.6447501 Eh/α   predicted    -0.8843563E+01 (  63.64%)
   displ. norm   :     0.0837106 α      lambda       -0.1980557E-01
   maximum displ.:     0.0338855 α      in ANC's #34, #1, #59, ...

........................................................................
.............................. CYCLE   13 ..............................
........................................................................

 iter      E             dE          RMSdq      gap      omega  full diag
   1    -42.5412985 -0.425413E+02  0.123E-01    1.69       0.0  T
   2    -42.5411054  0.193075E-03  0.103E-01    1.70       1.0  T
   3    -42.5413174 -0.212048E-03  0.817E-02    1.69       1.0  T
   4    -42.5414630 -0.145551E-03  0.330E-02    1.70       1.0  T
   5    -42.5414702 -0.725091E-05  0.267E-02    1.70       1.0  T
   6    -42.5414956 -0.253715E-04  0.368E-03    1.70       5.4  T
   7    -42.5414958 -0.177781E-06  0.170E-03    1.70      11.8  T
   8    -42.5414958  0.277041E-08  0.775E-04    1.70      25.8  T
   9    -42.5414958 -0.143510E-07  0.267E-04    1.70      75.0  T
     SCC iter.                  ...        0 min,  0.013 sec
     gradient                   ...        0 min,  0.012 sec
 * total energy  :   -72.0175685 Eh     change       -0.1478108E-01 Eh
   gradient norm :     0.1608330 Eh/α   predicted    -0.9971444E-02 ( -32.54%)
   displ. norm   :     0.2257769 α      lambda       -0.3191166E-01
   maximum displ.:     0.0835436 α      in ANC's #34, #60, #69, ...

........................................................................
.............................. CYCLE   14 ..............................
........................................................................

 iter      E             dE          RMSdq      gap      omega  full diag
   1    -42.5446270 -0.425446E+02  0.370E-01    1.60       0.0  T
   2    -42.5418156  0.281135E-02  0.339E-01    1.63       1.0  T
   3    -42.5446275 -0.281192E-02  0.258E-01    1.61       1.0  T
   4    -42.5464535 -0.182598E-02  0.901E-02    1.63       1.0  T
   5    -42.5463880  0.655114E-04  0.706E-02    1.62       1.0  T
   6    -42.5465776 -0.189601E-03  0.138E-02    1.63       1.5  T
   7    -42.5465814 -0.382849E-05  0.494E-03    1.63       4.0  T
   8    -42.5465814 -0.170610E-07  0.265E-03    1.63       7.5  T
   9    -42.5465816 -0.122729E-06  0.487E-04    1.63      41.1  T
  10    -42.5465816 -0.323003E-08  0.268E-04    1.63      74.6  T
     SCC iter.                  ...        0 min,  0.014 sec
     gradient                   ...        0 min,  0.012 sec
 * total energy  :   -72.0379220 Eh     change       -0.2035349E-01 Eh
   gradient norm :     0.1674197 Eh/α   predicted    -0.1676947E-01 ( -17.61%)
   displ. norm   :     0.1485365 α      lambda       -0.9243222E-02
   maximum displ.:     0.0681059 α      in ANC's #34, #28, #69, ...

........................................................................
.............................. CYCLE   15 ..............................
........................................................................

 iter      E             dE          RMSdq      gap      omega  full diag
   1    -42.5496336 -0.425496E+02  0.176E-01    1.51       0.0  T
   2    -42.5495987  0.348987E-04  0.136E-01    1.54       1.0  T
   3    -42.5497383 -0.139552E-03  0.912E-02    1.55       1.0  T
   4    -42.5499278 -0.189515E-03  0.700E-02    1.54       1.0  T
   5    -42.5500167 -0.889485E-04  0.314E-02    1.55       1.0  T
   6    -42.5500538 -0.370792E-04  0.830E-03    1.55       2.4  T
   7    -42.5500553 -0.142418E-05  0.272E-03    1.55       7.3  T
   8    -42.5500553 -0.343921E-07  0.161E-03    1.55      12.4  T
   9    -42.5500553 -0.302997E-07  0.572E-04    1.55      35.0  T
  10    -42.5500553 -0.999874E-08  0.184E-04    1.55     108.9  T
     SCC iter.                  ...        0 min,  0.014 sec
     gradient                   ...        0 min,  0.012 sec
 * total energy  :   -72.0453102 Eh     change       -0.7388198E-02 Eh
   gradient norm :     0.1741162 Eh/α   predicted    -0.4723672E-02 ( -36.06%)
   displ. norm   :     0.3008276 α      lambda       -0.1610860E-01
   maximum displ.:     0.1443959 α      in ANC's #34, #28, #26, ...

........................................................................
.............................. CYCLE   16 ..............................
........................................................................

 iter      E             dE          RMSdq      gap      omega  full diag
   1    -42.5510705 -0.425511E+02  0.324E-01    1.33       0.0  T
   2    -42.5438506  0.721997E-02  0.527E-01    1.38       1.0  T
   3    -42.5537692 -0.991867E-02  0.134E-01    1.40       1.0  T
   4    -42.5534051  0.364136E-03  0.129E-01    1.40       1.0  T
   5    -42.5537103 -0.305202E-03  0.612E-02    1.40       1.0  T
   6    -42.5538162 -0.105875E-03  0.137E-02    1.40       1.5  T
   7    -42.5538194 -0.322873E-05  0.642E-03    1.40       3.1  T
   8    -42.5538199 -0.474138E-06  0.279E-03    1.40       7.2  T
   9    -42.5538200 -0.906578E-07  0.111E-03    1.40      18.0  T
  10    -42.5538200 -0.333678E-07  0.418E-04    1.40      47.9  T
  11    -42.5538200 -0.168281E-08  0.126E-04    1.40     158.9  T
     SCC iter.                  ...        0 min,  0.016 sec
     gradient                   ...        0 min,  0.012 sec
 * total energy  :   -72.0573674 Eh     change       -0.1205715E-01 Eh
   gradient norm :     0.1080062 Eh/α   predicted    -0.8783243E-02 ( -27.15%)
   displ. norm   :     0.3182696 α      lambda       -0.1349670E-01
   maximum displ.:     0.1520313 α      in ANC's #34, #28, #54, ...

........................................................................
.............................. CYCLE   17 ..............................
........................................................................

 iter      E             dE          RMSdq      gap      omega  full diag
   1    -42.5477321 -0.425477E+02  0.346E-01    1.25       0.0  T
   2    -42.5313060  0.164262E-01  0.709E-01    1.30       1.0  T
   3    -42.5515315 -0.202255E-01  0.155E-01    1.31       1.0  T
   4    -42.5515020  0.294796E-04  0.922E-02    1.31       1.0  T
   5    -42.5515393 -0.373576E-04  0.626E-02    1.32       1.0  T
   6    -42.5516656 -0.126301E-03  0.124E-02    1.32       1.6  T
   7    -42.5516669 -0.130254E-05  0.842E-03    1.32       2.4  T
   8    -42.5516681 -0.118527E-05  0.314E-03    1.32       6.4  T
   9    -42.5516682 -0.114124E-06  0.125E-03    1.32      16.0  T
  10    -42.5516683 -0.420844E-07  0.494E-04    1.32      40.5  T
  11    -42.5516683 -0.230686E-08  0.188E-04    1.32     106.6  T
     SCC iter.                  ...        0 min,  0.016 sec
     gradient                   ...        0 min,  0.011 sec
 * total energy  :   -72.0668655 Eh     change       -0.9498125E-02 Eh
   gradient norm :     0.1958723 Eh/α   predicted    -0.7431617E-02 ( -21.76%)
   displ. norm   :     0.2176522 α      lambda       -0.7720016E-02
   maximum displ.:     0.0986777 α      in ANC's #34, #54, #28, ...

........................................................................
.............................. CYCLE   18 ..............................
........................................................................

 iter      E             dE          RMSdq      gap      omega  full diag
   1    -42.5465313 -0.425465E+02  0.251E-01    1.24       0.0  T
   2    -42.5373007  0.923057E-02  0.507E-01    1.27       1.0  T
   3    -42.5484366 -0.111359E-01  0.918E-02    1.26       1.0  T
   4    -42.5484321  0.442490E-05  0.463E-02    1.27       1.0  T
   5    -42.5484061  0.260368E-04  0.343E-02    1.27       1.0  T
   6    -42.5484486 -0.425190E-04  0.708E-03    1.27       2.8  T
   7    -42.5484483  0.366287E-06  0.560E-03    1.27       3.6  T
   8    -42.5484489 -0.663621E-06  0.198E-03    1.27      10.1  T
   9    -42.5484490 -0.737444E-07  0.789E-04    1.27      25.3  T
  10    -42.5484490 -0.141759E-07  0.359E-04    1.27      55.7  T
     SCC iter.                  ...        0 min,  0.014 sec
     gradient                   ...        0 min,  0.011 sec
 * total energy  :   -72.0724465 Eh     change       -0.5580973E-02 Eh
   gradient norm :     0.2281923 Eh/α   predicted    -0.4043132E-02 ( -27.56%)
   displ. norm   :     0.1664669 α      lambda       -0.5986084E-02
   maximum displ.:     0.0655389 α      in ANC's #34, #54, #28, ...

........................................................................
.............................. CYCLE   19 ..............................
........................................................................

 iter      E             dE          RMSdq      gap      omega  full diag
   1    -42.5491268 -0.425491E+02  0.193E-01    1.20       0.0  T
   2    -42.5445600  0.456678E-02  0.344E-01    1.22       1.0  T
   3    -42.5498436 -0.528360E-02  0.929E-02    1.21       1.0  T
   4    -42.5500168 -0.173197E-03  0.357E-02    1.22       1.0  T
   5    -42.5500211 -0.435167E-05  0.139E-02    1.22       1.4  T
   6    -42.5500263 -0.516009E-05  0.523E-03    1.22       3.8  T
   7    -42.5500266 -0.283890E-06  0.332E-03    1.22       6.0  T
   8    -42.5500268 -0.193366E-06  0.161E-03    1.22      12.4  T
   9    -42.5500268 -0.658130E-07  0.450E-04    1.22      44.5  T
  10    -42.5500268 -0.150727E-08  0.305E-04    1.22      65.6  T
     SCC iter.                  ...        0 min,  0.014 sec
     gradient                   ...        0 min,  0.012 sec
 * total energy  :   -72.0768301 Eh     change       -0.4383613E-02 Eh
   gradient norm :     0.1957883 Eh/α   predicted    -0.3075820E-02 ( -29.83%)
   displ. norm   :     0.1618867 α      lambda       -0.5049823E-02
   maximum displ.:     0.0539486 α      in ANC's #34, #56, #17, ...

........................................................................
.............................. CYCLE   20 ..............................
........................................................................

 iter      E             dE          RMSdq      gap      omega  full diag
   1    -42.5570587 -0.425571E+02  0.160E-01    1.14       0.0  T
   2    -42.5552207  0.183796E-02  0.219E-01    1.16       1.0  T
   3    -42.5569868 -0.176609E-02  0.126E-01    1.15       1.0  T
   4    -42.5574495 -0.462626E-03  0.427E-02    1.15       1.0  T
   5    -42.5574594 -0.993682E-05  0.242E-02    1.15       1.0  T
   6    -42.5574786 -0.191767E-04  0.868E-03    1.15       2.3  T
   7    -42.5574811 -0.256455E-05  0.277E-03    1.15       7.2  T
   8    -42.5574813 -0.126050E-06  0.101E-03    1.15      19.9  T
   9    -42.5574813 -0.115921E-07  0.355E-04    1.15      56.4  T
  10    -42.5574813 -0.276547E-08  0.160E-04    1.15     125.3  T
     SCC iter.                  ...        0 min,  0.014 sec
     gradient                   ...        0 min,  0.011 sec
 * total energy  :   -72.0804957 Eh     change       -0.3665584E-02 Eh
   gradient norm :     0.1685628 Eh/α   predicted    -0.2591146E-02 ( -29.31%)
   displ. norm   :     0.1801598 α      lambda       -0.4568158E-02
   maximum displ.:     0.0557452 α      in ANC's #34, #17, #56, ...
 * RMSD in coord.:     1.1782909 α      energy gain  -0.2743817E+02 Eh

generating ANC from model Hessian ...
Using Lindh-Hessian (1995)
 Shifting diagonal of input Hessian by    9.8156667137318295E-003
 Lowest  eigenvalues of input Hessian
    0.000000    0.000000    0.000000    0.000000    0.000000    0.000000
    0.010000    0.011207    0.012811    0.013801    0.017402    0.018342
    0.020537    0.021754    0.025115    0.026919    0.028731    0.031195
 Highest eigenvalues
    2.098994    2.178322    2.296823    2.386991   20.815873   24.497950


........................................................................
.............................. CYCLE   21 ..............................
........................................................................

 iter      E             dE          RMSdq      gap      omega  full diag
   1    -42.5680936 -0.425681E+02  0.149E-01    1.07       0.0  T
   2    -42.5678451  0.248432E-03  0.120E-01    1.08       1.0  T
   3    -42.5674919  0.353252E-03  0.155E-01    1.07       1.0  T
   4    -42.5683112 -0.819325E-03  0.377E-02    1.08       1.0  T
   5    -42.5682946  0.165647E-04  0.316E-02    1.08       1.0  T
   6    -42.5683252 -0.306117E-04  0.101E-02    1.08       2.0  T
   7    -42.5683287 -0.346940E-05  0.394E-03    1.08       5.1  T
   8    -42.5683290 -0.323333E-06  0.105E-03    1.08      19.1  T
   9    -42.5683291 -0.171541E-07  0.409E-04    1.08      48.9  T
  10    -42.5683291 -0.293132E-08  0.173E-04    1.08     115.7  T
     SCC iter.                  ...        0 min,  0.014 sec
     gradient                   ...        0 min,  0.011 sec
 * total energy  :   -72.0839640 Eh     change       -0.3468313E-02 Eh
   gradient norm :     0.1570935 Eh/α   predicted     0.0000000E+00 (-100.00%)
   displ. norm   :     0.4098606 α      lambda       -0.2219244E-01
   maximum displ.:     0.2400679 α      in ANC's #8, #12, #17, ...

........................................................................
.............................. CYCLE   22 ..............................
........................................................................

 iter      E             dE          RMSdq      gap      omega  full diag
   1    -42.5803121 -0.425803E+02  0.243E-01    1.09       0.0  T
   2    -42.5800232  0.288925E-03  0.164E-01    1.09       1.0  T
   3    -42.5773748  0.264838E-02  0.274E-01    1.10       1.0  T
   4    -42.5804400 -0.306519E-02  0.453E-02    1.09       1.0  T
   5    -42.5804638 -0.238223E-04  0.282E-02    1.09       1.0  T
   6    -42.5804951 -0.313156E-04  0.677E-03    1.09       3.0  T
   7    -42.5804957 -0.587910E-06  0.411E-03    1.09       4.9  T
   8    -42.5804959 -0.219189E-06  0.161E-03    1.09      12.4  T
   9    -42.5804960 -0.490371E-07  0.486E-04    1.09      41.2  T
  10    -42.5804960 -0.744840E-08  0.146E-04    1.09     137.1  T
     SCC iter.                  ...        0 min,  0.014 sec
     gradient                   ...        0 min,  0.012 sec
 * total energy  :   -71.8565713 Eh     change        0.2273927E+00 Eh
   gradient norm :     6.5546099 Eh/α   predicted    -0.1300673E-01 (-105.72%)
   displ. norm   :     0.0880943 α      lambda       -0.5165732E+00
   maximum displ.:     0.0716423 α      in ANC's #61, #38, #48, ...

........................................................................
.............................. CYCLE   23 ..............................
........................................................................

 iter      E             dE          RMSdq      gap      omega  full diag
   1    -42.5853400 -0.425853E+02  0.136E-01    1.10       0.0  T
   2    -42.5846832  0.656771E-03  0.147E-01    1.09       1.0  T
   3    -42.5850458 -0.362570E-03  0.114E-01    1.10       1.0  T
   4    -42.5854366 -0.390853E-03  0.376E-02    1.10       1.0  T
   5    -42.5854749 -0.382593E-04  0.160E-02    1.10       1.2  T
   6    -42.5854843 -0.945182E-05  0.301E-03    1.10       6.6  T
   7    -42.5854844 -0.226384E-07  0.150E-03    1.10      13.3  T
   8    -42.5854844 -0.511169E-07  0.495E-04    1.10      40.4  T
   9    -42.5854844 -0.578451E-08  0.117E-04    1.10     170.6  T
     SCC iter.                  ...        0 min,  0.013 sec
     gradient                   ...        0 min,  0.011 sec
 * total energy  :   -72.0943570 Eh     change       -0.2377857E+00 Eh
   gradient norm :     0.0474508 Eh/α   predicted    -0.2602936E+00 (   9.47%)
   displ. norm   :     0.5461339 α      lambda       -0.9505395E-02
   maximum displ.:     0.3161772 α      in ANC's #8, #10, #9, ...

........................................................................
.............................. CYCLE   24 ..............................
........................................................................

 iter      E             dE          RMSdq      gap      omega  full diag
   1    -42.5918903 -0.425919E+02  0.283E-01    1.15       0.0  T
   2    -42.5889275  0.296280E-02  0.316E-01    1.14       1.0  T
   3    -42.5910182 -0.209064E-02  0.218E-01    1.14       1.0  T
   4    -42.5923321 -0.131390E-02  0.520E-02    1.14       1.0  T
   5    -42.5924083 -0.761798E-04  0.297E-02    1.14       1.0  T
   6    -42.5924409 -0.326037E-04  0.724E-03    1.14       2.8  T
   7    -42.5924415 -0.596034E-06  0.420E-03    1.14       4.8  T
   8    -42.5924417 -0.264053E-06  0.136E-03    1.14      14.7  T
   9    -42.5924417 -0.209277E-07  0.687E-04    1.14      29.1  T
  10    -42.5924418 -0.112296E-07  0.170E-04    1.14     117.3  T
     SCC iter.                  ...        0 min,  0.014 sec
     gradient                   ...        0 min,  0.011 sec
 * total energy  :   -72.1017396 Eh     change       -0.7382563E-02 Eh
   gradient norm :     0.0494771 Eh/α   predicted    -0.6170285E-02 ( -16.42%)
   displ. norm   :     0.5823162 α      lambda       -0.7237294E-02
   maximum displ.:     0.3000213 α      in ANC's #8, #10, #9, ...

........................................................................
.............................. CYCLE   25 ..............................
........................................................................

 iter      E             dE          RMSdq      gap      omega  full diag
   1    -42.5941900 -0.425942E+02  0.361E-01    1.25       0.0  T
   2    -42.5903036  0.388636E-02  0.377E-01    1.26       1.0  T
   3    -42.5925828 -0.227914E-02  0.275E-01    1.23       1.0  T
   4    -42.5946386 -0.205583E-02  0.855E-02    1.24       1.0  T
   5    -42.5949419 -0.303331E-03  0.265E-02    1.24       1.0  T
   6    -42.5949617 -0.197863E-04  0.103E-02    1.24       1.9  T
   7    -42.5949636 -0.187536E-05  0.518E-03    1.24       3.9  T
   8    -42.5949640 -0.455954E-06  0.136E-03    1.24      14.7  T
   9    -42.5949640 -0.912161E-08  0.794E-04    1.24      25.2  T
  10    -42.5949641 -0.168010E-07  0.262E-04    1.24      76.2  T
     SCC iter.                  ...        0 min,  0.014 sec
     gradient                   ...        0 min,  0.011 sec
 * total energy  :   -72.1071593 Eh     change       -0.5419734E-02 Eh
   gradient norm :     0.0705752 Eh/α   predicted    -0.4845705E-02 ( -10.59%)
   displ. norm   :     0.4809436 α      lambda       -0.5386111E-02
   maximum displ.:     0.2160279 α      in ANC's #2, #10, #8, ...

........................................................................
.............................. CYCLE   26 ..............................
........................................................................

 iter      E             dE          RMSdq      gap      omega  full diag
   1    -42.5998876 -0.425999E+02  0.272E-01    1.31       0.0  T
   2    -42.5982522  0.163546E-02  0.262E-01    1.33       1.0  T
   3    -42.5987136 -0.461472E-03  0.212E-01    1.30       1.0  T
   4    -42.6000069 -0.129325E-02  0.768E-02    1.31       1.0  T
   5    -42.6002547 -0.247844E-03  0.165E-02    1.31       1.2  T
   6    -42.6002615 -0.672980E-05  0.672E-03    1.31       3.0  T
   7    -42.6002623 -0.868823E-06  0.312E-03    1.31       6.4  T
   8    -42.6002624 -0.125127E-06  0.609E-04    1.31      32.8  T
   9    -42.6002625 -0.335628E-08  0.281E-04    1.31      71.1  T
     SCC iter.                  ...        0 min,  0.013 sec
     gradient                   ...        0 min,  0.011 sec
 * total energy  :   -72.1111940 Eh     change       -0.4034649E-02 Eh
   gradient norm :     0.0990973 Eh/α   predicted    -0.3315980E-02 ( -17.81%)
   displ. norm   :     0.4856507 α      lambda       -0.5480926E-02
   maximum displ.:     0.2787340 α      in ANC's #10, #12, #8, ...

........................................................................
.............................. CYCLE   27 ..............................
........................................................................

 iter      E             dE          RMSdq      gap      omega  full diag
   1    -42.5965738 -0.425966E+02  0.345E-01    1.45       0.0  T
   2    -42.5904314  0.614240E-02  0.458E-01    1.51       1.0  T
   3    -42.5978964 -0.746500E-02  0.176E-01    1.44       1.0  T
   4    -42.5982007 -0.304283E-03  0.835E-02    1.46       1.0  T
   5    -42.5982838 -0.830709E-04  0.564E-02    1.46       1.0  T
   6    -42.5983988 -0.115003E-03  0.932E-03    1.46       2.1  T
   7    -42.5984009 -0.215689E-05  0.413E-03    1.46       4.8  T
   8    -42.5984010 -0.374689E-07  0.196E-03    1.46      10.2  T
   9    -42.5984010 -0.820705E-07  0.596E-04    1.46      33.5  T
  10    -42.5984010 -0.548163E-08  0.253E-04    1.46      79.1  T
     SCC iter.                  ...        0 min,  0.014 sec
     gradient                   ...        0 min,  0.011 sec
 * total energy  :   -72.1131134 Eh     change       -0.1919376E-02 Eh
   gradient norm :     0.1199066 Eh/α   predicted    -0.3386824E-02 (  76.45%)
   displ. norm   :     0.2408927 α      lambda       -0.6130349E-02
   maximum displ.:     0.1166073 α      in ANC's #12, #2, #3, ...

........................................................................
.............................. CYCLE   28 ..............................
........................................................................

 iter      E             dE          RMSdq      gap      omega  full diag
   1    -42.6113395 -0.426113E+02  0.195E-01    1.51       0.0  T
   2    -42.6108418  0.497718E-03  0.155E-01    1.48       1.0  T
   3    -42.6101497  0.692147E-03  0.185E-01    1.53       1.0  T
   4    -42.6114843 -0.133463E-02  0.235E-02    1.50       1.0  T
   5    -42.6114942 -0.988568E-05  0.112E-02    1.50       1.8  T
   6    -42.6114958 -0.162482E-05  0.598E-03    1.50       3.3  T
   7    -42.6114959 -0.498290E-07  0.399E-03    1.50       5.0  T
   8    -42.6114962 -0.366502E-06  0.172E-03    1.50      11.7  T
   9    -42.6114963 -0.105313E-06  0.407E-04    1.50      49.1  T
  10    -42.6114963 -0.248319E-08  0.187E-04    1.50     106.7  T
     SCC iter.                  ...        0 min,  0.014 sec
     gradient                   ...        0 min,  0.011 sec
 * total energy  :   -72.1158012 Eh     change       -0.2687835E-02 Eh
   gradient norm :     0.0829518 Eh/α   predicted    -0.3243040E-02 (  20.66%)
   displ. norm   :     0.3314733 α      lambda       -0.3150518E-02
   maximum displ.:     0.1475079 α      in ANC's #10, #9, #5, ...

........................................................................
.............................. CYCLE   29 ..............................
........................................................................

 iter      E             dE          RMSdq      gap      omega  full diag
   1    -42.6033772 -0.426034E+02  0.324E-01    1.64       0.0  T
   2    -42.6032322  0.144992E-03  0.193E-01    1.66       1.0  T
   3    -42.5988155  0.441676E-02  0.322E-01    1.55       1.0  T
   4    -42.6034801 -0.466466E-02  0.274E-02    1.64       1.0  T
   5    -42.6034821 -0.190992E-05  0.172E-02    1.64       1.2  T
   6    -42.6034864 -0.435472E-05  0.952E-03    1.64       2.1  T
   7    -42.6034881 -0.173316E-05  0.477E-03    1.64       4.2  T
   8    -42.6034887 -0.574947E-06  0.191E-03    1.64      10.5  T
   9    -42.6034888 -0.732561E-07  0.560E-04    1.64      35.7  T
  10    -42.6034888 -0.540987E-08  0.193E-04    1.64     103.6  T
     SCC iter.                  ...        0 min,  0.014 sec
     gradient                   ...        0 min,  0.011 sec
 * total energy  :   -72.1167723 Eh     change       -0.9710815E-03 Eh
   gradient norm :     0.0542864 Eh/α   predicted    -0.1748345E-02 (  80.04%)
   displ. norm   :     0.2890901 α      lambda       -0.2902899E-02
   maximum displ.:     0.2043512 α      in ANC's #1, #5, #4, ...

........................................................................
.............................. CYCLE   30 ..............................
........................................................................

 iter      E             dE          RMSdq      gap      omega  full diag
   1    -42.6050528 -0.426051E+02  0.121E-01    1.67       0.0  T
   2    -42.6049995  0.533453E-04  0.892E-02    1.68       1.0  T
   3    -42.6044901  0.509324E-03  0.111E-01    1.64       1.0  T
   4    -42.6050997 -0.609578E-03  0.163E-02    1.67       1.2  T
   5    -42.6051019 -0.215240E-05  0.811E-03    1.67       2.5  T
   6    -42.6051035 -0.158441E-05  0.347E-03    1.67       5.8  T
   7    -42.6051034  0.571485E-08  0.223E-03    1.67       9.0  T
   8    -42.6051035 -0.979441E-07  0.110E-03    1.67      18.2  T
   9    -42.6051036 -0.407516E-07  0.213E-04    1.67      93.7  T
  10    -42.6051036 -0.761830E-09  0.925E-05    1.67     216.3  T
     SCC iter.                  ...        0 min,  0.014 sec
     gradient                   ...        0 min,  0.011 sec
 * total energy  :   -72.1187185 Eh     change       -0.1946168E-02 Eh
   gradient norm :     0.0299437 Eh/α   predicted    -0.1572759E-02 ( -19.19%)
   displ. norm   :     0.3874682 α      lambda       -0.2165646E-02
   maximum displ.:     0.3005056 α      in ANC's #1, #5, #4, ...

........................................................................
.............................. CYCLE   31 ..............................
........................................................................

 iter      E             dE          RMSdq      gap      omega  full diag
   1    -42.6083908 -0.426084E+02  0.144E-01    1.75       0.0  T
   2    -42.6083025  0.883621E-04  0.111E-01    1.77       1.0  T
   3    -42.6078401  0.462351E-03  0.120E-01    1.71       1.0  T
   4    -42.6085073 -0.667197E-03  0.226E-02    1.75       1.0  T
   5    -42.6085020  0.527622E-05  0.162E-02    1.75       1.2  T
   6    -42.6085127 -0.106230E-04  0.363E-03    1.75       5.5  T
   7    -42.6085128 -0.121909E-06  0.227E-03    1.75       8.8  T
   8    -42.6085129 -0.724785E-07  0.767E-04    1.75      26.1  T
   9    -42.6085129 -0.688078E-08  0.211E-04    1.75      94.8  T
     SCC iter.                  ...        0 min,  0.013 sec
     gradient                   ...        0 min,  0.011 sec
 * total energy  :   -72.1204117 Eh     change       -0.1693280E-02 Eh
   gradient norm :     0.0512683 Eh/α   predicted    -0.1245396E-02 ( -26.45%)
   displ. norm   :     0.5625609 α      lambda       -0.2412020E-02
   maximum displ.:     0.4372029 α      in ANC's #1, #5, #12, ...

........................................................................
.............................. CYCLE   32 ..............................
........................................................................

 iter      E             dE          RMSdq      gap      omega  full diag
   1    -42.6095427 -0.426095E+02  0.249E-01    1.87       0.0  T
   2    -42.6093626  0.180154E-03  0.181E-01    1.92       1.0  T
   3    -42.6080049  0.135764E-02  0.205E-01    1.79       1.0  T
   4    -42.6098704 -0.186542E-02  0.352E-02    1.88       1.0  T
   5    -42.6098487  0.216451E-04  0.289E-02    1.88       1.0  T
   6    -42.6098826 -0.338829E-04  0.550E-03    1.87       3.6  T
   7    -42.6098827 -0.151795E-06  0.335E-03    1.87       6.0  T
   8    -42.6098829 -0.171363E-06  0.110E-03    1.88      18.2  T
   9    -42.6098829 -0.150066E-07  0.427E-04    1.88      46.8  T
  10    -42.6098829 -0.243148E-08  0.187E-04    1.88     107.1  T
     SCC iter.                  ...        0 min,  0.014 sec
     gradient                   ...        0 min,  0.011 sec
 * total energy  :   -72.1223830 Eh     change       -0.1971293E-02 Eh
   gradient norm :     0.0776103 Eh/α   predicted    -0.1587686E-02 ( -19.46%)
   displ. norm   :     0.5847831 α      lambda       -0.2597284E-02
   maximum displ.:     0.4406195 α      in ANC's #1, #12, #5, ...

........................................................................
.............................. CYCLE   33 ..............................
........................................................................

 iter      E             dE          RMSdq      gap      omega  full diag
   1    -42.6137904 -0.426138E+02  0.303E-01    1.96       0.0  T
   2    -42.6136961  0.943016E-04  0.226E-01    2.06       1.0  T
   3    -42.6124799  0.121615E-02  0.211E-01    1.88       1.0  T
   4    -42.6143645 -0.188456E-02  0.559E-02    2.01       1.0  T
   5    -42.6143594  0.507363E-05  0.370E-02    2.00       1.0  T
   6    -42.6144152 -0.557609E-04  0.557E-03    2.00       3.6  T
   7    -42.6144155 -0.311397E-06  0.301E-03    2.00       6.6  T
   8    -42.6144156 -0.552885E-07  0.110E-03    2.00      18.3  T
   9    -42.6144156 -0.140845E-07  0.358E-04    2.00      55.8  T
  10    -42.6144156 -0.209731E-09  0.158E-04    2.00     126.4  T
     SCC iter.                  ...        0 min,  0.014 sec
     gradient                   ...        0 min,  0.011 sec
 * total energy  :   -72.1243080 Eh     change       -0.1924957E-02 Eh
   gradient norm :     0.0509717 Eh/α   predicted    -0.1742750E-02 (  -9.47%)
   displ. norm   :     0.7113847 α      lambda       -0.2337136E-02
   maximum displ.:     0.5392660 α      in ANC's #1, #10, #5, ...

........................................................................
.............................. CYCLE   34 ..............................
........................................................................

 iter      E             dE          RMSdq      gap      omega  full diag
   1    -42.6035302 -0.426035E+02  0.421E-01    2.05       0.0  T
   2    -42.6032679  0.262295E-03  0.297E-01    2.16       1.0  T
   3    -42.6010182  0.224968E-02  0.287E-01    1.92       1.0  T
   4    -42.6043444 -0.332622E-02  0.548E-02    2.13       1.0  T
   5    -42.6043363  0.808281E-05  0.372E-02    2.11       1.0  T
   6    -42.6043890 -0.526915E-04  0.853E-03    2.11       2.3  T
   7    -42.6043900 -0.100525E-05  0.472E-03    2.11       4.2  T
   8    -42.6043902 -0.218004E-06  0.132E-03    2.11      15.1  T
   9    -42.6043903 -0.154854E-07  0.573E-04    2.11      34.9  T
  10    -42.6043903  0.113424E-09  0.327E-04    2.11      61.2  T
     SCC iter.                  ...        0 min,  0.014 sec
     gradient                   ...        0 min,  0.011 sec
 * total energy  :   -72.1245307 Eh     change       -0.2227627E-03 Eh
   gradient norm :     0.1809648 Eh/α   predicted    -0.1759943E-02 ( 690.05%)
   displ. norm   :     0.2081928 α      lambda       -0.3025285E-02
   maximum displ.:     0.1153595 α      in ANC's #1, #8, #9, ...

........................................................................
.............................. CYCLE   35 ..............................
........................................................................

 iter      E             dE          RMSdq      gap      omega  full diag
   1    -42.6110891 -0.426111E+02  0.104E-01    2.10       0.0  T
   2    -42.6108875  0.201564E-03  0.964E-02    2.02       1.0  T
   3    -42.6111369 -0.249428E-03  0.589E-02    2.10       1.0  T
   4    -42.6112238 -0.868364E-04  0.130E-02    2.08       1.5  T
   5    -42.6112242 -0.395165E-06  0.513E-03    2.08       3.9  T
   6    -42.6112246 -0.419267E-06  0.305E-03    2.08       6.6  T
   7    -42.6112247 -0.168578E-06  0.180E-03    2.08      11.1  T
   8    -42.6112248 -0.638212E-07  0.550E-04    2.08      36.4  T
   9    -42.6112248 -0.235215E-08  0.269E-04    2.08      74.4  T
     SCC iter.                  ...        0 min,  0.013 sec
     gradient                   ...        0 min,  0.011 sec
 * total energy  :   -72.1260393 Eh     change       -0.1508573E-02 Eh
   gradient norm :     0.0904358 Eh/α   predicted    -0.1578210E-02 (   4.62%)
   displ. norm   :     0.3224533 α      lambda       -0.1203822E-02
   maximum displ.:     0.2372535 α      in ANC's #1, #8, #9, ...

........................................................................
.............................. CYCLE   36 ..............................
........................................................................

 iter      E             dE          RMSdq      gap      omega  full diag
   1    -42.6158374 -0.426158E+02  0.154E-01    2.05       0.0  T
   2    -42.6158501 -0.126730E-04  0.937E-02    2.06       1.0  T
   3    -42.6156280  0.222094E-03  0.745E-02    2.02       1.0  T
   4    -42.6158647 -0.236665E-03  0.125E-02    2.06       1.6  T
   5    -42.6158664 -0.175375E-05  0.606E-03    2.05       3.3  T
   6    -42.6158671 -0.646357E-06  0.531E-03    2.06       3.8  T
   7    -42.6158679 -0.813601E-06  0.169E-03    2.05      11.8  T
   8    -42.6158679 -0.175471E-07  0.515E-04    2.05      38.8  T
   9    -42.6158679 -0.395684E-08  0.212E-04    2.05      94.4  T
     SCC iter.                  ...        0 min,  0.013 sec
     gradient                   ...        0 min,  0.011 sec
 * total energy  :   -72.1267543 Eh     change       -0.7149729E-03 Eh
   gradient norm :     0.0639353 Eh/α   predicted    -0.6644962E-03 (  -7.06%)
   displ. norm   :     0.5753006 α      lambda       -0.1187870E-02
   maximum displ.:     0.4721714 α      in ANC's #1, #12, #8, ...

........................................................................
.............................. CYCLE   37 ..............................
........................................................................

 iter      E             dE          RMSdq      gap      omega  full diag
   1    -42.6138964 -0.426139E+02  0.230E-01    2.03       0.0  T
   2    -42.6138446  0.518707E-04  0.138E-01    2.00       1.0  T
   3    -42.6128316  0.101295E-02  0.166E-01    2.03       1.0  T
   4    -42.6139515 -0.111991E-02  0.119E-02    2.01       1.7  T
   5    -42.6139493  0.219914E-05  0.121E-02    2.02       1.7  T
   6    -42.6139560 -0.667332E-05  0.286E-03    2.02       7.0  T
   7    -42.6139560 -0.461363E-07  0.159E-03    2.02      12.6  T
   8    -42.6139561 -0.217589E-07  0.564E-04    2.02      35.5  T
   9    -42.6139561 -0.667983E-08  0.165E-04    2.02     121.0  T
     SCC iter.                  ...        0 min,  0.013 sec
     gradient                   ...        0 min,  0.011 sec
 * total energy  :   -72.1277398 Eh     change       -0.9854794E-03 Eh
   gradient norm :     0.0819758 Eh/α   predicted    -0.7905074E-03 ( -19.78%)
   displ. norm   :     0.6190176 α      lambda       -0.1240202E-02
   maximum displ.:     0.4948832 α      in ANC's #1, #12, #8, ...

........................................................................
.............................. CYCLE   38 ..............................
........................................................................

 iter      E             dE          RMSdq      gap      omega  full diag
   1    -42.6126209 -0.426126E+02  0.264E-01    1.96       0.0  T
   2    -42.6121721  0.448769E-03  0.197E-01    1.87       1.0  T
   3    -42.6117511  0.420948E-03  0.186E-01    1.98       1.0  T
   4    -42.6130413 -0.129016E-02  0.258E-02    1.94       1.0  T
   5    -42.6130383  0.301995E-05  0.110E-02    1.94       1.8  T
   6    -42.6130429 -0.465920E-05  0.473E-03    1.94       4.2  T
   7    -42.6130434 -0.500770E-06  0.206E-03    1.94       9.7  T
   8    -42.6130435 -0.365123E-07  0.849E-04    1.94      23.6  T
   9    -42.6130435 -0.728873E-08  0.313E-04    1.94      63.9  T
     SCC iter.                  ...        0 min,  0.013 sec
     gradient                   ...        0 min,  0.011 sec
 * total energy  :   -72.1285808 Eh     change       -0.8410228E-03 Eh
   gradient norm :     0.0318162 Eh/α   predicted    -0.8577095E-03 (   1.98%)
   displ. norm   :     0.4359488 α      lambda       -0.7166108E-03
   maximum displ.:     0.3612846 α      in ANC's #1, #12, #8, ...

........................................................................
.............................. CYCLE   39 ..............................
........................................................................

 iter      E             dE          RMSdq      gap      omega  full diag
   1    -42.6148400 -0.426148E+02  0.158E-01    1.86       0.0  T
   2    -42.6140381  0.801853E-03  0.186E-01    1.76       1.0  T
   3    -42.6152893 -0.125116E-02  0.695E-02    1.86       1.0  T
   4    -42.6153928 -0.103487E-03  0.272E-02    1.84       1.0  T
   5    -42.6153937 -0.950226E-06  0.565E-03    1.85       3.5  T
   6    -42.6153945 -0.782285E-06  0.312E-03    1.85       6.4  T
   7    -42.6153947 -0.191903E-06  0.163E-03    1.85      12.2  T
   8    -42.6153948 -0.580869E-07  0.756E-04    1.85      26.5  T
   9    -42.6153948 -0.984686E-08  0.233E-04    1.85      86.0  T
     SCC iter.                  ...        0 min,  0.013 sec
     gradient                   ...        0 min,  0.011 sec
 * total energy  :   -72.1290921 Eh     change       -0.5113454E-03 Eh
   gradient norm :     0.0333551 Eh/α   predicted    -0.4264135E-03 ( -16.61%)
   displ. norm   :     0.3589157 α      lambda       -0.5553650E-03
   maximum displ.:     0.2715448 α      in ANC's #1, #12, #9, ...

........................................................................
.............................. CYCLE   40 ..............................
........................................................................

 iter      E             dE          RMSdq      gap      omega  full diag
   1    -42.6190712 -0.426191E+02  0.143E-01    1.78       0.0  T
   2    -42.6186681  0.403137E-03  0.136E-01    1.72       1.0  T
   3    -42.6190785 -0.410389E-03  0.876E-02    1.79       1.0  T
   4    -42.6193143 -0.235797E-03  0.193E-02    1.77       1.0  T
   5    -42.6193110  0.322385E-05  0.965E-03    1.77       2.1  T
   6    -42.6193151 -0.403995E-05  0.280E-03    1.77       7.1  T
   7    -42.6193152 -0.150143E-06  0.149E-03    1.77      13.5  T
   8    -42.6193153 -0.300546E-07  0.587E-04    1.77      34.1  T
   9    -42.6193153 -0.355037E-08  0.221E-04    1.77      90.3  T
     SCC iter.                  ...        0 min,  0.013 sec
     gradient                   ...        0 min,  0.011 sec
 * total energy  :   -72.1294907 Eh     change       -0.3986035E-03 Eh
   gradient norm :     0.0136731 Eh/α   predicted    -0.3134577E-03 ( -21.36%)
   displ. norm   :     0.4839181 α      lambda       -0.4977349E-03
   maximum displ.:     0.3778190 α      in ANC's #1, #12, #9, ...

........................................................................
.............................. CYCLE   41 ..............................
........................................................................

 iter      E             dE          RMSdq      gap      omega  full diag
   1    -42.6199115 -0.426199E+02  0.168E-01    1.69       0.0  T
   2    -42.6196313  0.280170E-03  0.138E-01    1.65       1.0  T
   3    -42.6195907  0.405947E-04  0.122E-01    1.71       1.0  T
   4    -42.6201255 -0.534825E-03  0.246E-02    1.68       1.0  T
   5    -42.6201017  0.238296E-04  0.274E-02    1.69       1.0  T
   6    -42.6201358 -0.340350E-04  0.234E-03    1.69       8.5  T
   7    -42.6201358 -0.465590E-07  0.137E-03    1.68      14.6  T
   8    -42.6201358 -0.120233E-07  0.686E-04    1.68      29.2  T
   9    -42.6201358 -0.671149E-08  0.190E-04    1.68     105.2  T
     SCC iter.                  ...        0 min,  0.013 sec
     gradient                   ...        0 min,  0.011 sec
 * total energy  :   -72.1298056 Eh     change       -0.3148339E-03 Eh
   gradient norm :     0.0812012 Eh/α   predicted    -0.3071496E-03 (  -2.44%)
   displ. norm   :     0.2475727 α      lambda       -0.4120567E-03
   maximum displ.:     0.1539945 α      in ANC's #1, #12, #5, ...

........................................................................
.............................. CYCLE   42 ..............................
........................................................................

 iter      E             dE          RMSdq      gap      omega  full diag
   1    -42.6240560 -0.426241E+02  0.948E-02    1.65       0.0  T
   2    -42.6240383  0.177549E-04  0.593E-02    1.64       1.0  T
   3    -42.6237805  0.257822E-03  0.850E-02    1.67       1.0  T
   4    -42.6240778 -0.297375E-03  0.961E-03    1.65       2.1  T
   5    -42.6240751  0.274575E-05  0.108E-02    1.65       1.8  T
   6    -42.6240798 -0.472000E-05  0.214E-03    1.65       9.3  T
   7    -42.6240799 -0.432906E-07  0.127E-03    1.65      15.7  T
   8    -42.6240799 -0.272051E-07  0.450E-04    1.65      44.4  T
   9    -42.6240799 -0.186208E-08  0.182E-04    1.65     109.6  T
     SCC iter.                  ...        0 min,  0.013 sec
     gradient                   ...        0 min,  0.011 sec
 * total energy  :   -72.1300246 Eh     change       -0.2190326E-03 Eh
   gradient norm :     0.0333419 Eh/α   predicted    -0.2186582E-03 (  -0.17%)
   displ. norm   :     0.3671910 α      lambda       -0.2989066E-03
   maximum displ.:     0.2577333 α      in ANC's #1, #12, #5, ...
 * RMSD in coord.:     1.2279895 α      energy gain  -0.4952893E-01 Eh

generating ANC from model Hessian ...
Using Lindh-Hessian (1995)
 Shifting diagonal of input Hessian by    9.3808270461971169E-003
 Lowest  eigenvalues of input Hessian
    0.000000    0.000000    0.000000    0.000000    0.000000    0.000000
    0.010000    0.011606    0.012364    0.013576    0.017487    0.018512
    0.018672    0.020436    0.025013    0.027792    0.029525    0.031172
 Highest eigenvalues
    2.127740    2.208115    2.291452    2.423731   20.997957   25.073892


........................................................................
.............................. CYCLE   43 ..............................
........................................................................

 iter      E             dE          RMSdq      gap      omega  full diag
   1    -42.6213148 -0.426213E+02  0.133E-01    1.61       0.0  T
   2    -42.6212997  0.151382E-04  0.858E-02    1.60       1.0  T
   3    -42.6209065  0.393200E-03  0.106E-01    1.63       1.0  T
   4    -42.6213528 -0.446381E-03  0.217E-02    1.60       1.0  T
   5    -42.6213532 -0.363880E-06  0.196E-02    1.61       1.0  T
   6    -42.6213718 -0.185811E-04  0.256E-03    1.61       7.8  T
   7    -42.6213719 -0.102963E-06  0.129E-03    1.61      15.5  T
   8    -42.6213719 -0.162135E-07  0.733E-04    1.61      27.3  T
   9    -42.6213719 -0.482367E-08  0.203E-04    1.61      98.6  T
     SCC iter.                  ...        0 min,  0.013 sec
     gradient                   ...        0 min,  0.011 sec
 * total energy  :   -72.1301883 Eh     change       -0.1637181E-03 Eh
   gradient norm :     0.0136376 Eh/α   predicted     0.0000000E+00 (-100.00%)
   displ. norm   :     0.0868946 α      lambda       -0.3069641E-03
   maximum displ.:     0.0528433 α      in ANC's #5, #6, #7, ...

........................................................................
.............................. CYCLE   44 ..............................
........................................................................

 iter      E             dE          RMSdq      gap      omega  full diag
   1    -42.6229588 -0.426230E+02  0.614E-02    1.63       0.0  T
   2    -42.6229312  0.275761E-04  0.436E-02    1.62       1.0  T
   3    -42.6228602  0.710291E-04  0.520E-02    1.64       1.0  T
   4    -42.6229650 -0.104748E-03  0.112E-02    1.63       1.8  T
   5    -42.6229695 -0.455544E-05  0.337E-03    1.63       5.9  T
   6    -42.6229699 -0.333961E-06  0.157E-03    1.63      12.7  T
   7    -42.6229699 -0.410085E-07  0.623E-04    1.63      32.1  T
   8    -42.6229699 -0.248388E-08  0.159E-04    1.63     125.5  T
     SCC iter.                  ...        0 min,  0.011 sec
     gradient                   ...        0 min,  0.011 sec
 * total energy  :   -72.1300017 Eh     change        0.1865916E-03 Eh
   gradient norm :     0.2322241 Eh/α   predicted    -0.1554091E-03 (-183.29%)
   displ. norm   :     0.4909323 α      lambda       -0.2458166E-02
   maximum displ.:     0.2952486 α      in ANC's #5, #6, #7, ...

........................................................................
.............................. CYCLE   45 ..............................
........................................................................

 iter      E             dE          RMSdq      gap      omega  full diag
   1    -42.6253255 -0.426253E+02  0.343E-01    1.78       0.0  T
   2    -42.6245966  0.728880E-03  0.244E-01    1.67       1.0  T
   3    -42.6225173  0.207932E-02  0.274E-01    1.80       1.0  T
   4    -42.6255075 -0.299020E-02  0.633E-02    1.73       1.0  T
   5    -42.6256501 -0.142614E-03  0.194E-02    1.73       1.0  T
   6    -42.6256593 -0.916875E-05  0.972E-03    1.73       2.1  T
   7    -42.6256607 -0.140406E-05  0.415E-03    1.74       4.8  T
   8    -42.6256609 -0.191736E-06  0.104E-03    1.74      19.2  T
   9    -42.6256609 -0.669353E-08  0.457E-04    1.74      43.8  T
  10    -42.6256609 -0.232668E-08  0.221E-04    1.74      90.6  T
     SCC iter.                  ...        0 min,  0.014 sec
     gradient                   ...        0 min,  0.011 sec
 * total energy  :   -72.1293293 Eh     change        0.6724758E-03 Eh
   gradient norm :     0.1831308 Eh/α   predicted    -0.1525216E-02 (-326.81%)
   displ. norm   :     0.2921241 α      lambda       -0.2497567E-02
   maximum displ.:     0.1821834 α      in ANC's #5, #7, #6, ...

........................................................................
.............................. CYCLE   46 ..............................
........................................................................

 iter      E             dE          RMSdq      gap      omega  full diag
   1    -42.6252028 -0.426252E+02  0.222E-01    1.64       0.0  T
   2    -42.6246638  0.538939E-03  0.174E-01    1.72       1.0  T
   3    -42.6242748  0.389049E-03  0.173E-01    1.61       1.0  T
   4    -42.6253370 -0.106223E-02  0.419E-02    1.68       1.0  T
   5    -42.6254013 -0.643092E-04  0.116E-02    1.68       1.7  T
   6    -42.6254044 -0.314317E-05  0.631E-03    1.68       3.2  T
   7    -42.6254049 -0.425539E-06  0.229E-03    1.68       8.7  T
   8    -42.6254049 -0.699726E-07  0.573E-04    1.68      34.9  T
   9    -42.6254049 -0.149779E-08  0.294E-04    1.68      67.9  T
     SCC iter.                  ...        0 min,  0.013 sec
     gradient                   ...        0 min,  0.011 sec
 * total energy  :   -72.1306155 Eh     change       -0.1286229E-02 Eh
   gradient norm :     0.0373290 Eh/α   predicted    -0.1355457E-02 (   5.38%)
   displ. norm   :     0.0523974 α      lambda       -0.2034910E-03
   maximum displ.:     0.0319298 α      in ANC's #2, #12, #4, ...

........................................................................
.............................. CYCLE   47 ..............................
........................................................................

 iter      E             dE          RMSdq      gap      omega  full diag
   1    -42.6230485 -0.426230E+02  0.434E-02    1.67       0.0  T
   2    -42.6230390  0.950783E-05  0.295E-02    1.68       1.0  T
   3    -42.6229870  0.519258E-04  0.393E-02    1.65       1.0  T
   4    -42.6230538 -0.667897E-04  0.365E-03    1.67       5.5  T
   5    -42.6230537  0.762572E-07  0.283E-03    1.67       7.1  T
   6    -42.6230540 -0.273943E-06  0.959E-04    1.67      20.9  T
   7    -42.6230540 -0.227919E-07  0.440E-04    1.67      45.5  T
     SCC iter.                  ...        0 min,  0.010 sec
     gradient                   ...        0 min,  0.012 sec
 * total energy  :   -72.1306978 Eh     change       -0.8228125E-04 Eh
   gradient norm :     0.0332960 Eh/α   predicted    -0.1020613E-03 (  24.04%)
   displ. norm   :     0.0486167 α      lambda       -0.7587307E-04
   maximum displ.:     0.0280878 α      in ANC's #2, #7, #4, ...

........................................................................
.............................. CYCLE   48 ..............................
........................................................................

 iter      E             dE          RMSdq      gap      omega  full diag
   1    -42.6231099 -0.426231E+02  0.202E-02    1.68       0.0  T
   2    -42.6231030  0.688216E-05  0.187E-02    1.69       1.1  T
   3    -42.6231080 -0.505714E-05  0.134E-02    1.68       1.5  T
   4    -42.6231136 -0.553557E-05  0.265E-03    1.68       7.5  T
   5    -42.6231135  0.947167E-07  0.185E-03    1.68      10.8  T
   6    -42.6231136 -0.121443E-06  0.512E-04    1.68      39.1  T
   7    -42.6231136 -0.463368E-08  0.264E-04    1.68      75.7  T
     SCC iter.                  ...        0 min,  0.010 sec
     gradient                   ...        0 min,  0.011 sec
 * total energy  :   -72.1307659 Eh     change       -0.6813150E-04 Eh
   gradient norm :     0.0123856 Eh/α   predicted    -0.3819557E-04 ( -43.94%)
   displ. norm   :     0.3160361 α      lambda       -0.3847792E-03
   maximum displ.:     0.1884040 α      in ANC's #2, #7, #4, ...

........................................................................
.............................. CYCLE   49 ..............................
........................................................................

 iter      E             dE          RMSdq      gap      omega  full diag
   1    -42.6217892 -0.426218E+02  0.121E-01    1.72       0.0  T
   2    -42.6215952  0.194076E-03  0.108E-01    1.77       1.0  T
   3    -42.6217156 -0.120485E-03  0.800E-02    1.71       1.0  T
   4    -42.6219258 -0.210136E-03  0.173E-02    1.74       1.2  T
   5    -42.6219244  0.140111E-05  0.816E-03    1.73       2.5  T
   6    -42.6219263 -0.191154E-05  0.301E-03    1.73       6.6  T
   7    -42.6219264 -0.142456E-06  0.177E-03    1.74      11.3  T
   8    -42.6219265 -0.687261E-07  0.659E-04    1.73      30.3  T
   9    -42.6219265 -0.101307E-07  0.192E-04    1.74     104.2  T
     SCC iter.                  ...        0 min,  0.013 sec
     gradient                   ...        0 min,  0.011 sec
 * total energy  :   -72.1309992 Eh     change       -0.2332734E-03 Eh
   gradient norm :     0.0800842 Eh/α   predicted    -0.2114133E-03 (  -9.37%)
   displ. norm   :     0.1290104 α      lambda       -0.1375278E-03
   maximum displ.:     0.0806023 α      in ANC's #2, #7, #5, ...

........................................................................
.............................. CYCLE   50 ..............................
........................................................................

[...]
H            3.73870116913663        0.91368403495648        1.33970852283088
H            3.96722557590844        1.12553678396155       -0.40607501183933
H            2.72939022696849        2.07450500431176        0.44388176918608
H            3.38821262862579       -1.71741158653492        0.20975158909456
H           -1.73022848089707        3.10904101200222       -1.21163645320082
H           -3.10528293574817        2.13805792099350       -0.61330056761519
H           -2.01946664085806        2.98824684192078        0.52419848457822
H           -1.88874798009005       -2.81866237460831        1.43854048419885
H           -2.60648367117766       -2.28810282364445       -0.97120700710789
H           -2.05039613238306       -3.96920659424374        0.92664400752749
H            1.12549025153189       -2.85437144750411       -0.28623159121095

 Bond Distances (Angstroems)
 ---------------------------
C1-N2=1.4374         C1-H15=1.0904        C1-H16=1.0910        C1-H17=1.0896        N2-C1=1.4374         N2-C3=1.3425         
N2-C6=1.3776         C3-N2=1.3425         C3-N4=1.3536         C3-H18=1.0703        N4-C3=1.3536         N4-C5=1.3619         
N4-H25=1.0101        C5-N4=1.3619         C5-C6=1.3870         C5-N13=1.3753        C6-N2=1.3776         C6-C5=1.3870         
C6-C7=1.4378         C7-C6=1.4378         C7-O8=1.2158         C7-N9=1.4246         O8-C7=1.2158         N9-C7=1.4246         
N9-C10=1.4514        N9-C11=1.3207        C10-N9=1.4514        C10-H19=1.0906       C10-H20=1.0860       C10-H21=1.0908       
C11-N9=1.3207        C11-N13=1.3808       O12-H22=0.4064       O12-H24=0.9736       N13-C5=1.3753        N13-C11=1.3808       
N13-C14=1.3461       C14-N13=1.3461       C14-H23=1.0861       H15-C1=1.0904        H16-C1=1.0910        H17-C1=1.0896        
H18-C3=1.0703        H19-C10=1.0906       H20-C10=1.0860       H21-C10=1.0908       H22-O12=0.4064       H23-C14=1.0861       
H24-O12=0.9736       H25-N4=1.0101        
 C  H  Rav=1.0869 sigma=0.0065  Rmin=1.0703  Rmax=1.0910     8
 C  C  Rav=1.4124 sigma=0.0254  Rmin=1.3870  Rmax=1.4378     2
 N  H  Rav=1.0101 sigma=0.0000  Rmin=1.0101  Rmax=1.0101     1
 N  C  Rav=1.3793 sigma=0.0399  Rmin=1.3207  Rmax=1.4514    11
 O  H  Rav=0.6900 sigma=0.2836  Rmin=0.4064  Rmax=0.9736     2
 O  C  Rav=1.2158 sigma=0.0000  Rmin=1.2158  Rmax=1.2158     1

 selected bond angles (degree)
 --------------------
H15-C1-N2=110.39               H16-C1-N2=110.47               H16-C1-H15=108.77              H17-C1-N2=108.62               
H17-C1-H15=109.48              H17-C1-H16=109.09              C3-N2-C1=126.88                C6-N2-C1=125.35                
C6-N2-C3=107.77                N4-C3-N2=109.69                H18-C3-N2=125.16               H18-C3-N4=125.15               
C5-N4-C3=107.82                H25-N4-C3=127.12               H25-N4-C5=125.05               C6-C5-N4=107.67                
N13-C5-N4=129.33               N13-C5-C6=123.00               C5-C6-N2=107.05                C7-C6-N2=131.35                
C7-C6-C5=121.61                O8-C7-C6=127.82                N9-C7-C6=110.52                N9-C7-O8=121.66                
C10-N9-C7=114.37               C11-N9-C7=127.77               C11-N9-C10=117.86              H19-C10-N9=109.51              
H20-C10-N9=109.04              H20-C10-H19=110.32             H21-C10-N9=109.62              H21-C10-H19=107.92             
H21-C10-H20=110.42             

 selected dihedral angles (degree)
 ---------------------------------
C3-N2-C1-H15=303.47           C3-N2-C1-H16= 63.81           C3-N2-C1-H17=183.42           C6-N2-C1-H15=123.39           
C6-N2-C1-H16=243.73           C6-N2-C1-H17=  3.34           N4-C3-N2-C1=179.82            N4-C3-N2-C6=359.88            
H18-C3-N2-C1=359.94           H18-C3-N2-C6=180.01           C5-N4-C3-N2=  0.21            C5-N4-C3-H18=180.08           
H25-N4-C3-N2=178.84           H25-N4-C3-H18=358.72          C6-C5-N4-C3=359.78            C6-C5-N4-H25=181.11           
N13-C5-N4-C3=180.23           N13-C5-N4-H25=  1.56          C5-C6-N2-C1=180.04            C5-C6-N2-C3=  0.00            
C7-C6-N2-C1=  0.08            C7-C6-N2-C3=180.02            N2-C6-C5-N4=  0.15            N2-C6-C5-N13=179.73           
C7-C6-C5-N4=180.11            C7-C6-C5-N13=359.70           O8-C7-C6-N2=  0.13            O8-C7-C6-C5=180.17            
N9-C7-C6-N2=180.56            N9-C7-C6-C5=  0.60            C10-N9-C7-C6=179.94           C10-N9-C7-O8=  0.33           
C11-N9-C7-C6=  0.48           C11-N9-C7-O8=180.87           H19-C10-N9-C7= 59.16          H19-C10-N9-C11=238.68         
H20-C10-N9-C7=179.96          H20-C10-N9-C11=359.48         H21-C10-N9-C7=300.94          H21-C10-N9-C11=120.46         
           -------------------------------------------------
          |                Final Singlepoint                |
           -------------------------------------------------

          ...................................................
          :                      SETUP                      :
          :.................................................:
          :  # basis functions                  67          :
          :  # atomic orbitals                  67          :
          :  # shells                           39          :
          :  # electrons                        74          :
          :  max. iterations                   250          :
          :  Hamiltonian                  GFN2-xTB          :
          :  restarted?                      false          :
          :  GBSA solvation                  false          :
          :  PC potential                    false          :
          :  electronic temp.         7500.0000000     K    :
          :  accuracy                    1.0000000          :
          :  -> integral cutoff          0.2500000E+02      :
          :  -> integral neglect         0.1000000E-07      :
          :  -> SCF convergence          0.1000000E-05 Eh   :
          :  -> wf. convergence          0.1000000E-03 e    :
          :  Broyden damping             0.4000000          :
          ...................................................

 iter      E             dE          RMSdq      gap      omega  full diag
   1    -42.6262903 -0.426263E+02  0.697E-05    1.72       0.0  T
   2    -42.6262903  0.298499E-10  0.553E-05    1.72     361.8  T
   3    -42.6262903 -0.430092E-10  0.378E-05    1.72     528.7  T

   *** convergence criteria satisfied after 3 iterations ***

         #    Occupation            Energy/Eh            Energy/eV
      -------------------------------------------------------------
         1        2.0000           -0.8912516             -24.2522
       ...           ...                  ...                  ...
        31        1.9938           -0.6031671             -16.4130
        32        1.9926           -0.5987754             -16.2935
        33        1.9812           -0.5766038             -15.6902
        34        1.9686           -0.5642135             -15.3530
        35        1.9624           -0.5598251             -15.2336
        36        1.7150           -0.5085481             -13.8383
        37        1.6330           -0.5013716             -13.6430 (HOMO)
        38        0.4723           -0.4380371             -11.9196 (LUMO)
        39        0.1858           -0.4117925             -11.2054
        40        0.0926           -0.3940766             -10.7234
        41        0.0160           -0.3514254              -9.5628
        42        0.0005           -0.2703908              -7.3577
       ...           ...                  ...                  ...
        67                          5.4926967             149.4639
      -------------------------------------------------------------
                  HL-Gap            0.0633345 Eh            1.7234 eV
             Fermi-level           -0.4659182 Eh          -12.6783 eV

 SCC (total)                   0 d,  0 h,  0 min,  0.021 sec
 SCC setup                      ...        0 min,  0.000 sec (  0.870%)
 Dispersion                     ...        0 min,  0.000 sec (  0.871%)
 classical contributions        ...        0 min,  0.000 sec (  0.323%)
 integral evaluation            ...        0 min,  0.004 sec ( 20.809%)
 iterations                     ...        0 min,  0.005 sec ( 22.235%)
 molecular gradient             ...        0 min,  0.011 sec ( 54.251%)
 printout                       ...        0 min,  0.000 sec (  0.582%)

         :::::::::::::::::::::::::::::::::::::::::::::::::::::
         ::                     SUMMARY                     ::
         :::::::::::::::::::::::::::::::::::::::::::::::::::::
         :: total energy             -72.133344470626 Eh    ::
         :: gradient norm              0.003334885584 Eh/a0 ::
         :: HOMO-LUMO gap              1.723418670724 eV    ::
         ::.................................................::
         :: SCC energy               -42.626290278322 Eh    ::
         :: -> isotropic ES            0.116785804777 Eh    ::
         :: -> anisotropic ES         -0.006165521994 Eh    ::
         :: -> anisotropic XC          0.012048365661 Eh    ::
         :: -> dispersion             -0.022424296995 Eh    ::
         :: repulsion energy           2.394254620889 Eh    ::
         :: add. restraining         -31.901441640591 Eh    ::
         :: total charge               1.000000000000 e     ::
         :::::::::::::::::::::::::::::::::::::::::::::::::::::

           -------------------------------------------------
          |                Property Printout                |
           -------------------------------------------------

    * Orbital Energies and Occupations

         #    Occupation            Energy/Eh            Energy/eV
      -------------------------------------------------------------
         1        2.0000           -0.8912516             -24.2522
       ...           ...                  ...                  ...
        25        1.9992           -0.6518498             -17.7377
        26        1.9989           -0.6442645             -17.5313
        27        1.9987           -0.6394785             -17.4011
        28        1.9984           -0.6355938             -17.2954
        29        1.9972           -0.6221190             -16.9287
        30        1.9956           -0.6110185             -16.6267
        31        1.9938           -0.6031671             -16.4130
        32        1.9926           -0.5987754             -16.2935
        33        1.9812           -0.5766038             -15.6902
        34        1.9686           -0.5642135             -15.3530
        35        1.9624           -0.5598251             -15.2336
        36        1.7150           -0.5085481             -13.8383
        37        1.6330           -0.5013716             -13.6430 (HOMO)
        38        0.4723           -0.4380371             -11.9196 (LUMO)
        39        0.1858           -0.4117925             -11.2054
        40        0.0926           -0.3940766             -10.7234
        41        0.0160           -0.3514254              -9.5628
        42        0.0005           -0.2703908              -7.3577
        43        0.0000           -0.1815591              -4.9405
        44        0.0000           -0.1654793              -4.5029
        45        0.0000           -0.1198867              -3.2623
        46        0.0000           -0.0900571              -2.4506
        47                         -0.0388930              -1.0583
        48                         -0.0157244              -0.4279
       ...                                ...                  ...
        67                          5.4926967             149.4639
      -------------------------------------------------------------
                  HL-Gap            0.0633345 Eh            1.7234 eV
             Fermi-level           -0.4659182 Eh          -12.6783 eV

     #   Z          covCN         q      C6AA      α(0)
     1   6 C        3.690    -0.086    22.341     6.764
     2   7 N        2.828     0.058    20.235     6.681
     3   6 C        3.044     0.043    27.000     8.522
     4   7 N        2.783    -0.054    22.290     7.012
     5   6 C        3.077     0.096    25.797     8.327
     6   6 C        3.098    -0.008    28.105     8.688
     7   6 C        2.770     0.248    22.839     7.827
     8   8 O        0.857    -0.369    21.080     6.156
     9   7 N        2.745     0.004    21.187     6.836
    10   6 C        3.717    -0.064    21.859     6.679
    11   6 C        1.897    -0.076    33.193     9.305
    12   8 O        1.700    -0.518    23.264     6.512
    13   7 N        2.740     0.066    20.099     6.658
    14   6 C        1.968    -0.118    34.350     9.465
    15   1 H        0.924     0.099     1.790     2.092
    16   1 H        0.924     0.101     1.772     2.082
    17   1 H        0.925     0.129     1.543     1.943
    18   1 H        0.927     0.115     1.655     2.012
    19   1 H        0.924     0.102     1.770     2.081
    20   1 H        0.925     0.101     1.778     2.085
    21   1 H        0.924     0.100     1.781     2.087
    22   1 H        0.810     0.357     0.571     1.186
    23   1 H        0.925     0.094     1.844     2.123
    24   1 H        0.804     0.347     0.596     1.213
    25   1 H        0.860     0.235     0.943     1.521

 Mol. C6AA /au·bohr⁶  :       6718.957024
 Mol. C8AA /au·bohr⁸  :     156299.072356
 Mol. α(0) /au        :        125.857669


Wiberg/Mayer (AO) data.
largest (>0.10) Wiberg bond orders for each atom

 ---------------------------------------------------------------------------
     #   Z sym  total        # sym  WBO       # sym  WBO       # sym  WBO
 ---------------------------------------------------------------------------
     1   6 C    3.917 --     2 N    0.991    17 H    0.962    15 H    0.961
                            16 H    0.958
     2   7 N    3.595 --     3 C    1.327     6 C    1.148     1 C    0.991
     3   6 C    3.742 --     2 N    1.327     4 N    1.270    18 H    0.956
     4   7 N    3.546 --     3 C    1.270     5 C    1.192    25 H    0.916
     5   6 C    3.834 --     6 C    1.352     4 N    1.192    13 N    1.108
     6   6 C    3.868 --     5 C    1.352     2 N    1.148     7 C    1.101
     7   6 C    3.838 --     8 O    1.645     6 C    1.101     9 N    1.012
     8   8 O    1.897 --     7 C    1.645     9 N    0.102
     9   7 N    3.594 --    11 C    1.421     7 C    1.012    10 C    0.981
                             8 O    0.102
    10   6 C    3.910 --     9 N    0.981    20 H    0.972    21 H    0.957
                            19 H    0.957
    11   6 C    2.719 --     9 N    1.421    13 N    1.133
    12   8 O    2.021 --    24 H    0.878    22 H    0.871    14 C    0.240
    13   7 N    3.646 --    14 C    1.261    11 C    1.133     5 C    1.108
    14   6 C    2.519 --    13 N    1.261    23 H    0.939    12 O    0.240
    15   1 H    0.982 --     1 C    0.961
    16   1 H    0.981 --     1 C    0.958
    17   1 H    0.981 --     1 C    0.962
    18   1 H    0.986 --     3 C    0.956
    19   1 H    0.979 --    10 C    0.957
    20   1 H    0.985 --    10 C    0.972
    21   1 H    0.979 --    10 C    0.957
    22   1 H    0.871 --    12 O    0.871
    23   1 H    0.956 --    14 C    0.939
    24   1 H    0.879 --    12 O    0.878
    25   1 H    0.944 --     4 N    0.916
 ---------------------------------------------------------------------------

Topologies differ in total number of bonds
Writing topology from bond orders to xtbtopo.mol

molecular dipole:
                 x           y           z       tot (Debye)
 q only:        0.907      -2.391       0.288
   full:        1.019      -2.512       0.524       7.018
molecular quadrupole (traceless):
                xx          xy          yy          xz          yz          zz
 q only:       15.427      -0.191       6.507       0.723      -4.745     -21.934
  q+dip:       16.412      -0.631       3.610      -1.412      -7.207     -20.022
   full:       15.138      -0.455       2.634      -1.987      -7.379     -17.772

           -------------------------------------------------
          |                Geometry Summary                 |
           -------------------------------------------------

      molecular mass/u    :      195.1988581
   center of mass at/Å    :        0.0953714      -0.0851328      -0.0612969
  moments of inertia/u·Å² :        0.5889846E+03   0.7250671E+03   0.1228373E+04
rotational constants/cm⁻¹ :        0.2862152E-01   0.2324976E-01   0.1372354E-01

 * 23 selected distances

     #   Z          #   Z                                           value/Å
     1   6 C        2   7 N                                       1.4373766
     2   7 N        3   6 C                                       1.3424852
     3   6 C        4   7 N                                       1.3536438
     4   7 N        5   6 C                                       1.3619494
     2   7 N        6   6 C                                       1.3775830
     5   6 C        6   6 C                                       1.3869543
     6   6 C        7   6 C                                       1.4378230
     7   6 C        8   8 O                                       1.2158021
     7   6 C        9   7 N                                       1.4246011
     9   7 N       10   6 C                                       1.4514349 (max)
     9   7 N       11   6 C                                       1.3206741
     5   6 C       13   7 N                                       1.3753380
    13   7 N       14   6 C                                       1.3460650
     1   6 C       15   1 H                                       1.0904166
     1   6 C       16   1 H                                       1.0910307
     1   6 C       17   1 H                                       1.0896207
     3   6 C       18   1 H                                       1.0702976
    10   6 C       19   1 H                                       1.0906126
    10   6 C       20   1 H                                       1.0860445
    10   6 C       21   1 H                                       1.0907522
    12   8 O       22   1 H                                       0.4064363 (min)
    12   8 O       24   1 H                                       0.9736296
     4   7 N       25   1 H                                       1.0101357

 * 6 distinct bonds (by element types)

   Z      Z             #   av. dist./Å        max./Å        min./Å
   1 H    6 C           7     1.0869678     1.0910307     1.0702976
   6 C    6 C           2     1.4123887     1.4378230     1.3869543
   1 H    7 N           1     1.0101357     1.0101357     1.0101357
   6 C    7 N          10     1.3791151     1.4514349     1.3206741
   1 H    8 O           2     0.6900329     0.9736296     0.4064363
   6 C    8 O           1     1.2158021     1.2158021     1.2158021


optimized geometry written to: xtbopt.xyz


           -------------------------------------------------
          | TOTAL ENERGY              -72.133344470626 Eh   |
          | GRADIENT NORM               0.003334885584 Eh/α |
          | HOMO-LUMO GAP               1.723418670724 eV   |
           -------------------------------------------------

------------------------------------------------------------------------
 * finished run on 2024/06/05 at 19:58:43.823     
------------------------------------------------------------------------
 total:
 * wall-time:     0 d,  0 h,  0 min,  2.204 sec
 *  cpu-time:     0 d,  0 h,  0 min,  2.183 sec
 * ratio c/w:     0.990 speedup
 SCF:
 * wall-time:     0 d,  0 h,  0 min,  0.035 sec
 *  cpu-time:     0 d,  0 h,  0 min,  0.035 sec
 * ratio c/w:     1.000 speedup
 ANC optimizer:
 * wall-time:     0 d,  0 h,  0 min,  2.141 sec
 *  cpu-time:     0 d,  0 h,  0 min,  2.136 sec
 * ratio c/w:     0.997 speedup

