25
 energy: -42.140896338327 gnorm: 0.083388625225 xtb: 6.6.1 (8d0f1dd)
C            3.06309041605068        1.26958806201096       -0.26253927181306
N            2.26717617513568        0.08103732715272       -0.11404686909067
C            2.75187597912965       -1.15751412621801        0.06983540206199
N            1.73064889085880       -2.05360942117023        0.18358394529765
C            0.58019956170315       -1.36056570437811        0.06476265507705
C            0.88985177314070        0.00686618986559       -0.12442203403734
C           -0.07540368997960        1.11570523719857       -0.25427241200118
O            0.23069176588339        2.28552573173735       -0.38921283208016
N           -1.44120298322519        0.71427131860849       -0.17556069763500
C           -2.61274112331168        1.82753877486143        0.18582172095269
C           -1.71805618157764       -0.58573989580167       -0.00053632277864
O           -3.34227095724368        2.76001339670592       -0.60708203261735
N           -0.79615420140318       -1.58283621516639        0.09940835779433
C           -1.29324083252987       -2.93685424966646        0.26437229795616
H            3.66649001131562        1.43485886503410        0.63111249532622
H            3.72788284661223        1.17609080119092       -1.12192848965281
H            2.39850846330269        2.12008006356050       -0.41001211819708
H            3.78991985539546       -1.41259541635957        0.11704705360599
H           -2.07253060370781        2.36943897957011        0.96839538529252
H           -2.77040844746413        3.47218052985988       -0.92548177722835
H           -3.36966521919097        1.15909726493644        0.59482904909629
H           -0.92567588914986       -3.36584782085221        1.19817637884334
H           -0.97578098100540       -3.56333690675763       -0.57110310084444
H           -2.37978172907004       -2.90737992115934        0.29088064015047
H            1.83700861438870       -3.04777432318831        0.31914419436661
25
 energy: -42.164532278214 gnorm: 0.054460768167 xtb: 6.6.1 (8d0f1dd)
C            3.06508029505162        1.27817952278516       -0.26415612455613
N            2.25572489340719        0.10050051728114       -0.11830505265965
C            2.72346993401410       -1.14279672741579        0.06531924102820
N            1.68296145833436       -2.01722413520401        0.17461345182096
C            0.53140669237587       -1.30357309547066        0.05315246134864
C            0.87739268939886        0.04395635793708       -0.13208578286784
C           -0.07878290391387        1.13989961484271       -0.25771916100079
O            0.21843387679491        2.31185512896815       -0.38807972076498
N           -1.43096991211544        0.71236039866122       -0.16357419824399
C           -2.56301508321853        1.77489204252684        0.23893987967103
C           -1.74103779897412       -0.57607081037791        0.00030865431232
O           -3.21276453193429        2.60880024882896       -0.68036358463039
N           -0.82673232596236       -1.56398624536919        0.09276143629024
C           -1.30019205246450       -2.92780105280737        0.26175387066134
H            3.66796963298885        1.43666754921703        0.63098187587714
H            3.72919638398736        1.17798517097804       -1.12323492098757
H            2.40498623787111        2.13164636608603       -0.41158991606855
H            3.76008748629757       -1.41334787680697        0.11625187639022
H           -2.06507028935700        2.36645633547978        1.01244032373552
H           -2.68417548040153        3.39066588888654       -0.92189480530427
H           -3.34905569528584        1.12397279246638        0.62018589657413
H           -0.92560022186430       -3.35400459912305        1.19476092081196
H           -0.97671483593226       -3.55378566073144       -0.57224800062366
H           -2.38638390343318       -2.91248661630371        0.29090617309858
H            1.78421696839315       -3.01452257375991        0.31204682393280
25
 energy: -42.179157610225 gnorm: 0.022454509749 xtb: 6.6.1 (8d0f1dd)
C            3.06400399841394        1.28918126962837       -0.26642184173411
N            2.24059428699759        0.12127563665557       -0.12476030964798
C            2.68517178401580       -1.12980303561911        0.05987225853133
N            1.62424895446522       -1.97880732185106        0.16301743969993
C            0.47542274929635       -1.23721607549267        0.03796080518022
C            0.86158304220347        0.08870146559465       -0.14056509695824
C           -0.08959011894687        1.17207945959294       -0.24519016115680
O            0.18640803263192        2.34873698033679       -0.38148749543701
N           -1.42585385698517        0.71133830176873       -0.11947119183882
C           -2.50081492386133        1.70751270947207        0.25219869083610
C           -1.76823980255922       -0.56913995344102        0.02245473512003
O           -3.07036878968774        2.46867180127084       -0.73277932617877
N           -0.85678296995969       -1.54864273587219        0.08590592866570
C           -1.30141768649457       -2.92095037055627        0.25743644457601
H            3.66704142317721        1.43968925615057        0.63002881040187
H            3.72899791925936        1.18244626532905       -1.12393880686889
H            2.41329637743534        2.14977015228551       -0.41414684256377
H            3.71781143633622       -1.41823239734864        0.11687131353389
H           -2.03515473601008        2.33011851529670        1.02282212104965
H           -2.58346786532764        3.29671583330439       -0.92208854510307
H           -3.31257445204174        1.09228494761375        0.64516067462969
H           -0.91824211293670       -3.33927439089581        1.19054479265376
H           -0.97239406176473       -3.54289810544338       -0.57697105377334
H           -2.38791264378290       -2.91816066191011        0.29070372355051
H            1.71866553018368       -2.97715900429463        0.30401455067739
25
 energy: -42.183689171198 gnorm: 0.023473539205 xtb: 6.6.1 (8d0f1dd)
C            3.05671875985858        1.30045914757508       -0.26897366408475
N            2.22715467541653        0.13494913106909       -0.13240120660728
C            2.65783400457513       -1.12216284565673        0.04723480846212
N            1.59160423437604       -1.96146361775164        0.14515023172749
C            0.45007759696157       -1.20867042336525        0.02508414056951
C            0.84908148711592        0.11293239575341       -0.14556995272182
C           -0.10718875436985        1.19028332641895       -0.22126956156487
O            0.13889823656676        2.37467883096297       -0.35547330649342
N           -1.43120467087496        0.70463294382163       -0.04218162587074
C           -2.47437008711932        1.68935612500874        0.28388970802332
C           -1.78580563365715       -0.57683435771776        0.06482671902854
O           -2.95719551399142        2.39977384033695       -0.80748392195159
N           -0.86677939492136       -1.55161570336458        0.08317060330191
C           -1.29418571048025       -2.92607723914722        0.24854353271696
H            3.66157526751077        1.44361200637471        0.62771624351239
H            3.72252476574775        1.19297148916773       -1.12591176458544
H            2.41557105498309        2.16893815398743       -0.41419712227966
H            3.68556774783742       -1.41983567474351        0.10607771071566
H           -2.04777691967689        2.34027458910750        1.06399373194871
H           -2.45111722040849        3.19417959367032       -0.99740645619353
H           -3.31062178355463        1.10420281695600        0.68624553497577
H           -0.90276484220274       -3.33990116709891        1.17948339862243
H           -0.96298845699248       -3.53750505431661       -0.59168081061671
H           -2.38123000663482       -2.93061891957382        0.28723278281873
H            1.67705267799254       -2.95832084589938        0.28507186439162
25
 energy: -42.185303902042 gnorm: 0.021746837265 xtb: 6.6.1 (8d0f1dd)
C            3.04912624772866        1.30716790858571       -0.27260721227625
N            2.21975881079534        0.14087026733616       -0.13778401952705
C            2.64496234685691       -1.11925168318984        0.03388260076162
N            1.57811264752101       -1.95542935912460        0.13105638421261
C            0.44198251840070       -1.20026367139993        0.02153064060187
C            0.84295544669270        0.12241581855137       -0.14228494423544
C           -0.11719283320212        1.19549309112528       -0.18934297782254
O            0.10304318473242        2.38359170445566       -0.33254036531063
N           -1.43056051738693        0.69098007732865        0.01887668270484
C           -2.47009523581582        1.68831447128224        0.27867168701556
C           -1.79325732424614       -0.58796788447396        0.11107822590591
O           -2.89399918151432        2.37913766255185       -0.84982092550204
N           -0.86711521442564       -1.55927844477157        0.09288467468526
C           -1.28307005565409       -2.93617976341541        0.24667871001172
H            3.65602493658506        1.44703752924688        0.62332143588062
H            3.71347986443355        1.20176819849060       -1.13111271076763
H            2.41093436848420        2.17838161569139       -0.41416151697225
H            3.66984351833377       -1.42171826111573        0.08992315332275
H           -2.07275935105124        2.35979681405381        1.06056649715355
H           -2.35741156841817        3.16156264884557       -1.01469889711145
H           -3.33125382219265        1.13215609353002        0.67662897135757
H           -0.88714161217126       -3.35270189622284        1.17402495072991
H           -0.94976555634309       -3.53736319030305       -0.59977159882343
H           -2.37032076338983       -2.94842044433943        0.28812013451257
H            1.65415065930474       -2.95186076114372        0.26805203733774
25
 energy: -42.186797706971 gnorm: 0.015690447567 xtb: 6.6.1 (8d0f1dd)
C            3.03625588368365        1.31504981000129       -0.27522088795557
N            2.21041288795324        0.14622552631219       -0.14078438917155
C            2.63466006588732       -1.11622448974693        0.01554425911199
N            1.56852392479791       -1.95129340671820        0.11461970653808
C            0.43686911809740       -1.19660822608852        0.02368073789018
C            0.83425599260321        0.12968051203727       -0.13380429465454
C           -0.13112228551298        1.19673865394248       -0.15590337145685
O            0.06045256935557        2.38742210001404       -0.30715771710908
N           -1.43374591188507        0.67744811838721        0.07930899140880
C           -2.47782983103049        1.69762523107371        0.27784432506642
C           -1.80168772910020       -0.59647801584296        0.16806929379979
O           -2.82460173928167        2.37580775530648       -0.87500932528487
N           -0.86698780399560       -1.56442647397120        0.11357323736102
C           -1.26808871293331       -2.94680040340691        0.24651403889421
H            3.64600808618492        1.45361779985727        0.61900732226362
H            3.69780269483091        1.21414108568837       -1.13668138682395
H            2.39710505340875        2.18604669226494       -0.41178129579669
H            3.65778644310953       -1.42301244547727        0.06238885978990
H           -2.10025891606503        2.38161836125118        1.05351742366827
H           -2.22759352764924        3.11040765193151       -1.04904780639804
H           -3.36613648798588        1.16927439333123        0.65147328316240
H           -0.87005076947646       -3.37354848189882        1.16832615179205
H           -0.92755765842992       -3.53279131085093       -0.60814450086489
H           -2.35530659956689       -2.97292153903495        0.28647131550512
H            1.63126676705813       -2.94876035678735        0.24436764710963
25
 energy: -42.187789018335 gnorm: 0.014068906356 xtb: 6.6.1 (8d0f1dd)
C            3.02291102886599        1.32151581678572       -0.27911929671226
N            2.20235100025746        0.14956250103709       -0.14218836720656
C            2.62934371235716       -1.11466967189906       -0.00735964466409
N            1.56353978098880       -1.94932399749379        0.09948834643690
C            0.43262672182262       -1.19460260860923        0.03523997088504
C            0.82581626468115        0.13518769102786       -0.11561331962244
C           -0.14173876052212        1.19839079661630       -0.11887403946382
O            0.03161475811307        2.38906260665419       -0.28281498751558
N           -1.43773465844037        0.67484266907608        0.13073354390643
C           -2.48877798163563        1.71045098843722        0.27773941728123
C           -1.80753482417650       -0.59533631951231        0.22270543876041
O           -2.75909801846735        2.36720219626059       -0.90329030704355
N           -0.86918686484718       -1.56232191745183        0.14484504652099
C           -1.25727974131235       -2.95112680587665        0.25112214104541
H            3.63825068861401        1.46009595912135        0.61132726761846
H            3.67862967548476        1.22678910415613       -1.14584325668975
H            2.37887586436520        2.19003102722736       -0.40780044278178
H            3.65241659489522       -1.42503004442217        0.02084109014783
H           -2.14964534953704        2.39718259994928        1.06900923579964
H           -2.09150733950199        3.05652869448994       -1.07594779073159
H           -3.39813715978760        1.18752040060892        0.59194927130030
H           -0.85958536539955       -3.39355739355669        1.16638572691468
H           -0.90584751976008       -3.51827976271027       -0.61289670932057
H           -2.34407945893500       -2.99244585298322        0.28521568199425
H            1.61420846593516       -2.94943013535767        0.21631760098595
25
 energy: -42.188200853982 gnorm: 0.015815911787 xtb: 6.6.1 (8d0f1dd)
C            3.01355325153032        1.32658301233815       -0.27862522101500
N            2.19735081739761        0.15202138738023       -0.13982148686858
C            2.62840337538776       -1.11279391421517       -0.02442769510209
N            1.56309113921786       -1.94822612255123        0.09156437187567
C            0.42916337718890       -1.19336244180180        0.05100830789113
C            0.82040073526435        0.13748468644669       -0.09531097554655
C           -0.14618352187415        1.19859825395186       -0.09806118120127
O            0.02643299516966        2.38836060004021       -0.26983162426664
N           -1.44188558618576        0.67865625261504        0.14888133248400
C           -2.49693496172308        1.71439618786566        0.27527731902179
C           -1.80961150061195       -0.59102071945565        0.24835731839479
O           -2.72297474708341        2.36692916813133       -0.89953891239749
N           -0.87333017748239       -1.55736364703455        0.17084193246563
C           -1.25618911331560       -2.94968178318278        0.25651080298902
H            3.63408951198897        1.46513678195769        0.60832568687022
H            3.66381494108580        1.23749888402208       -1.14991835135080
H            2.36398178511538        2.19226414863998       -0.39978659014689
H            3.65254642213343       -1.42414724794519       -0.01677896730979
H           -2.17163169894367        2.39513889400775        1.07244099930098
H           -2.00721092700580        3.00240321680241       -1.10512179164151
H           -3.41756504302136        1.19661222447093        0.55568877516417
H           -0.86153423751366       -3.40455800281946        1.16751587402729
H           -0.89450690470752       -3.50173966062590       -0.61357890345119
H           -2.34237936855102       -2.99996392167219        0.28189755086143
H            1.60954095059719       -2.95098769579093        0.19366304679727
25
 energy: -42.188504904732 gnorm: 0.011842934412 xtb: 6.6.1 (8d0f1dd)
C            3.00894463394311        1.32926508706236       -0.27897658835367
N            2.19657237167743        0.15224397137249       -0.13866329139560
C            2.63161397716451       -1.11279420208317       -0.04063753932987
N            1.56806793672565       -1.95037235405326        0.08410169908810
C            0.42990061401372       -1.19528338182042        0.06614037524169
C            0.81979596851277        0.13584897946490       -0.07349083663155
C           -0.14552049107863        1.19761376337110       -0.07500934314259
O            0.03585124801390        2.38673057406836       -0.25212114434729
N           -1.44415414519097        0.68387319069161        0.17052111914602
C           -2.50629802264766        1.71820401724724        0.27056149211183
C           -1.80752164995154       -0.58879884865231        0.26881389399694
O           -2.69838545145816        2.36337238430571       -0.92604886788572
N           -0.87439631748281       -1.55579671523563        0.19196426122600
C           -1.25895590049377       -2.94877380608932        0.26240898031890
H            3.63601045677801        1.46628087570505        0.60377293966809
H            3.65245464259828        1.24574492294058       -1.15566901893751
H            2.35478906935325        2.19312201505376       -0.39108236067104
H            3.65692767419705       -1.42281907097748       -0.05316032268328
H           -2.20677371429104        2.39793227499778        1.08474787761884
H           -1.96387974179304        2.97946681626867       -1.12069448000780
H           -3.43727280910684        1.20087821981609        0.52283809323417
H           -0.86569994844139       -3.41400405379774        1.16891227915469
H           -0.89486012772354       -3.48957797847335       -0.61355238079374
H           -2.34464703134531       -2.99923020114004        0.28391938193922
H            1.61786827208491       -2.95488793846781        0.17157539928081
25
 energy: -42.188688349203 gnorm: 0.007411650527 xtb: 6.6.1 (8d0f1dd)
C            3.00666108442407        1.33114423079296       -0.27602455988826
N            2.19704376950081        0.15200650178413       -0.13567279462741
C            2.63489234112841       -1.11270847083763       -0.05150926002534
N            1.57439577416615       -1.95362375219778        0.08133425999566
C            0.43227613121709       -1.19911432607893        0.08085961357055
C            0.82155109168184        0.13138852395563       -0.05269816234690
C           -0.14189400040404        1.19482286853615       -0.06510093399030
O            0.05680835410084        2.38367735729013       -0.24111993214951
N           -1.44607042521602        0.68818210510107        0.16591322377432
C           -2.50513157659231        1.71837404314317        0.25566166171989
C           -1.80351918153482       -0.58844574604521        0.26785039083682
O           -2.69643561109786        2.36160198820709       -0.93740936554176
N           -0.87473423801473       -1.55583553393247        0.20521575193745
C           -1.26699917454116       -2.94633291526572        0.27041602905582
H            3.63898353106750        1.46616592480575        0.60325603038342
H            3.64459952578895        1.25201971206350       -1.15681874588411
H            2.34967035660072        2.19408027018950       -0.38045066136666
H            3.66085345994060       -1.41936876502467       -0.08223706976589
H           -2.22200010750157        2.39786396387089        1.07984413512728
H           -1.97110039405119        2.97866311646422       -1.10877930171224
H           -3.43005480654364        1.19215724969091        0.49639817241897
H           -0.87579503636127       -3.41645478751850        1.17457381225108
H           -0.90447282983618       -3.48266220916131       -0.60729462480787
H           -2.35254963420301       -2.99058832086475        0.28946056285563
H            1.63345311033871       -2.95877448739294        0.15550338602499
