25
 energy: 5.546835213925 xtb: 6.6.1 (8d0f1dd)
C            3.23992752774304        1.26154314289966        0.05846928463398
N            2.38210909014376        0.10307799838721       -0.04173525863907
C            2.79118006713386       -1.26898851440876       -0.04597842751502
N            1.53574798572049       -1.99363837010070        0.00573752617932
C            0.47338185895856       -1.13145539885674       -0.00573530222073
C            0.97578590164531        0.15240875994974       -0.01207989268692
C            0.13154034494751        1.29402994028983        0.00786995397152
O            0.50348825781234        2.46737738347626        0.03937417047030
N           -1.27651201648321        0.99207119115769       -0.00211247158974
C           -2.20702942607689        2.12113484395451       -0.01006673554550
C           -1.81995646499639       -0.25081209761766       -0.03816555669853
O           -3.02496771969949       -0.42725498468290       -0.07901030320049
N           -0.90637742891855       -1.34284354172870       -0.02077578307740
C           -1.51760693093254       -2.64773944423831       -0.06903949706472
H            3.41926294775504        1.52062116511287        1.12173364284417
H            4.25555758920747        0.92686675425110       -0.34569406383463
H            2.72860769652309        2.11018489629723       -0.39337140639084
H            3.78934186932474       -1.65363009412999       -0.05019945711724
H           -1.62476530036330        3.04268496869550        0.01741371316336
H           -2.82051221129517        2.11405197345820       -0.91380574427734
H           -2.87102628777602        2.06808455276445        0.85572485103647
H           -1.26456719779199       -3.22443790655820        0.81818937283535
H           -1.21581920232875       -3.18118356498010       -0.97075119155857
H           -2.60201152718300       -2.50015717241998       -0.08691374915410
H            1.31755330280501       -2.98116876321955        0.05279542447991
