25
 energy: 0.000000000000 xtb: 6.6.1 (8d0f1dd)
C            3.23720132972391        1.16630909158653        0.08434468864950
N            2.29877796055224        0.07527476373246        0.03981602671198
C            2.58028186251803       -1.21425391179017        0.03006175752192
N            1.43813944744728       -1.93419254010258        0.00098261751768
C            0.39035684826767       -1.05887462812143       -0.00790371763344
C            0.93510047688824        0.21347817468824        0.01709077332874
C            0.09450143016486        1.40504290868848       -0.00410946993748
O            0.49712746915594        2.54126690785742       -0.00342325656480
N           -1.25076628431515        1.06271869620815       -0.03085477937476
C           -2.21907191394203        2.15522079838987       -0.05001256521996
C           -1.81739470187490       -0.20012724136556       -0.04692818139228
O           -2.99983858926755       -0.37846413507442       -0.07008877579474
N           -0.92618577614240       -1.30210203518959       -0.03682761236648
C           -1.46982251276835       -2.64643077634382       -0.06029819901142
H            3.71247229913541        1.21471443890471        1.06488839270555
H            4.00791460421487        1.03430799217987       -0.67357688121503
H            2.69909982127087        2.09770098766290       -0.09130154035862
H            3.56654087521359       -1.63682977417947        0.04233139674524
H           -1.67107945562430        3.09322822573871       -0.02552706696334
H           -2.82428927394145        2.09428605349656       -0.95318074103337
H           -2.87644002486466        2.07745706351925        0.81450059976605
H           -1.17061985538665       -3.19584861009707        0.83242224714061
H           -1.14560246782873       -3.17511580834413       -0.95688266944647
H           -2.55549768731684       -2.55659960601237       -0.07459039105944
H            1.38130842369251       -2.94313824728853       -0.01389874052104
25
 energy: -5.646710766879 xtb: 6.6.1 (8d0f1dd)
C            3.23767086537608        1.17465421947306        0.08793267991961
N            2.30189814998043        0.10102013358749        0.03701445360358
C            2.60918579722703       -1.24039568954668        0.03320217204398
N            1.43853356791621       -1.96031740357789       -0.00112021156249
C            0.40617020071895       -1.08192323323660       -0.00869829933578
C            0.91563238075395        0.21341379075827        0.01595031846971
C            0.11285768681199        1.37972027439268       -0.00494277387972
O            0.49213712877791        2.55621593148577       -0.00466096145295
N           -1.27160149764902        1.05203496587026       -0.03159723003540
C           -2.22277428799162        2.15287418328090       -0.05037000591540
C           -1.81721949959963       -0.19434904799989       -0.04718050796822
O           -3.01644468297786       -0.38145093433788       -0.07019110671401
N           -0.93881089784141       -1.30217356894428       -0.03684561874669
C           -1.47870827585633       -2.63953285893293       -0.05930350363351
H            3.71762973172841        1.22044162801598        1.06994106796536
H            4.00652295028877        1.03653015107459       -0.67439470312286
H            2.69894237386573        2.10424483687857       -0.08875297040337
H            3.58898644185987       -1.64525118119588        0.05047481607220
H           -1.66685367414651        3.08896286060954       -0.02733130064536
H           -2.82891935895691        2.09752493519712       -0.95413675378255
H           -2.87981971686416        2.08149362977831        0.81583582475119
H           -1.17420469168608       -3.18880863745337        0.83409088277766
H           -1.14968783494483       -3.16999390342365       -0.95545783153112
H           -2.56331096231064       -2.54916737992072       -0.07393020599793
H            1.46111175806945       -2.97520372123085       -0.02730440038399
25
 energy: -4.112867022143 xtb: 6.6.1 (8d0f1dd)
C            3.23427848073488        1.17700861093755        0.08951003076508
N            2.29979786970424        0.10127149877286        0.03828803335515
C            2.61788005453801       -1.24000081149714        0.03700685986923
N            1.45706808980043       -1.98035249473491       -0.00263001861012
C            0.41271501398993       -1.10191146237310       -0.00982143425457
C            0.91182687785011        0.20133181198993        0.01629423719085
C            0.11024000345111        1.37156939938916       -0.00419021903480
O            0.49098966365683        2.54916882329526       -0.00394535610663
N           -1.27593629240187        1.05219086438560       -0.03160644360556
C           -2.22523456101580        2.15616627968536       -0.05154973182382
C           -1.82011918441322       -0.19382177938691       -0.04689597282153
O           -3.01984805860817       -0.38102562170276       -0.07012567673024
N           -0.93989435267815       -1.30360266866791       -0.03694237208207
C           -1.48616001048137       -2.63755102890663       -0.05844318777918
H            3.71517588960697        1.21930603750252        1.07182018547126
H            4.00097524974708        1.03674030955614       -0.67504306835480
H            2.69687301879620        2.10811655428771       -0.08572656251461
H            3.60243227647873       -1.63328149811602        0.05899038821818
H           -1.66735289821970        3.09144205472491       -0.02894649459991
H           -2.83148785994831        2.10350431167920       -0.95537928419552
H           -2.88370056529067        2.08838274664985        0.81395634723548
H           -1.17983671344719       -3.18642005815264        0.83402835169362
H           -1.15939417300816       -3.16683311347757       -0.95543330511942
H           -2.56995488279912       -2.54387652785516       -0.07076643991459
H            1.55076472618364       -3.00182941890060       -0.03768171785849
25
 energy: -1.565354382391 xtb: 6.6.1 (8d0f1dd)
C            3.23061035214691        1.17872558879363        0.09053226781064
N            2.29436792090649        0.10285673290146        0.03942682246707
C            2.61892358046769       -1.23786158301401        0.04229750947455
N            1.47302569558267       -2.00202713637663       -0.00474758633648
C            0.41737570306983       -1.12222915030784       -0.01189950393834
C            0.90554741027366        0.18922959604768        0.01639386593037
C            0.10588787296695        1.36278330717000       -0.00350667221511
O            0.48570840819581        2.54137299834598       -0.00273144946349
N           -1.28132813819168        1.05297568987275       -0.03200328632925
C           -2.22874754999360        2.15881342206146       -0.05232570233750
C           -1.82330029317463       -0.19152251906356       -0.04769091205737
O           -3.02374884214534       -0.37729544416808       -0.07091457587138
N           -0.94179112612968       -1.30360736044007       -0.03879822051491
C           -1.49381448483306       -2.63406887772882       -0.05742135296297
H            3.71353235553242        1.21875031652155        1.07159240699718
H            3.99643197383047        1.03671564354169       -0.67491256091634
H            2.69961049873785        2.11379793757084       -0.08241751879496
H            3.60773634371219       -1.62088821004565        0.06670592299720
H           -1.67079670645784        3.09471992421010       -0.02973312099925
H           -2.83448274735917        2.10533948654501       -0.95654991468289
H           -2.88745715144274        2.08997689887577        0.81308214214867
H           -1.18630949732199       -3.18001727917424        0.83605322543215
H           -1.16661882472760       -3.16294205817143       -0.95398178996742
H           -2.57672485469577       -2.53743727126112       -0.06953044171676
H            1.64210996385024       -3.02479261700954       -0.04938440097370
25
 energy: 1.819678893179 xtb: 6.6.1 (8d0f1dd)
C            3.22447366190440        1.18020386731325        0.09202695468243
N            2.28847638519456        0.10185747596521        0.04031342498992
C            2.61561540663212       -1.23730692291980        0.05583008710410
N            1.48754525733442       -2.02412997326934       -0.00722717342087
C            0.42188457562126       -1.14249984414280       -0.01670491061708
C            0.89976651210663        0.17587470659964        0.01505165297248
C            0.10297472120947        1.35231008105287       -0.00389938316325
O            0.48699948635701        2.53003725584193       -0.00279189737391
N           -1.28547652983379        1.05385492034039       -0.03247661915496
C           -2.23004244271271        2.16264287434261       -0.05307335914307
C           -1.82553443245783       -0.18945504842692       -0.04788270863313
O           -3.02666404315675       -0.37307059732115       -0.07043069728971
N           -0.94258894683114       -1.30387489572797       -0.04386499923187
C           -1.50122387341348       -2.63108499440122       -0.05727946632563
H            3.71016652791593        1.21958158348078        1.07125463897839
H            3.99037350173481        1.03929759094726       -0.67399942259483
H            2.69647559559070        2.11767908651010       -0.07800455171043
H            3.60342723129244       -1.61598622376304        0.06655974355207
H           -1.67022688839334        3.09785042040435       -0.03147965845977
H           -2.83660914735992        2.11002294085522       -0.95690371487093
H           -2.88881463851746        2.09567880127710        0.81257914057068
H           -1.19130497695657       -3.17659332858113        0.83542916809258
H           -1.17718296541099       -3.15944027995853       -0.95466103334146
H           -2.58320022175763       -2.53070160282446       -0.06574220127856
H            1.73104449990666       -3.04458515020789       -0.05518103491185
25
 energy: 6.031909593609 xtb: 6.6.1 (8d0f1dd)
C            3.22007000793307        1.17962385538028        0.09304580375489
N            2.28608784101454        0.09800603817664        0.04389235727280
C            2.61374901416213       -1.23746445787113        0.06976559263723
N            1.50461713884541       -2.04466582297606       -0.01224401815519
C            0.42730089548051       -1.16065685549386       -0.02580982888434
C            0.89596258119555        0.16368304600029        0.01327685200347
C            0.10069651717014        1.34383959652912       -0.00243504972148
O            0.48962182940688        2.52014038695736        0.00005515171167
N           -1.28979551080608        1.05509254969285       -0.03263025589996
C           -2.23273896178786        2.16622372030269       -0.05407762930606
C           -1.82742745785721       -0.18771732164080       -0.04834105203470
O           -3.02882082539371       -0.37263171892876       -0.06898626501433
N           -0.94299164169504       -1.30396333472375       -0.05031457001765
C           -1.50820051043963       -2.62780641243871       -0.05701562541900
H            3.71015907438437        1.21881089423489        1.06924652456560
H            3.98450772929252        1.04036762132836       -0.67502477174003
H            2.69266954565996        2.11846489028181       -0.07300318017842
H            3.60107184351643       -1.60988253748964        0.06623735021224
H           -1.67255837432263        3.10139283049373       -0.03302696184272
H           -2.83958814512580        2.11477662776941       -0.95789338974019
H           -2.89282649116146        2.10161466900003        0.81089742920632
H           -1.19804608497977       -3.17208614158312        0.83616251260616
H           -1.18668636531254       -3.15728189865499       -0.95394042589044
H           -2.58923586653265       -2.52310478845289       -0.06349109555273
H            1.81955084244366       -3.06154336197933       -0.06353590392950
25
 energy: 10.909006748729 xtb: 6.6.1 (8d0f1dd)
C            3.21600972799134        1.17768093492257        0.09303131073753
N            2.28283152057754        0.09547280375715        0.05293987280564
C            2.60782790151799       -1.23762019140576        0.08837457555796
N            1.51062924043537       -2.05898644208513       -0.00110804544682
C            0.42549973906001       -1.16504578351288       -0.03776190793688
C            0.89306040420340        0.15802221520578        0.01135051697476
C            0.09808662520558        1.34302456331409        0.00046343787497
O            0.49370278727346        2.51714056585587       -0.00201354480539
N           -1.29322944336949        1.05866417359195       -0.03292547849450
C           -2.23548948012280        2.17089898059896       -0.05389594226167
C           -1.83021244963018       -0.18387868899660       -0.04887006224404
O           -3.03167748587353       -0.36919783983508       -0.06555147705191
N           -0.94680484956240       -1.30092307464481       -0.05709718759194
C           -1.51544189390672       -2.62360475713182       -0.05788213524346
H            3.71035726347622        1.21807181763462        1.06619526105480
H            3.97745582369984        1.03801809153601       -0.67827552725800
H            2.68457769036885        2.11349959519468       -0.07388153625342
H            3.59584209160751       -1.60281516751058        0.06911883966039
H           -1.67487143489078        3.10566419752106       -0.03277254173520
H           -2.84328210094452        2.12148204344680       -0.95718393814453
H           -2.89577730332652        2.10772001267348        0.81099711226546
H           -1.20605402245386       -3.16765160184077        0.83569590724392
H           -1.19419606357148       -3.15378153893683       -0.95389730845915
H           -2.59614163048651       -2.51776862969281       -0.06412212395826
H            1.89012234565334       -3.08602219489061       -0.07922844345574
25
 energy: 24.733403888194 xtb: 6.6.1 (8d0f1dd)
C            3.21320002993077        1.17327087844242        0.09186145916722
N            2.26515352701761        0.08991605560751        0.05913861834447
C            2.52972721327121       -1.22071247381089        0.08330525647181
N            1.44314807206111       -1.97429765354033        0.04181287034558
C            0.39507554284713       -1.09905046278309       -0.03406961079150
C            0.89411995453078        0.19790545125662        0.00434170753759
C            0.07667518318824        1.38136330640619       -0.00255321623438
O            0.48321981128225        2.53090897235197       -0.00674666598597
N           -1.28491456270399        1.07810468121868       -0.03306239549322
C           -2.24009709425902        2.18041725794870       -0.05426249335118
C           -1.83562400257746       -0.18876535248944       -0.04861805468570
O           -3.03664191630653       -0.34664678362853       -0.05874440533682
N           -0.96073235528825       -1.27660865258926       -0.05896474317993
C           -1.51972485007431       -2.61279618679001       -0.05704785764989
H            3.70619655590734        1.21008509772721        1.06279556638897
H            3.97147579642748        1.03269587622087       -0.67904397986168
H            2.68585013108548        2.11121699774296       -0.07710063023293
H            3.53164820631199       -1.59691667599966        0.08223437800270
H           -1.68434798167697        3.11688364361655       -0.03413371201267
H           -2.84692403463552        2.12563503530412       -0.95720727060596
H           -2.89979475728667        2.11326797050389        0.81009449928694
H           -1.20524255857546       -3.15448004598506        0.83394789765308
H           -1.19471796686566       -3.14417685914748       -0.94902790464842
H           -2.60130307623759       -2.51470410229898       -0.06284533007291
H            2.20925076932354       -3.45137199852315       -0.13061271297457
25
 energy: 23.004625080682 xtb: 6.6.1 (8d0f1dd)
C            3.21186686267899        1.16954220246355        0.08893865915103
N            2.26037244609901        0.08714109024726        0.06387716891797
C            2.51612050701899       -1.22432697799540        0.09191529244736
N            1.43167767425245       -1.98016254190882        0.05430658955464
C            0.38931316272347       -1.09560095834004       -0.03883805910856
C            0.89040013837954        0.20230599550586        0.00147263609930
C            0.07185119844934        1.38703494421291       -0.00229328022952
O            0.47765802120357        2.53688689777590       -0.01129657289141
N           -1.28922870401881        1.08272914117362       -0.03297311348661
C           -2.24333470079068        2.18522654251171       -0.05531621566881
C           -1.84079186790958       -0.18444756325023       -0.04697698542682
O           -3.04190422012904       -0.34080251845632       -0.05382818830130
N           -0.96668238880604       -1.27115236985659       -0.05911797178807
C           -1.52560403328432       -2.60833563986498       -0.05679695374519
H            3.70795492149456        1.20751937592008        1.05811868949746
H            3.96914439933626        1.02839790287550       -0.68294930455428
H            2.68584744698978        2.10856312433183       -0.08001751157780
H            3.51753966662374       -1.59658369371582        0.08244710244114
H           -1.68530605708037        3.12004590537839       -0.03491766325745
H           -2.84899423615780        2.13116346481523       -0.95902896297326
H           -2.90363459421513        2.11941575253279        0.80859605773189
H           -1.21127500413668       -3.15200341594630        0.83323337159791
H           -1.20479839755589       -3.14086258397863       -0.94984930984733
H           -2.60653022737843       -2.50820190620918       -0.06001779529582
H            2.29509311900360       -3.49343737661255       -0.14486196116776
25
 energy: 21.910995551800 xtb: 6.6.1 (8d0f1dd)
C            3.20913129136315        1.16475854916808        0.08809650054210
N            2.25571352714677        0.08302987219440        0.06722305257528
C            2.50348100966126       -1.22895231455977        0.09923111400744
N            1.41922919760955       -1.98476721128847        0.06349318568694
C            0.38287918575884       -1.09092262396411       -0.04450520358912
C            0.88715149635814        0.20662283953330       -0.00339270203482
C            0.06843010671739        1.39243790663767       -0.00293492634957
O            0.47400290667056        2.54201341034379       -0.01175052524421
N           -1.29203315723543        1.08865857711700       -0.03377975160152
C           -2.24711525233945        2.19135588199312       -0.05613968667675
C           -1.84533541362221       -0.17850539295794       -0.04570613660624
O           -3.04659662962059       -0.33291383723715       -0.04804253677980
N           -0.97281884409184       -1.26508123254372       -0.05968577762327
C           -1.53231216495176       -2.60309186893929       -0.05455348011524
H            3.70623798622991        1.20218431632213        1.05683860519534
H            3.96561957843000        1.02403345365620       -0.68472218561168
H            2.68281878216555        2.10397285202049       -0.08031264252735
H            3.50524882799820       -1.59711119306496        0.08674216138381
H           -1.69095080157022        3.12713394805176       -0.03542818705483
H           -2.85385140720938        2.13785884995958       -0.95917811894543
H           -2.90798816239856        2.12699425028760        0.80734347501696
H           -1.21992882820201       -3.14613411845447        0.83660878702613
H           -1.21314102909396       -3.13960972313932       -0.94613858823498
H           -2.61287876684797       -2.50178775054136       -0.05794572388294
H            2.38640845751855       -3.54430216352168       -0.16520406702240
25
 energy: 21.238721035558 xtb: 6.6.1 (8d0f1dd)
C            3.20836409324259        1.16000305697127        0.08559122858298
N            2.25060261575029        0.08172389469025        0.06798160766428
C            2.48877018451122       -1.23165719809432        0.10667700890374
N            1.40205370904621       -1.98385733217114        0.08008662512812
C            0.37351195642345       -1.08170541118025       -0.04599808813375
C            0.88326756002454        0.21424927128683       -0.00773144188470
C            0.06429763784640        1.39971538548710       -0.00201534095285
O            0.46723091604794        2.54991933897472       -0.00390378835286
N           -1.29458744111914        1.09416614566351       -0.03206113560389
C           -2.24970993420994        2.19589913309905       -0.05616524562341
C           -1.85122584605354       -0.17208705794442       -0.04435063571474
O           -3.05289695588564       -0.32309440360212       -0.04541508850615
N           -0.98064069337075       -1.25846119660721       -0.05777902750453
C           -1.53913625564146       -2.59757740393328       -0.05357634691951
H            3.70539409512494        1.19862396545422        1.05498509291589
H            3.96446202808066        1.01883074734688       -0.68778948848312
H            2.68182212847111        2.09815063098334       -0.08452494397031
H            3.48996522950773       -1.59972950218962        0.09114368520117
H           -1.69292597437773        3.13124731027105       -0.03432002097215
H           -2.85497584989957        2.14097398274217       -0.96029581488800
H           -2.91168696657468        2.13042059445981        0.80640183330918
H           -1.22662221706409       -3.14078446487021        0.83729933031107
H           -1.22099605586821       -3.13499321331797       -0.94530765820135
H           -2.61962621403690       -2.49766088408431       -0.05610103693969
H            2.47825828797166       -3.60313178828264       -0.18211811305383
25
 energy: 20.831811757556 xtb: 6.6.1 (8d0f1dd)
C            3.20686283827572        1.15675951504456        0.08412554793174
N            2.24459774542575        0.08266391593395        0.06475501178913
C            2.47478610873699       -1.23304638248875        0.11074414515597
N            1.38533879012732       -1.98011509957076        0.08402850026865
C            0.36528434526838       -1.07214875509962       -0.04893982400631
C            0.87860358568174        0.22184288328632       -0.01235853384296
C            0.06135019563892        1.40650540327481       -0.00116846809919
O            0.46245428491340        2.55687564768370        0.00122303731860
N           -1.29597381951567        1.09946074126132       -0.03069372306146
C           -2.25077547606430        2.20097540955040       -0.05563661238781
C           -1.85530444960530       -0.16679657005347       -0.04277778822884
O           -3.05694639339689       -0.31519055698247       -0.04306633188632
N           -0.98671310886407       -1.25331463830488       -0.05350723355103
C           -1.54409519154920       -2.59341621113633       -0.05158445731371
H            3.70373381694017        1.19506222813493        1.05477101519734
H            3.96221069794617        1.01468030152929       -0.68985455423903
H            2.68260573406528        2.09630546798385       -0.08558952855741
H            3.47479095765925       -1.60595588582157        0.10279261473459
H           -1.69531078849630        3.13676371309573       -0.03327519223327
H           -2.85622471980038        2.14635570046134       -0.96048204691957
H           -2.91536385095405        2.13571989780773        0.80489445846378
H           -1.22623799765885       -3.13684237960183        0.83757217020043
H           -1.22931628238825       -3.13343631687573       -0.94355920273666
H           -2.62434387403050       -2.49177970935560       -0.05343662966814
H            2.57276675374084       -3.66624236332336       -0.20129454451170
25
 energy: 20.484848233277 xtb: 6.6.1 (8d0f1dd)
C            3.20629939206835        1.15393154729586        0.08271217018567
N            2.23876729556844        0.08464726551142        0.05952767352062
C            2.46232366167051       -1.23341120591801        0.10836912850178
N            1.37073068449845       -1.97545382920918        0.07617202135202
C            0.35749697238280       -1.06266962206797       -0.04560600807433
C            0.87387878435979        0.23014499577085       -0.01514718939679
C            0.05891177901522        1.41423464819330       -0.00593704852464
O            0.45866298371574        2.56517072126960        0.00348978554459
N           -1.29707861525755        1.10503186262564       -0.03115838136693
C           -2.25174662461225        2.20606311243688       -0.05505598478898
C           -1.85965477511733       -0.16091209102194       -0.04225570708057
O           -3.06107757718709       -0.30733035808032       -0.05016722374238
N           -0.99277351187170       -1.24761414808914       -0.04440955664694
C           -1.54935559304495       -2.58841335471873       -0.05104343385941
H            3.70209785335064        1.19100954894061        1.05493742115329
H            3.96103464555954        1.01015567158261       -0.69180509601884
H            2.68703629282548        2.09665747765333       -0.08531634497366
H            3.45999839373524       -1.61375471826494        0.11048860815876
H           -1.69668378493424        3.14171179717900       -0.03253320512220
H           -2.85868738762382        2.15112091665604       -0.95942603913069
H           -2.91741187329644        2.14026699685316        0.80505044598886
H           -1.22208726566248       -3.13278593536317        0.83383675454862
H           -1.23821530138180       -3.12748617869107       -0.94553139716733
H           -2.62964612554405       -2.48683914148852       -0.05053415299391
H            2.67318611066644       -3.73917936381140       -0.21195596991455
25
 energy: 20.182847205689 xtb: 6.6.1 (8d0f1dd)
C            3.20577257400783        1.15152590852063        0.08311420039862
N            2.23348087961717        0.08698737164543        0.05461638760373
C            2.45001199266446       -1.23385938585917        0.10110670305830
N            1.35552378958292       -1.96911613307437        0.06332874631301
C            0.35003322825246       -1.05229172452041       -0.03615569493420
C            0.86957217079818        0.23899471770680       -0.01349479830424
C            0.05678692623617        1.42246322824117       -0.01100725164153
O            0.45524861302371        2.57402391123869        0.00362477239888
N           -1.29820455167417        1.11084755869519       -0.03178695387805
C           -2.25298585755166        2.21140703901187       -0.05558393434392
C           -1.86281982431905       -0.15568275724974       -0.04153672475176
O           -3.06433713863819       -0.29974730514503       -0.05499135515933
N           -0.99801781425446       -1.24201624114911       -0.03545493817405
C           -1.55047418799117       -2.58445973269972       -0.05105257670579
H            3.70092057798438        1.18560831823565        1.05559761934350
H            3.95922371748410        1.00600969107074       -0.69269561902325
H            2.69374881180757        2.09857156428679       -0.08339750949662
H            3.44479313176381       -1.62308172060448        0.11528691564660
H           -1.69835724556450        3.14706225802147       -0.03233614543593
H           -2.86097929061349        2.15659323042658       -0.95966281735023
H           -2.92022696296461        2.14520961982235        0.80367154745126
H           -1.21805826991855       -3.12863458522432        0.83202325104367
H           -1.23535239497926       -3.12177143362119       -0.94642694494223
H           -2.63160727909501       -2.48242494114155       -0.04947560332282
H            2.77209781631989       -3.81857972190108       -0.21612469181074
25
 energy: 20.015029574200 xtb: 6.6.1 (8d0f1dd)
C            3.20589710711777        1.14928811523042        0.08478683441282
N            2.22941531632124        0.08936311601549        0.04873122240921
C            2.43867027431295       -1.23429721458974        0.09086924252733
N            1.34047498653290       -1.96248202516865        0.05541574623603
C            0.34289268858450       -1.04132510135244       -0.02247594451660
C            0.86609814675348        0.24835151953152       -0.01056532277261
C            0.05492059403086        1.43116187431021       -0.01646900260851
O            0.45206288268685        2.58339755298049        0.00203650173431
N           -1.29925955471348        1.11691297301746       -0.03531835946650
C           -2.25536708199953        2.21582619804667       -0.05638085506837
C           -1.86455340084881       -0.15044460904772       -0.04403399097878
O           -3.06685636526600       -0.29196374948758       -0.06194470689115
N           -1.00270863175792       -1.23546978098102       -0.02900461622257
C           -1.55070407400183       -2.57879236635929       -0.05216073277183
H            3.69752106160628        1.18117834505375        1.05898715225179
H            3.96083876236830        1.00228098122704       -0.68884719434915
H            2.69972672524271        2.09943028533100       -0.08334284777645
H            3.43037556004930       -1.63277857395925        0.11099997113548
H           -1.70084016055774        3.15149120402367       -0.03340874574115
H           -2.86470888388837        2.15898870942936       -0.95924803360530
H           -2.92127820150235        2.14765300169412        0.80403174795683
H           -1.21289153146556       -3.12325928371164        0.82927684697898
H           -1.23151987392318       -3.11303617261158       -0.94837104643986
H           -2.63327298199017       -2.47718233428473       -0.04575880533937
H            2.86636729378716       -3.90331699282291       -0.20475636129534
25