25
 energy: -43.832183127130 gnorm: 0.110489918002 xtb: 6.6.1 (8d0f1dd)
C            3.24484208101000        1.17412006809238        0.08122959427582
N            2.30501053478624        0.09157576968267        0.03960550284863
C            2.59781592826106       -1.22243079958673        0.03177712132169
N            1.43274821665545       -1.93630230600222        0.01400839594799
C            0.38173466841738       -1.05689644145914        0.01608617791420
C            0.92272977011720        0.22053204730302        0.02533622184241
C            0.09676079427242        1.37860447061239        0.01268453534530
O            0.50908508469185        2.54812604883419        0.01949480332700
N           -1.28153560292974        1.03610311946499       -0.04739834656402
C           -2.21043560368133        2.15995738746425       -0.03096636187077
C           -1.89632635965365       -0.21656434616875       -0.17807147741936
O           -3.06642529560328       -0.37530177528743       -0.19137141210060
N           -0.97109952226979       -1.30418005414965       -0.04369782299961
C           -1.46535073672356       -2.65276888893105       -0.04034072123992
H            3.72467255944773        1.22251069914257        1.06135310373733
H            4.01674348426076        1.03652734398972       -0.68263425002933
H            2.70585835842483        2.10293927151027       -0.09687455251476
H            3.58388468313116       -1.64189323007211        0.03573313139869
H           -1.65804331348748        3.09467375419521       -0.00307680476772
H           -2.81379318610049        2.11872101242013       -0.92954632875857
H           -2.86542445070224        2.07797146510387        0.83254822853665
H           -1.12552043977256       -3.20707168888922        0.84525465229622
H           -1.17515809232378       -3.18250517502077       -0.93220179997418
H           -2.54802153537393       -2.56798828871859       -0.01238209300547
H            1.38447974824148       -2.93884607089752        0.00398765937493
25
 energy: -43.837027132355 gnorm: 0.039255095140 xtb: 6.6.1 (8d0f1dd)
C            3.24674006816179        1.17843594486469        0.08333755803384
N            2.30667990534203        0.10111942641869        0.03808291315324
C            2.59863672982374       -1.23558085904423        0.03257983735906
N            1.42023695845621       -1.93789710178660        0.00883024853107
C            0.38863738377524       -1.05547707139236        0.01083493735502
C            0.92040918792328        0.22639816464460        0.02449055322418
C            0.09962075201595        1.38070400703646        0.00632312599943
O            0.49015593573661        2.55625018399191        0.01327314191624
N           -1.27943571168603        1.03968005867042       -0.03914823569320
C           -2.21790971935585        2.15335673432461       -0.03991695896791
C           -1.86346787285414       -0.20894182958611       -0.11744292576934
O           -3.05256181157424       -0.38367706054952       -0.20126048798903
N           -0.95575360234319       -1.30199561273364       -0.03887190476150
C           -1.46792344531777       -2.64921495178402       -0.04552124878125
H            3.73081321731696        1.22755740263265        1.06311521268168
H            4.01451506164393        1.04210593923645       -0.68265146259509
H            2.70284831764314        2.10459769957682       -0.09298475634741
H            3.57721820443123       -1.66022155682463        0.04065410632965
H           -1.64422022421807        3.07659979926464       -0.00886487797133
H           -2.82995431596832        2.12142729061537       -0.93914794077122
H           -2.86757660709328        2.08317244354162        0.83230420419883
H           -1.12352702193569       -3.19860198030338        0.83699619134635
H           -1.17332167861214       -3.18583331934591       -0.94546510951322
H           -2.55411797473753       -2.57326914310255       -0.01166876536597
H            1.36249003652187       -2.94108121573347        0.00265980132040
25
 energy: -43.837241014215 gnorm: 0.018678595959 xtb: 6.6.1 (8d0f1dd)
C            3.24486769955706        1.17855054322343        0.07946180832286
N            2.30352786739317        0.10766751278434        0.03411346881230
C            2.60342242602737       -1.23641574985935        0.03287102031727
N            1.41935171685831       -1.93737523602835        0.01389241808587
C            0.38896482316707       -1.06079094734644        0.00094710310006
C            0.91503618339756        0.22278284792192        0.01939743957355
C            0.10229398484488        1.37332873542112        0.00434081051046
O            0.48929037526388        2.54816333914173        0.03405113118876
N           -1.28136403531634        1.03795744225365       -0.05771507428822
C           -2.21669192138403        2.15236588614496       -0.03040871960950
C           -1.84904205094843       -0.20286586525000       -0.15258024863173
O           -3.04834728580442       -0.38253159722638       -0.22833966517868
N           -0.95551438141678       -1.30022790399587       -0.05516602412331
C           -1.47459146037170       -2.64701190206319       -0.03146203300884
H            3.72477292474770        1.22597732322813        1.06178386896186
H            4.01544219842631        1.03546280144682       -0.68194429406082
H            2.70462587143165        2.10537730388002       -0.10187473153267
H            3.58395378570720       -1.64753112218602        0.03401109480123
H           -1.65215346163800        3.08306259447868        0.01918986226310
H           -2.82258203639125        2.13232256310254       -0.93316700493193
H           -2.87012195903154        2.06391037651295        0.83775206991199
H           -1.13582717393212       -3.18768086164941        0.85836677775379
H           -1.17224238313637       -3.19718508885533       -0.92505049344032
H           -2.56008257251028       -2.56664901026913       -0.01187098687422
H            1.37224263815481       -2.94105059217829        0.00993755899969
25
 energy: -43.837806338855 gnorm: 0.013886378519 xtb: 6.6.1 (8d0f1dd)
C            3.24407753839942        1.17586778717926        0.08284377869914
N            2.30027891975720        0.10850858084114        0.03779715468807
C            2.60295797416444       -1.23629872480030        0.03578678615002
N            1.41719929241618       -1.93604462731419        0.01532371008204
C            0.38489135435140       -1.06310907790238        0.00838540436080
C            0.91086613080167        0.22053278157185        0.02648315345812
C            0.10242939035321        1.37066512115132        0.00593194022955
O            0.49220715552630        2.54402890227878        0.01984425086367
N           -1.28694333976649        1.03718627318492       -0.05190104617730
C           -2.21416396949882        2.15707303997097       -0.03624472790121
C           -1.85454041174776       -0.20124926765538       -0.13926175200829
O           -3.05592453171665       -0.38140361122139       -0.18511645860058
N           -0.96177380799417       -1.29983409942612       -0.04741616340503
C           -1.47187351321528       -2.64972684399848       -0.03641265368382
H            3.72676004295246        1.22057081566449        1.06392466913328
H            4.01361169925865        1.03520394051488       -0.68048993424513
H            2.70606998561820        2.10460967210206       -0.09369646873303
H            3.58483587370444       -1.64127508722460        0.03253115895883
H           -1.65262562094263        3.09106857462634       -0.01073150084491
H           -2.81982330732888        2.11665653921046       -0.93628931060577
H           -2.86679418494174        2.08577786882666        0.83316936554660
H           -1.12245348859415       -3.20815184897565        0.83824476557045
H           -1.17281997027437       -3.17922448235826       -0.94290639051767
H           -2.55560980743634       -2.57190531400776       -0.01270390056966
H            1.37839236924942       -2.93991351960612        0.00344132647436
25
 energy: -43.838070049139 gnorm: 0.006455617615 xtb: 6.6.1 (8d0f1dd)
C            3.24695847280083        1.17568689132564        0.08127150488245
N            2.30378632521369        0.10502055271876        0.03713247415786
C            2.60054670931239       -1.23898912110906        0.03713393967324
N            1.41533364541512       -1.93572633283120        0.01269724617766
C            0.38527949624135       -1.05947694207211        0.01057291971353
C            0.91499971965914        0.22381930317010        0.02655342782113
C            0.10341407400797        1.37637688258654        0.00813449489769
O            0.49115653870390        2.55146490014167        0.01519789843724
N           -1.28666126429535        1.03711162372543       -0.04855469046454
C           -2.21682087735316        2.15372968411483       -0.03544124587109
C           -1.85848667439869       -0.20361869640362       -0.13772650001607
O           -3.05567804048452       -0.38406786845429       -0.20019929705191
N           -0.96149131177474       -1.29920338408044       -0.04627429573270
C           -1.46927147754624       -2.64893650213126       -0.03967079531691
H            3.73134771480705        1.22730807410790        1.06116998110293
H            4.01606673393142        1.04083969610199       -0.68395843187060
H            2.70567246865563        2.10309066326815       -0.09528395716050
H            3.57973340981609       -1.65350303465610        0.04136233599158
H           -1.64710129089942        3.08079483887273       -0.00156615086541
H           -2.82588561989994        2.12319591612802       -0.93474264577125
H           -2.86799797754307        2.07751147640606        0.83412199841314
H           -1.12363424767104       -3.19677667141386        0.84216915662173
H           -1.17108810466815       -3.18618253026795       -0.94021850372132
H           -2.55275672156362       -2.57013619192404       -0.01410846242382
H            1.37181007262908       -2.93971983469137        0.00076475529848
25
 energy: -43.838091703090 gnorm: 0.004530306920 xtb: 6.6.1 (8d0f1dd)
C            3.24463238985518        1.17690565021243        0.08308684445985
N            2.30376325949066        0.10568396708850        0.03406981349182
C            2.60237444894217       -1.23793370803252        0.03079801301280
N            1.41780095853678       -1.93604983871539        0.01183055977080
C            0.38704012144056       -1.06106532020883        0.00794696898097
C            0.91538358043108        0.22316123340307        0.02338163589593
C            0.10533184112699        1.37585864238142        0.00846258665791
O            0.49176406937778        2.55080980281036        0.02385885323468
N           -1.28543729221576        1.03718167032803       -0.04867665037058
C           -2.21575254301480        2.15423622705777       -0.03695154292442
C           -1.85550236434475       -0.20361329240344       -0.13686664540094
O           -3.05283704225379       -0.38411033538448       -0.20316706088446
N           -0.96006628029899       -1.30050638114599       -0.04617014512771
C           -1.47203998867146       -2.64943666779269       -0.03711268180198
H            3.72473909747987        1.22462014207706        1.06530703722221
H            4.01555877626059        1.03984387618215       -0.67956375141662
H            2.70390740345942        2.10495783415795       -0.09454783158115
H            3.58283895577715       -1.64938999539821        0.03067372059956
H           -1.64883279409663        3.08310546789447       -0.00312092848646
H           -2.82350854311986        2.12280722332434       -0.93734193378893
H           -2.86814093053907        2.07912832262851        0.83208468024270
H           -1.12789911973880       -3.19859625373590        0.84450502978835
H           -1.17608240787379       -3.18814892227354       -0.93753458960499
H           -2.55602092026535       -2.56940279404384       -0.00989971282078
H            1.37621709735054       -2.94043315777870        0.00548488777397
25
 energy: -43.838114684001 gnorm: 0.003188335898 xtb: 6.6.1 (8d0f1dd)
C            3.24508369888454        1.17592436390694        0.08112008280626
N            2.30280488814129        0.10624877592842        0.03601654754416
C            2.60157965703028       -1.23780457065194        0.03639918842696
N            1.41654800220989       -1.93557017209533        0.01454598321722
C            0.38617659970194       -1.06098291668009        0.00797289834929
C            0.91414997661600        0.22322727212199        0.02351457552407
C            0.10520440296762        1.37522433761416        0.00496622998767
O            0.49082764355356        2.54987785083098        0.02072866296371
N           -1.28647695367949        1.03735176959673       -0.05075659385525
C           -2.21608514064453        2.15489013351347       -0.03428105725842
C           -1.85547362999431       -0.20258050461870       -0.13895803368255
O           -3.05358461821611       -0.38322351067193       -0.20064229384516
N           -0.96068781381827       -1.29981069085460       -0.04789290364821
C           -1.47102945453402       -2.64940347821924       -0.03873444183939
H            3.72804760293432        1.22422538382494        1.06189344624797
H            4.01399529104939        1.03491896517377       -0.68284016997837
H            2.70599037066515        2.10459275729733       -0.09774555302318
H            3.58241406146013       -1.64760202398104        0.03893206452986
H           -1.65122580359094        3.08539647533160       -0.00053270786902
H           -2.82439099346291        2.12317977960416       -0.93409762224057
H           -2.86747857951081        2.07854725502223        0.83564293200329
H           -1.12614642206556       -3.19996580078854        0.84201489117662
H           -1.17125432782939       -3.18533527702197       -0.93976227215747
H           -2.55539761886099       -2.57168703953950       -0.01439105060269
H            1.37564093408893       -2.94002574201134        0.00742435414573
25
 energy: -43.838121967836 gnorm: 0.002551159213 xtb: 6.6.1 (8d0f1dd)
C            3.24570836021917        1.17594144769792        0.08269059939457
N            2.30314453476571        0.10565901956059        0.03733001297599
C            2.60097142414266       -1.23859482597832        0.03550345440075
N            1.41561481906337       -1.93562540304398        0.01135845901207
C            0.38556849698951       -1.06079393262563        0.00883785730265
C            0.91415848250410        0.22308469310831        0.02596467843707
C            0.10503114007925        1.37487293812476        0.00726127919925
O            0.49056354547998        2.54956992860199        0.01878840660648
N           -1.28701072673223        1.03659359541218       -0.05032048935346
C           -2.21582236756135        2.15423946849598       -0.03599415460958
C           -1.85682479139515       -0.20293991627833       -0.13923450365497
O           -3.05481018011442       -0.38357219696396       -0.19936915882609
N           -0.96131571184239       -1.29945720667366       -0.04711984703297
C           -1.47051966409473       -2.64901908497758       -0.03692033951249
H            3.73025566429675        1.22482150911646        1.06261788491896
H            4.01461452734000        1.04000612157400       -0.68244968998911
H            2.70508975270563        2.10401176919267       -0.09323227873592
H            3.58135101106299       -1.64963953361621        0.03674382538244
H           -1.64865934095494        3.08332919844850       -0.00221219311356
H           -2.82294013026956        2.12236310719451       -0.93653294862953
H           -2.86843098450828        2.07850040735012        0.83297697405655
H           -1.12440554146170       -3.19790235620151        0.84447714650928
H           -1.17165013762121       -3.18570944586976       -0.93767998656350
H           -2.55452299278059       -2.57016869626370       -0.01191173778125
H            1.37407258378314       -2.93995721275283       -0.00103609347110
25
 energy: -43.838133392546 gnorm: 0.001725500118 xtb: 6.6.1 (8d0f1dd)
C            3.24556518829630        1.17634346123292        0.08157433572282
N            2.30371951687635        0.10542747052192        0.03564518474909
C            2.60149484051108       -1.23853153027824        0.03462282818349
N            1.41648296810079       -1.93574883240604        0.01378092855041
C            0.38616376955781       -1.06087993443801        0.00930248487386
C            0.91479257548642        0.22323523863450        0.02519216905836
C            0.10561441450738        1.37547402710922        0.00817277869795
O            0.49110980521483        2.55033795978402        0.02008682088412
N           -1.28658981647861        1.03672356800611       -0.04907905748038
C           -2.21593246036830        2.15405483099203       -0.03565588813346
C           -1.85663078560221       -0.20326205023471       -0.13802601178643
O           -3.05416785701828       -0.38398809279066       -0.20086296525242
N           -0.96082859039918       -1.29987911876699       -0.04677506792291
C           -1.47107428860025       -2.64919758338652       -0.03875898033447
H            3.72706853834986        1.22646909933131        1.06292421267919
H            4.01641346233390        1.03982962117408       -0.68152916370443
H            2.70481016507570        2.10397248533009       -0.09668972034751
H            3.58188902225604       -1.65004689147986        0.03547012376091
H           -1.64840187001516        3.08274936593566       -0.00256242312851
H           -2.82438697386920        2.12242045162067       -0.93543123016728
H           -2.86771858918622        2.07873822936428        0.83388687705258
H           -1.12608186031173       -3.19909913310567        0.84226525451036
H           -1.17407841632892       -3.18613698661223       -0.93988278384045
H           -2.55492962957067       -2.56925452087535       -0.01267921828023
H            1.37492864427800       -2.94013774203004        0.00554566857784
25
 energy: -43.838125235008 gnorm: 0.002263176925 xtb: 6.6.1 (8d0f1dd)
C            3.24525703084151        1.17564896709426        0.08259256429331
N            2.30309183019256        0.10587606599075        0.03544335119610
C            2.60131567359117       -1.23789303171667        0.03429261725608
N            1.41658849340599       -1.93534572012904        0.01193944892748
C            0.38618619424750       -1.06067308515580        0.00737636195407
C            0.91428843669423        0.22376506328482        0.02306706515749
C            0.10574463513576        1.37611712812829        0.00553460149807
O            0.49078331958400        2.55097710364852        0.02070638377188
N           -1.28677009975390        1.03759720630383       -0.05041060121958
C           -2.21645691263234        2.15502103996194       -0.03552947856893
C           -1.85610162014845       -0.20264686448076       -0.13815640676750
O           -3.05372065580545       -0.38347629561336       -0.20095246346267
N           -0.96068513270025       -1.29981251782243       -0.04738299795780
C           -1.47046786450072       -2.64963000735670       -0.03754817986124
H            3.72830799800543        1.22204857528770        1.06344429304512
H            4.01374822788595        1.03590430770761       -0.68204517511735
H            2.70617781852296        2.10475405048846       -0.09413408277193
H            3.58208922432875       -1.64835906198413        0.03706724203050
H           -1.65110730660256        3.08506287807867       -0.00149452042366
H           -2.82474685877768        2.12374105833863       -0.93546680782477
H           -2.86824898522453        2.07890747761770        0.83401931692486
H           -1.12549657469962       -3.19858284614166        0.84410037908752
H           -1.17126870770735       -3.18711741524070       -0.93766988239805
H           -2.55477951542356       -2.57244578539716       -0.01238035280360
H            1.37550312463632       -2.93982489826026        0.00412448095714
25
 energy: -43.815054698895 gnorm: 0.178107604815 xtb: 6.6.1 (8d0f1dd)
C            3.25297077515268        1.18089478258317        0.07748832772270
N            2.31003451758134        0.10828490485842        0.03931680644512
C            2.61618320653097       -1.23001180616651        0.03450258053594
N            1.42640015282123       -1.93443177287386        0.02655323764783
C            0.36388825608499       -1.05777726750260        0.02104171978188
C            0.91010832260779        0.22327960135391        0.03606101105071
C            0.09785746751936        1.35048102145938        0.02421666984145
O            0.51508793822373        2.53833686507746        0.04454721740107
N           -1.31416205268001        1.00842705687482       -0.05820707554080
C           -2.20163640675517        2.16520306692618       -0.01214425390926
C           -1.97760151566584       -0.23468508062973       -0.30762235299837
O           -3.12465472124075       -0.37144375422190       -0.31621896910603
N           -1.01505125759179       -1.30250410052743       -0.05056515826670
C           -1.46026587904527       -2.65861517383430       -0.02042270312360
H            3.73694013768920        1.22985305382001        1.05730099967035
H            4.02601247249851        1.03682945342541       -0.69222721506472
H            2.71317849941188        2.10764200957576       -0.10201840717248
H            3.60125622311738       -1.64021655803207        0.02672557612232
H           -1.64507080533687        3.09641936215167        0.01937184345910
H           -2.80554720491679        2.14335762393536       -0.90525908024828
H           -2.85425715408033        2.07880699577032        0.85042285639029
H           -1.07955919755563       -3.21793993341745        0.85483276168835
H           -1.20935526310669       -3.19038346324686       -0.91386671406405
H           -2.54048636805258       -2.58042224154098        0.04961743328290
H            1.39850943337316       -2.93425018149994        0.01786793453895
25
 energy: -43.829631527392 gnorm: 0.045204066585 xtb: 6.6.1 (8d0f1dd)
C            3.24902079943602        1.17945175076932        0.07897041838430
N            2.30392796476151        0.10776585416583        0.03787298781537
C            2.60056126668104       -1.23719046310864        0.03671121017648
N            1.41494120609532       -1.93617611236360        0.01714059592101
C            0.37587917626506       -1.05974013006397        0.01532645503421
C            0.90998189015024        0.22437811563687        0.03200436808856
C            0.09604333322723        1.36379267741341        0.01308982231083
O            0.48527290871826        2.54374905010250        0.03653708928095
N           -1.30136957770587        1.03051037448222       -0.04829724647058
C           -2.21536225935527        2.16304445498728       -0.02644522500003
C           -1.90782280919648       -0.21866294214245       -0.20624106387253
O           -3.09071752859760       -0.38206307118918       -0.33397375826220
N           -0.97943285776444       -1.30658778139705       -0.04284153905289
C           -1.46603146885416       -2.65972488968117       -0.02907616892597
H            3.73822947065406        1.23146113233157        1.05689585841282
H            4.01769431311560        1.03903010112228       -0.68886264154364
H            2.71029337570705        2.10803700373019       -0.09925786077737
H            3.58197208685911       -1.65263967431043        0.03366721771972
H           -1.63340298430908        3.08022030849940        0.01364132243981
H           -2.83129255948146        2.15189259977520       -0.92098614761853
H           -2.85770551580138        2.08666173018675        0.85072389497558
H           -1.08094383777176       -3.20523977891842        0.84254678553374
H           -1.20668709205552       -3.20171032101843       -0.93349976331766
H           -2.55082740006097       -2.59533240389149        0.05132774319932
H            1.37855767586801       -2.93979312079978        0.01434069163343
25
 energy: -43.829665288956 gnorm: 0.023136386345 xtb: 6.6.1 (8d0f1dd)
C            3.24958284606544        1.18058690942111        0.07435974548997
N            2.30227300987695        0.11024455597802        0.03437858536855
C            2.60205817444768       -1.23486633702074        0.03652024808104
N            1.41392861938456       -1.93273559816419        0.02400165909763
C            0.37428834477291       -1.06269167206952        0.00170927971390
C            0.90838640797837        0.21781040884876        0.02631233706306
C            0.09211965594037        1.35637789542176        0.01293448767364
O            0.47782826132182        2.53049628793445        0.06160691934260
N           -1.30192806105392        1.02034852507941       -0.07358104125819
C           -2.21232117660962        2.15034978008229       -0.01348490528744
C           -1.88940722811702       -0.21203445528511       -0.25023257068278
O           -3.08342702186438       -0.38298596068507       -0.36697538863723
N           -0.97895520253302       -1.29844715524861       -0.06880707465905
C           -1.47729149115442       -2.64912595525516       -0.01037292563944
H            3.73703148264814        1.23310134230319        1.05377329869515
H            4.02028333415222        1.03824525585111       -0.69003340765633
H            2.71292328429570        2.11014487825451       -0.10595993603257
H            3.58821889363984       -1.64238860523169        0.02370971751329
H           -1.63439680941087        3.07245996935422        0.04595370375810
H           -2.81942978107396        2.15402151123180       -0.91219428526799
H           -2.85996539387487        2.05684803224149        0.85828147558387
H           -1.09455277066723       -3.18328286701345        0.86878562876644
H           -1.20943191115933       -3.20503425106546       -0.90806766653605
H           -2.56060348394556       -2.57512678408878        0.05279917568253
H            1.38356759352469       -2.93718124655611        0.02589798591198
25
 energy: -43.830841512707 gnorm: 0.013085127362 xtb: 6.6.1 (8d0f1dd)
C            3.24930702151404        1.17914006826053        0.07847616682925
N            2.30005201626540        0.11047401873141        0.03880684353132
C            2.60212222450123       -1.23508982089547        0.04094689826633
N            1.41124201373225       -1.93129599218274        0.02461057923767
C            0.36853585090225       -1.06400458678141        0.00875664652167
C            0.90509465962322        0.21504476779062        0.03281575571738
C            0.08985026481228        1.35490199209665        0.01391870432458
O            0.48287613220537        2.52635295028211        0.04476852545527
N           -1.30896664818695        1.01781407494155       -0.06877075153229
C           -2.20881741579840        2.15680165935267       -0.02082581620065
C           -1.89852269813671       -0.21001248324568       -0.22926968973921
O           -3.09477202334308       -0.38255204545709       -0.31356992563965
N           -0.98704674845749       -1.29705365777254       -0.06286972124791
C           -1.47222100579168       -2.65375697716051       -0.01622602474736
H            3.73724662061051        1.22925765895519        1.05811025794398
H            4.01936974215053        1.03713432176048       -0.68710469875393
H            2.71289774506077        2.10927433093542       -0.09898236371249
H            3.59028697336775       -1.64001984562370        0.02462597052461
H           -1.63399933012559        3.08325228129103        0.01272810997077
H           -2.81732602545856        2.14275843443714       -0.91606970721212
H           -2.85627288043250        2.08544207708674        0.85209720775823
H           -1.07695949813424       -3.20801277476483        0.84484279223027
H           -1.20545901874757       -3.18776402914205       -0.92762679711621
H           -2.55330985358207       -2.58711503230969        0.04923321323829
H            1.38557145803376       -2.93583692626761        0.01789287043689
25
 energy: -43.831054885578 gnorm: 0.008006414337 xtb: 6.6.1 (8d0f1dd)
C            3.25111403797331        1.17875784074238        0.07627400246716
N            2.30306246279525        0.10934593754570        0.03782192992612
C            2.60238055569926       -1.23851441145264        0.04210140157698
N            1.41138200272411       -1.93319269145413        0.02119417716689
C            0.37050501532893       -1.06194008118861        0.01546003472706
C            0.90826036461904        0.21970382733295        0.03434047417196
C            0.09432089518058        1.36269654998111        0.01697172439247
O            0.48882020525276        2.53744417392088        0.03992551624279
N           -1.30841803584883        1.02307466108967       -0.06392726074938
C           -2.21419156280125        2.16004781497486       -0.02145542714123
C           -1.89921615996691       -0.21102042380716       -0.22584419584808
O           -3.09280148848660       -0.38359806295912       -0.33370946441110
N           -0.98620230080354       -1.29988911841590       -0.05669910553672
C           -1.46849276606164       -2.65848529830936       -0.01976148622024
H            3.73975437448605        1.23169101513031        1.05519023071203
H            4.01941357024412        1.03775990558121       -0.69154730668774
H            2.71218970457935        2.10731464242553       -0.10177803071090
H            3.58677105072855       -1.64999260644855        0.03333913204847
H           -1.63889744522805        3.08444312752247        0.02315276826060
H           -2.82796728135163        2.15555815563613       -0.91531642770719