25
 energy: -43.832478896746 gnorm: 0.105068429061 xtb: 6.6.1 (8d0f1dd)
C            3.23527566325717        1.17023029609163        0.08483250197994
N            2.29666109315039        0.08501009834263        0.03945856819404
C            2.59116202456056       -1.22668546464015        0.03128103089833
N            1.44614736432701       -1.95799882242289        0.00139203014021
C            0.39807495441547       -1.07542678981053       -0.00800551843800
C            0.92294657384978        0.20965320515981        0.01634563188842
C            0.09437103766914        1.39442265437263       -0.00505855556459
O            0.49575721871320        2.55490887754144       -0.00326176240025
N           -1.25868977330958        1.06271966715791       -0.03149718552033
C           -2.22340642762316        2.15941953749836       -0.05066483896439
C           -1.82122896804375       -0.19639663760348       -0.04767684502975
O           -3.00753849380543       -0.37579235001524       -0.07076963661910
N           -0.93477807921976       -1.30125130813344       -0.03744626447441
C           -1.47512029075485       -2.64151577032683       -0.06019876238245
H            3.71951334493782        1.21437349251606        1.06262041509864
H            4.00091301904236        1.04001299738806       -0.67853778701367
H            2.69580890058962        2.10473661314928       -0.08337813178110
H            3.57785127694051       -1.64153542036231        0.04821096531564
H           -1.67210478353471        3.09870530411743       -0.02728151381410
H           -2.82777534331614        2.09984950785692       -0.95341998358706
H           -2.87977895073277        2.08329488603597        0.81412588392203
H           -1.17174054772248       -3.18864806916151        0.83234390676151
H           -1.14817072748092       -3.16743397920828       -0.95692677785914
H           -2.55878223963315       -2.55152932028952       -0.07401847512686
H            1.47329859244908       -3.02643223443958       -0.01293172635535
25
 energy: -43.837412121116 gnorm: 0.035524307840 xtb: 6.6.1 (8d0f1dd)
C            3.24277378173378        1.17769294059154        0.08700299440599
N            2.30774329352088        0.09686695404151        0.03744228719051
C            2.60554891318625       -1.23827797877614        0.03102104452466
N            1.43374984766027       -1.95221128168552        0.00152311021851
C            0.40140671058591       -1.07077095062281       -0.00840102161160
C            0.92471498763824        0.21447682459151        0.01466923570358
C            0.10291076036249        1.38341947596532       -0.00584570511713
O            0.49696279189207        2.55511387771430       -0.00463440525378
N           -1.26487278638347        1.04999987054604       -0.03179781953280
C           -2.22214674067318        2.14915279533088       -0.05056573659263
C           -1.82398826135256       -0.19988504170171       -0.04798150489875
O           -3.02081898642777       -0.38376513018988       -0.07113031247988
N           -0.93802298239767       -1.30107078258190       -0.03758576412965
C           -1.47669689360170       -2.64058164091933       -0.06022282255351
H            3.72847275598567        1.22134057865677        1.06608779247306
H            4.00618381513768        1.04895227277877       -0.68175047332894
H            2.69389116238538        2.10398695190148       -0.08031780915174
H            3.58538446084391       -1.65885106799994        0.04839451779460
H           -1.65711785420680        3.07929000289024       -0.02674325308192
H           -2.82775498147965        2.09774551707187       -0.95469010998496
H           -2.87942813332228        2.08165936052583        0.81559885874680
H           -1.17057380108271       -3.19074051343863        0.83148428536959
H           -1.14684028251331       -3.17016965446665       -0.95594807573035
H           -2.56160733432291       -2.55020516573152       -0.07394374198919
H            1.42879219555692       -2.97647724367766       -0.01212840172225
25
 energy: -43.837984008231 gnorm: 0.016704401817 xtb: 6.6.1 (8d0f1dd)
C            3.23442737254824        1.17450574739207        0.08547893095890
N            2.30223767433083        0.09915575637373        0.03572974601334
C            2.61156398555599       -1.24351043067294        0.03251265489333
N            1.43875656423066       -1.96443439175025        0.00192162767766
C            0.40739590892613       -1.08178216294399       -0.00758846650185
C            0.91801756145465        0.21085275136202        0.01523620243216
C            0.11004382696629        1.37864284455956       -0.00339071519320
O            0.49969993348487        2.55437125687748       -0.00126021681846
N           -1.26775266869509        1.05337989654581       -0.03066348453794
C           -2.22297569050809        2.15683070217432       -0.05050125745610
C           -1.81512320923206       -0.19503709856458       -0.04725818343448
O           -3.01490802117961       -0.38023282007052       -0.07118901531382
N           -0.93619989378354       -1.30305616216883       -0.03694737996118
C           -1.47699698166683       -2.64010609373274       -0.06036395131609
H            3.71635276867279        1.21384678188009        1.06623886297345
H            3.99972463094076        1.03543150709965       -0.68004687573313
H            2.69137356086181        2.10189570695891       -0.08708435232849
H            3.59154067195527       -1.64729717740185        0.04887703888955
H           -1.67524523883022        3.09831679625361       -0.02702086508432
H           -2.83007926639597        2.10288121723613       -0.95373462944597
H           -2.88299558725672        2.08685522940927        0.81349503636359
H           -1.17193047314206       -3.19172191041910        0.83176161101686
H           -1.14802967601376       -3.17002736827658       -0.95719042195627
H           -2.56147183993683       -2.54809442424944       -0.07416381441887
H            1.45124052543793       -2.97497518305745       -0.01331091245047
25
 energy: -43.838210581374 gnorm: 0.008494577394 xtb: 6.6.1 (8d0f1dd)
C            3.23762317941949        1.17422695168029        0.08752438074882
N            2.29982858997489        0.10099097495146        0.03586295383534
C            2.60536271777328       -1.24310054672320        0.03160086124065
N            1.43294616417576       -1.96459765287726        0.00170881901300
C            0.40457643343034       -1.08005812018282       -0.00817952282763
C            0.91495712628150        0.21383153820991        0.01477717416347
C            0.10870229343445        1.38017356340639       -0.00667708505922
O            0.49075924836473        2.55714806180983       -0.00663969313481
N           -1.27087084835730        1.05254722824660       -0.03273513308916
C           -2.22205109031722        2.15465607466417       -0.05072458712967
C           -1.81661403830782       -0.19453564273388       -0.04809716507596
O           -3.01580138023542       -0.38148559319322       -0.07090901637966
N           -0.93875009286635       -1.30146867681070       -0.03750085088805
C           -1.47630076169018       -2.63958772250367       -0.05977085686295
H            3.72738030831048        1.21417936904405        1.06454413613645
H            4.00266273012727        1.04480117981540       -0.68031001472935
H            2.69853370197779        2.10538256308655       -0.07683875443213
H            3.58374774376117       -1.64721272034891        0.04706509051613
H           -1.66196081705194        3.08857742909435       -0.02754928261168
H           -2.82856377113642        2.10016387436541       -0.95439475295917
H           -2.87858950779128        2.08365601467153        0.81598038291997
H           -1.16953544915775       -3.18915600860778        0.83286001268199
H           -1.14599828915484       -3.16911805201054       -0.95615534576607
H           -2.56086585413475       -2.55219292069750       -0.07355498638632
H            1.44748810189557       -2.98113019554206       -0.01234959465581
25
 energy: -43.838220403092 gnorm: 0.005601071836 xtb: 6.6.1 (8d0f1dd)
C            3.23860576344156        1.17452046844490        0.08455901902535
N            2.30286479766001        0.09943623150042        0.03632060598536
C            2.60624112384275       -1.24365885644102        0.03415402600842
N            1.43274807938253       -1.96233199595462        0.00241143793738
C            0.40532533559014       -1.07840255855273       -0.00764765945610
C            0.91771728772660        0.21416159042013        0.01623915581570
C            0.11223433194538        1.38056872660188       -0.00250186689044
O            0.49429302305626        2.55608321785187        0.00039482841137
N           -1.26963522045466        1.05300599708012       -0.03025384241463
C           -2.22293182896262        2.15247878085267       -0.05010479154490
C           -1.81585520606862       -0.19410823869865       -0.04731964331189
O           -3.01453370797502       -0.38224995051389       -0.07142212300924
N           -0.93790627134930       -1.30016028058779       -0.03738726221773
C           -1.47697722578019       -2.63814128700635       -0.06126809685927
H            3.72297649272100        1.22427897300118        1.06411359541575
H            4.00634467598066        1.04395988826401       -0.68063966318754
H            2.69376422897513        2.10156801711442       -0.08926021101465
H            3.58513678259806       -1.65096506360653        0.05009158734186
H           -1.66391968253296        3.08637442522514       -0.02556439737844
H           -2.82747082714462        2.09775617905697       -0.95497731237450
H           -2.88236832237329        2.08132756373065        0.81432244945292
H           -1.17243730892037       -3.19027608837662        0.83037470099214
H           -1.14841844372908       -3.16797598189406       -0.95792172209300
H           -2.56139147335133       -2.54787586304285       -0.07516194246319
H            1.44426003444741       -2.98268292365484       -0.01201370290254
25
 energy: -43.838267391732 gnorm: 0.003550076321 xtb: 6.6.1 (8d0f1dd)
C            3.23797109800006        1.17378833689319        0.08769566858302
N            2.30321945433361        0.09926237510595        0.03562567775226
C            2.60735649152512       -1.24297050401008        0.03137016959570
N            1.43373454825599       -1.96077021204153        0.00028043723369
C            0.40547641243014       -1.07836196600864       -0.00875500811940
C            0.91774264293435        0.21409710928465        0.01454941850907
C            0.11292629378193        1.38035728319246       -0.00576706553349
O            0.49505858924362        2.55552967813933       -0.00465551346711
N           -1.27045177850277        1.05329260032190       -0.03207688154216
C           -2.22322855930025        2.15412035681662       -0.05093198827500
C           -1.81649396167699       -0.19434408221156       -0.04750799327589
O           -3.01530470657243       -0.38287181193497       -0.07044898111922
N           -0.93799874589338       -1.30059008577202       -0.03729130636818
C           -1.47606702935302       -2.63935802429773       -0.05931609281392
H            3.72239486856947        1.21574550142105        1.06759111280937
H            4.00351314909452        1.04341559347463       -0.67957113150484
H            2.69326234507669        2.10229991317119       -0.08070006481097
H            3.58718295678788       -1.65009606991353        0.04655933050401
H           -1.66662954581706        3.08955968933537       -0.02807276745739
H           -2.83045445935041        2.10067559341892       -0.95401486663015
H           -2.88142072349932        2.08522876863807        0.81453376328083
H           -1.17052401192540       -3.19044781858710        0.83269813075679
H           -1.14726317525995       -3.17030649249052       -0.95528478355658
H           -2.56069888323710       -2.55013655897539       -0.07281366125819
H            1.44536316908012       -2.98042820215588       -0.01415843402406
25
 energy: -43.838264101322 gnorm: 0.003056147660 xtb: 6.6.1 (8d0f1dd)
C            3.23746504790583        1.17413175962521        0.08535182393913
N            2.30174691120283        0.10006896657021        0.03614558559415
C            2.60659117190228       -1.24246018857870        0.03379265500575
N            1.43382135167542       -1.96149628943651        0.00370606993978
C            0.40487000605929       -1.07971773684568       -0.00708981619183
C            0.91591198008386        0.21388604902917        0.01594888290957
C            0.11205033425580        1.37994171535421       -0.00484272306606
O            0.49208328825869        2.55616218954127       -0.00403445173052
N           -1.27159404670594        1.05233532177109       -0.03175772394327
C           -2.22205617251781        2.15454460228507       -0.05003825200196
C           -1.81712088610845       -0.19489808669214       -0.04812925139319
O           -3.01616916443194       -0.38289871961779       -0.07213320112516
N           -0.93884120823073       -1.30162606959946       -0.03732117801906
C           -1.47663915310838       -2.64009675546131       -0.06126027635050
H            3.72596032239417        1.21523026115735        1.06302041017027
H            4.00110660268026        1.04149999207038       -0.68319689875060
H            2.69667117727673        2.10488026956755       -0.08171814997169
H            3.58631196634445       -1.64780327117871        0.04945401369300
H           -1.66430471607013        3.08971081448632       -0.02583190534420
H           -2.82826514487095        2.10190521937884       -0.95393197299273
H           -2.87997562864584        2.08447001453874        0.81559683968591
H           -1.17107615251998       -3.19102262219546        0.83089929880875
H           -1.14617449225085       -3.16911464304667       -0.95785439155837
H           -2.56134909071289       -2.55143075613078       -0.07580615033072
H            1.44764213485972       -2.97951106577783       -0.00943206770823
25
 energy: -43.838281792854 gnorm: 0.001917831010 xtb: 6.6.1 (8d0f1dd)
C            3.23752777692183        1.17425215380664        0.08673856391290
N            2.30211678267374        0.09951333096943        0.03577502185325
C            2.60629628331613       -1.24327613859122        0.03236407429232
N            1.43359613274913       -1.96221129431665        0.00088748408239
C            0.40509158085121       -1.07992562949947       -0.00835109838739
C            0.91625032201722        0.21380507904783        0.01516317516317
C            0.11299180954226        1.38020484227303       -0.00468938846175
O            0.49264879293906        2.55650934940459       -0.00322737365060
N           -1.27099708052666        1.05249583482456       -0.03155204249372
C           -2.22218706606887        2.15359213366622       -0.05077754602585
C           -1.81643432839202       -0.19439733128927       -0.04751461095015
O           -3.01543133666802       -0.38219712433985       -0.07068552358201
N           -0.93855493785616       -1.30122373383231       -0.03734924814515
C           -1.47701315845154       -2.63924394087071       -0.05987838215851
H            3.72338639700738        1.21815971766354        1.06559651733862
H            4.00410594985401        1.04339662882773       -0.67921797471527
H            2.69586597725341        2.10391157585655       -0.08275449437887
H            3.58561636608432       -1.64902180054452        0.04770727009248
H           -1.66451109175490        3.08878881266051       -0.02722294103912
H           -2.82794367152666        2.09909164551547       -0.95493240849010
H           -2.88039807554678        2.08308019608809        0.81468900950576
H           -1.17083330978090       -3.18950809404120        0.83243985734261
H           -1.14791746743819       -3.16890374511452       -0.95653291452631
H           -2.56159787524786       -2.54960722810518       -0.07317409162207
H            1.44699166677429       -2.98059426924489       -0.01396376568842
25
 energy: -43.838269980425 gnorm: 0.002922389097 xtb: 6.6.1 (8d0f1dd)
C            3.23817666616168        1.17343358560825        0.08640219408558
N            2.30337036488150        0.09859245166483        0.03573698818796
C            2.60657782069812       -1.24364070483911        0.03261951844665
N            1.43338695342971       -1.96122505317448        0.00241988679841
C            0.40537671141173       -1.07869259280182       -0.00793280496550
C            0.91743123074989        0.21432629380456        0.01503536328275
C            0.11397645985878        1.38089197361682       -0.00561739396356
O            0.49470018618650        2.55632955318977       -0.00457332785129
N           -1.27085493858096        1.05358806441203       -0.03197918209099
C           -2.22363379446159        2.15409178180729       -0.05014223086417
C           -1.81626084336214       -0.19380464340344       -0.04788994312529
O           -3.01494088934427       -0.38242369734420       -0.07128429818497
N           -0.93790419673414       -1.30033131678210       -0.03738949228743
C           -1.47539364724122       -2.63925844358441       -0.06055979434536
H            3.72383133495907        1.21699620412899        1.06563953664123
H            4.00340175143364        1.04407905316530       -0.68145220973395
H            2.69254221951544        2.10121174618647       -0.08193997421473
H            3.58615839211992       -1.65088011665266        0.04788918167262
H           -1.66654065235249        3.08929097324326       -0.02704215307799
H           -2.83145151128180        2.10117051332036       -0.95299746776857
H           -2.88183783036733        2.08503737707543        0.81546042579605
H           -1.17061338487037       -3.19075776578907        0.83139968625729
H           -1.14536320821046       -3.16963959464799       -0.95636137475007
H           -2.55993887648519       -2.55056057474084       -0.07530504058721
H            1.44447012061142       -2.98113409664889       -0.01059892408924
25
 energy: -43.838285036863 gnorm: 0.001354040142 xtb: 6.6.1 (8d0f1dd)
C            3.23797798492299        1.17391652593867        0.08639837893331
N            2.30292476719509        0.09924246167708        0.03591627014606
C            2.60668585815912       -1.24289570098219        0.03264274737705
N            1.43388288980787       -1.96109172795507        0.00185867303803
C            0.40526135415192       -1.07913556428262       -0.00792620774412
C            0.91687957535971        0.21422305997364        0.01541759756704
C            0.11346535317827        1.38047823485832       -0.00483471152927
O            0.49358051131750        2.55620898670086       -0.00361346461086
N           -1.27120377992745        1.05287650619063       -0.03168151603891
C           -2.22289776201535        2.15401391937453       -0.05056910055650
C           -1.81661329990321       -0.19439552466248       -0.04770348401300
O           -3.01537137553798       -0.38296008018404       -0.07128554346713
N           -0.93819476152966       -1.30093098912433       -0.03725706178428
C           -1.47630007981301       -2.63953902168082       -0.06026457229761
H            3.72412350156727        1.21662818674280        1.06535276513437
H            4.00297618090617        1.04308174969663       -0.68132849740139
H            2.69430761767460        2.10282313446505       -0.08196445805380
H            3.58647513040980       -1.64930639350092        0.04797708319494
H           -1.66522906440870        3.08899372690611       -0.02690177302262
H           -2.82946987091399        2.10111699414818       -0.95424390551118
H           -2.88148981989648        2.08481168072099        0.81469191750012
H           -1.17106573209225       -3.19092363125435        0.83163890607252
H           -1.14710275881630       -3.16974002448161       -0.95650558410938
H           -2.56088873266117       -2.55035130573760       -0.07418189643921
H            1.44595275159068       -2.98045423273309       -0.01209539311598
25
 energy: -43.826817097548 gnorm: 0.090867997649 xtb: 6.6.1 (8d0f1dd)
C            3.23322122444665        1.17395403310687        0.08530579823327
N            2.29344538038483        0.09374194329682        0.03896933378930
C            2.60125395467794       -1.23947542968470        0.03356820524371
N            1.45410227733127       -1.98181888967837        0.00188254831754
C            0.40456347000523       -1.09234808980664       -0.00813034666565
C            0.91181367053697        0.20391995258282        0.01549621411837
C            0.09391607346606        1.38378361058156       -0.00569973587006
O            0.49357702108048        2.56169594837313       -0.00299040723825
N           -1.26653449686965        1.06272159650282       -0.03217117920720
C           -2.22742438877540        2.16381277322510       -0.05131909637867
C           -1.82446761187341       -0.19242885572984       -0.04843947721299
O           -3.01497515507078       -0.37288026999743       -0.07154438096727
N           -0.94277855136941       -1.29796415603734       -0.03801259135842
C           -1.48041298502520       -2.63659536673688       -0.06009889740475
H            3.72596782304981        1.21354059314119        1.05990019697414
H            3.99393715793178        1.04571457534183       -0.68353649441659
H            2.69246244537163        2.11084643508546       -0.07506209107818
H            3.58628662644452       -1.63540295918695        0.05699592218239
H           -1.67251011700003        3.10429860816390       -0.02880461431920
H           -2.83122740349383        2.10543094315188       -0.95365860014152
H           -2.88307386108547        2.08915218826947        0.81374222739760
H           -1.17309403779124       -3.18157901506384        0.83223084778193
H           -1.15109023468454       -3.16002715261036       -0.95695536163511
H           -2.56211037134294       -2.54649920002711       -0.07343491319629
H            1.57384816686820       -3.09740705373563       -0.01165456945898
25
 energy: -43.833695108164 gnorm: 0.032586504545 xtb: 6.6.1 (8d0f1dd)
C            3.24059833143709        1.17862029953613        0.08717921561034
N            2.30613146220531        0.09900784407035        0.03726437129353
C            2.61219944051629       -1.24291239609080        0.03291094577551
N            1.44267220087780       -1.96547457334241        0.00255167750280
C            0.40689215771864       -1.08646734118779       -0.00847174694685
C            0.91947302282027        0.20526464205104        0.01416972866572
C            0.10352839000208        1.37193528138551       -0.00607707613619
O            0.49618646123020        2.54782969293805       -0.00417516011973
N           -1.26907626983742        1.04993048787399       -0.03245057839233
C           -2.22374968448553        2.15220248771718       -0.05125803266729
C           -1.82348569282493       -0.19910567405977       -0.04866835585613
O           -3.02102145827161       -0.38432710457792       -0.07194396377375
N           -0.94078542223142       -1.30079888689415       -0.03810852667353
C           -1.48148419518175       -2.63849156530092       -0.06025660399082
H            3.73328235823376        1.21880643575098        1.06320231726702
H            3.99930652052547        1.05443080939907       -0.68703388140704
H            2.69050501079291        2.10653653650871       -0.07226439457648
H            3.59516030789504       -1.64908328293047        0.05678130649033
H           -1.65708375446098        3.08240022432360       -0.02801033579725
H           -2.82966000793351        2.10223256682328       -0.95499517588903
H           -2.88092182636479        2.08660704236299        0.81500718662710
H           -1.17287824058278       -3.18724042854956        0.83119581982484
H           -1.15055026116459       -3.16663216270267       -0.95610232516811
H           -2.56589519095471       -2.54782064283830       -0.07330471805602
H            1.49935241725260       -3.00926352973838       -0.01056315611753
25
 energy: -43.834281833043 gnorm: 0.016097962920 xtb: 6.6.1 (8d0f1dd)
C            3.23086979390443        1.17494549925860        0.08605679108280
N            2.30099588255573        0.09510754052199        0.03637080872074
C            2.61670579532306       -1.24824928763194        0.03437430941718
N            1.45264272689973       -1.98378901804184        0.00250238736279
C            0.41317277140745       -1.10146711869935       -0.00817294418716
C            0.91526852594751        0.19820898519221        0.01438480993364
C            0.10861954500059        1.36998807337906       -0.00456170326575
O            0.49722282995547        2.54623717183207       -0.00170437717680
N           -1.27168345481566        1.05447529895507       -0.03171058897838
C           -2.22550836263221        2.16016050537742       -0.05110279430212
C           -1.81683318768435       -0.19460422167129       -0.04801722781612
O           -3.01670043321083       -0.37949262918343       -0.07159104165969
N           -0.93717932757827       -1.30334989238132       -0.03765104287501
C           -1.48332684435437       -2.63669250275276       -0.06030670950300
H            3.72191240379237        1.21316487355448        1.06263517931273
H            3.99162946923982        1.04308063125962       -0.68522356448809
H            2.68672854159335        2.10455607802475       -0.07775004476520
H            3.60151174132143       -1.64210925943461        0.05841566064551
H           -1.67520185783067        3.10056064595956       -0.02847402363458
H           -2.83377936933905        2.10817173181953       -0.95374868659387
H           -2.88574524890090        2.09262329216997        0.81314732328741
H           -1.17537473870444       -3.18531327543450        0.83209834902806
H           -1.15303375521228       -3.16367298126640       -0.95772405405966
H           -2.56732491258102       -2.54137046853827       -0.07336545637814
H            1.53310754311656       -3.00298290974088       -0.01230282161817
25
 energy: -43.834551119002 gnorm: 0.007709202767 xtb: 6.6.1 (8d0f1dd)
C            3.23452145181115        1.17558039135819        0.08742617931428
N            2.29854638041901        0.09797210335146        0.03620558976551
C            2.60955740947944       -1.24757299550205        0.03285388369768
N            1.44594069637130       -1.98638069314762        0.00274411350119
C            0.40982036961633       -1.09854465645762       -0.00839111924883
C            0.91208479701818        0.20271957429790        0.01421720660870
C            0.10676358869134        1.37443495636093       -0.00640339984352
O            0.48878185462964        2.55285347660751       -0.00513587863521
N           -1.27477380820281        1.05451145212721       -0.03302354739060
C           -2.22468682854313        2.15885606320753       -0.05133193476854
C           -1.81957154079514       -0.19323452245079       -0.04872720062223
O           -3.01927809129475       -0.37931940568622       -0.07191728960867
N           -0.93993829369829       -1.30121926097877       -0.03786622910645
C           -1.48036351376935       -2.63712760243443       -0.05984594290192
H            3.73192120608897        1.21286533675233        1.06114671121256
H            3.99559820520058        1.04975183970135       -0.68519171289388
H            2.69554689429126        2.10926792097956       -0.06996834341554
H            3.59247150220572       -1.64243449196606        0.05545585700755
H           -1.66347511726085        3.09279455639666       -0.02866574802943
H           -2.83142229105851        2.10545804582298       -0.95496984833085
H           -2.88202646446391        2.08935283661118        0.81508187270570
H           -1.16974875103535       -3.18424063245184        0.83245506885008
H           -1.14742586539945       -3.16370450136318       -0.95639416769532
H           -2.56440826810012       -2.54997703646904       -0.07318134131860
H            1.52426055501218       -3.01447599213944       -0.00999424136456
25
 energy: -43.834557624155 gnorm: 0.006176760923 xtb: 6.6.1 (8d0f1dd)
C            3.23494886536051        1.17748864536726        0.08554145890570
N            2.30174577572170        0.09822354636451        0.03687562147518
C            2.61257897029796       -1.24659496929493        0.03548077913321
N            1.44750700134050       -1.98432620558219        0.00255210290702
C            0.41148985581916       -1.09722589882864       -0.00821166485257
C            0.91473414869200        0.20264473830908        0.01511100555578
C            0.11089548712667        1.37338390733117       -0.00420774102720
O            0.49409725846050        2.55074649410876       -0.00110654008527
N           -1.27278824902823        1.05330827293402       -0.03151440844600
C           -2.22424383776358        2.15568330236245       -0.05075192084875
C           -1.81774890170108       -0.19381340528766       -0.04805028188226
O           -3.01701880539418       -0.38162493867965       -0.07170596155907
N           -0.93844569954385       -1.30094268198895       -0.03792888164470
C           -1.48349459544498       -2.63544724593833       -0.06091119923897
H            3.72744449870685        1.22230963888688        1.06173072386515
H            3.99799010325223        1.05127212737515       -0.68542693101613
H            2.68849446105890        2.10600327824121       -0.07934623834310
H            3.59588441094628       -1.64277208744933        0.05938775400796
H           -1.66425209981496        3.08990183281771       -0.02755723636054
H           -2.83030546589543        2.10211912257386       -0.95469994471951