25
 energy: 53.041993755390 xtb: 6.6.1 (8d0f1dd)
C            3.06581923205563        1.15140425196634        0.08360665224096
N            2.26534639668391       -0.04434052185312        0.03341693077086
C            2.70824313885163       -1.29624995986814        0.01940584247151
N            1.64758637477485       -2.14406816364747       -0.00790989388189
C            0.49831162216346       -1.39010225149093       -0.01004801692165
C            0.89822443831161       -0.06131598133450        0.01778899422413
C           -0.12321817788290        1.01560510803852       -0.00336547300772
O            0.19849651816845        2.19702931630885       -0.00279961810856
N           -1.37713610146243        0.55933086860115       -0.03003691463454
C           -2.59485500966697        3.90413041696555       -0.04712434680357
C           -1.80852234643727       -0.67226680610683       -0.05052157429906
O           -2.94608155053564       -1.06376915005143       -0.08268500717940
N           -0.76663169993687       -1.77989061450996       -0.03571224632401
C           -1.18818736590037       -3.15592912208688       -0.05140948774802
H            3.48523586809675        1.28561948901062        1.08242099630252
H            3.88085645057951        1.09402948909042       -0.63750512889828
H            2.41799048310145        2.00117014192276       -0.14042886014426
H            3.73288358919574       -1.60198604941431        0.02470370308726
H           -1.62256986919665        3.45782561197698       -0.04090247766005
H           -3.08509813266759        4.11754887344389       -0.97307052695524
H           -3.12225918864527        4.05660738845456        0.87032056009460
H           -0.85198613294595       -3.68024542756139        0.84647687722465
H           -0.82317853128253       -3.67160688847856       -0.94294068941265
H           -2.27969570984499       -3.14020258534091       -0.06919511294270
H            1.70264000939487       -3.14929864529113       -0.02545126930017
