25
 energy: 0.000000000000 xtb: 6.6.1 (8d0f1dd)
C            3.23720163006194        1.16630919979326        0.08434469647475
N            2.29877817382611        0.07527477071623        0.03981603040599
C            2.58028210190900       -1.21425402444508        0.03006176031096
N            1.43813958087363       -1.93419271955128        0.00098261760884
C            0.39035688448383       -1.05887472636071       -0.00790371836672
C            0.93510056364412        0.21347819449412        0.01709077491437
C            0.09450143893243        1.40504303904423       -0.00410947031874
O            0.49712751527797        2.54126714362870       -0.00342325688240
N           -1.25076640035757        1.06271879480407       -0.03085478223738
C           -2.21907211982101        2.15522099834493       -0.05001256985998
C           -1.81739487048744       -0.20012725993278       -0.04692818574614
O           -2.99983886758376       -0.37846417018721       -0.07008878229737
N           -0.92618586207120       -1.30210215599479       -0.03682761578324
C           -1.46982264913417       -2.64643102187190       -0.06029820460571
H            3.71247264356769        1.21471455160235        1.06488849150277
H            4.00791497605742        1.03430808813993       -0.67357694370751
H            2.69910007168542        2.09770118228144       -0.09130154882931
H            3.56654120610678       -1.63682992603973        0.04233140067262
H           -1.67107961066214        3.09322851271934       -0.02552706933167
H           -2.82428953597071        2.09428624779827       -0.95318082946668
H           -2.87644029173232        2.07745725625962        0.81450067533302
H           -1.17061996399332       -3.19584890659852        0.83242232437030
H           -1.14560257411436       -3.17511610292205       -0.95688275822323
H           -2.55549792440841       -2.55659984320617       -0.07459039797972
H            1.38130855184625       -2.94313852034425       -0.01389874181052
25
 energy: -3.561717669424 xtb: 6.6.1 (8d0f1dd)
C            3.25683787021975        1.18787767329633        0.09059684574027
N            2.31796581180047        0.10638857101141        0.04051723808560
C            2.61393792432180       -1.21984462331229        0.03663786989698
N            1.44503743135344       -1.93285597935342        0.00348548921773
C            0.40648408454278       -1.05639083589745       -0.01269310834800
C            0.93736178869651        0.22537374652246        0.01280711157567
C            0.09851673860691        1.39194253426917       -0.01035165238915
O            0.49349257218703        2.55935215666186       -0.00972851850566
N           -1.26820613534122        1.03788717735926       -0.03560097078705
C           -2.21174090959434        2.14809971945542       -0.05498256717092
C           -1.82905909324307       -0.22671485200264       -0.04736844310928
O           -3.02329602699086       -0.47766423577839       -0.06512300097958
N           -0.92772507950627       -1.30571181384461       -0.03910424611283
C           -1.51768837277296       -2.62831594105861       -0.05865088763398
H            3.73872472171215        1.23171672713074        1.07122952852747
H            4.02573192433094        1.05438794463870       -0.67242639639552
H            2.71453363435507        2.11512364317343       -0.08246857356436
H            3.59449037577427       -1.64089461917679        0.05623633588978
H           -1.64131847613032        3.07625832293926       -0.02732321870164
H           -2.81196079367998        2.10409998140950       -0.96227384578224
H           -2.86882224874975        2.08416765213701        0.81040736662745
H           -1.14444890927371       -3.21083276601547        0.78335110114649
H           -1.24242625682292       -3.14475936412248       -0.96329990857152
H           -2.62999666686985       -2.55317040153321       -0.02999721203243
H            1.38578875901035       -2.93649181573715       -0.00684244047600
25
 energy: 14.648317695107 xtb: 6.6.1 (8d0f1dd)
C            3.29632257417787        1.22743750641736        0.10400863969460
N            2.35150210063568        0.16174516742744        0.04258060830869
C            2.67310018662365       -1.21939589917561        0.05438546539928
N            1.46488186958851       -1.92115369588336        0.01134627746538
C            0.43657549117261       -1.05468951958215       -0.02141046626437
C            0.94171195732722        0.24562346104676        0.00308177404345
C            0.10507465440724        1.35962616523736       -0.02467236694614
O            0.47262815183541        2.57030698830988       -0.02510161539208
N           -1.30627516338115        0.98830333246140       -0.04786532626497
C           -2.19533296630024        2.13741839239277       -0.06761280187291
C           -1.84950068831530       -0.28013616752371       -0.04968376002214
O           -3.04989211430321       -0.68962008272042       -0.05389381196975
N           -0.92803802164952       -1.31354903374072       -0.04319769078623
C           -1.61491669467736       -2.59584796342301       -0.05384565903983
H            3.79584137296084        1.26621418936283        1.08164312161055
H            4.06404216454343        1.09961319049859       -0.66761055869582
H            2.75359324145453        2.15378441019090       -0.06040210609399
H            3.64674986980000       -1.63352610727299        0.09032822181016
H           -1.57640249281759        3.04263778124534       -0.03158424742064
H           -2.78368309417314        2.13240319375722       -0.98415586419724
H           -2.85288643521565        2.10393690888668        0.79846622963043
H           -1.08179148514191       -3.25481064902465        0.66956752351522
H           -1.48316600739454       -3.07828146833920       -0.99782123945412
H           -2.77915317092909       -2.54022459001724        0.09001812584041
H            1.41122936770790       -2.91878690835945        0.01046542324932
25
 energy: 58.067791910404 xtb: 6.6.1 (8d0f1dd)
C            3.33571557974360        1.26717090813577        0.11716668479691
N            2.38219029201233        0.21351571933413        0.04571929729361
C            2.72752179383438       -1.21221920851228        0.07353415316197
N            1.49086542432669       -1.90670439401341        0.02269953836083
C            0.46205493147861       -1.05803591026799       -0.02660933616362
C            0.94712647587126        0.26063032380889       -0.00575550394234
C            0.11029068244389        1.32972539982512       -0.03939701045825
O            0.45113945462026        2.57315060749423       -0.04272937448694
N           -1.34544871018201        0.94138713503656       -0.06159171153170
C           -2.17612484087401        2.13148998827107       -0.08211582398782
C           -1.87707584918720       -0.33029492763499       -0.05283554341777
O           -3.08031621535039       -0.87946242192536       -0.05003281592984
N           -0.93248851243374       -1.32826794397428       -0.04398216511114
C           -1.70534078140929       -2.58076088255266       -0.04191405458650
H            3.85532343600544        1.30119198895701        1.08960971536913
H            4.10296469450567        1.14956683979913       -0.66246532973883
H            2.79841762220334        2.19782919598432       -0.03543353840789
H            3.69951066031352       -1.61556142737065        0.12831822085106
H           -1.50795061779594        3.01074977362385       -0.03603583631526
H           -2.75047005844485        2.16827033565516       -1.00826101517026
H           -2.83480981113332        2.12960420725118        0.78340568214192
H           -1.00676476601764       -3.31700924698498        0.53450186893322
H           -1.76086557481443       -3.00325648228316       -1.04103883813195
H           -2.92487389522764       -2.55235623268580        0.23081854788410
H            1.45162325344762       -2.90132474279888        0.03145808473467
25
 energy: 98.925503478684 xtb: 6.6.1 (8d0f1dd)
C            3.37046114586608        1.29726624312993        0.12573763211831
N            2.40493434066109        0.24954688148732        0.04818685859397
C            2.76390329334192       -1.19940381349077        0.08714568129145
N            1.51778309376245       -1.88673129643391        0.03626907068670
C            0.47471972597442       -1.06457586771098       -0.02202172381155
C            0.95561982582649        0.26792846721537       -0.01083130690774
C            0.12022963915104        1.31317488347280       -0.04938037842383
O            0.43822310979958        2.56198466044402       -0.05614124315136
N           -1.38160041875863        0.91088325854816       -0.07423477611202
C           -2.15692367431786        2.13528640757649       -0.09235104879619
C           -1.91510603497190       -0.36014090040577       -0.06377910436129
O           -3.11589181129795       -1.00430164788334       -0.07275145734719
N           -0.94748707021214       -1.34613976701011       -0.04010294634439
C           -1.76237834514137       -2.59902527697367       -0.01552349074656
H            3.90876581849839        1.32944215759427        1.09107183987432
H            4.13736465943514        1.19565123614884       -0.66066877713679
H            2.84359343460259        2.23855018619456       -0.01310141859542
H            3.74180576803748       -1.59020054330754        0.15847489687433
H           -1.45356543716013        2.99058550853110       -0.03597658414869
H           -2.71680098772113        2.20682647870081       -1.02508003102488
H           -2.81502425971295        2.15642084687960        0.77154096532408
H           -0.94204127674399       -3.37637541492253        0.39269861259941
H           -2.01073586287537       -2.92563113444104       -1.04623315342889
H           -3.04984099849454       -2.62713029098697        0.34477402489599
H            1.50220699038744       -2.88486266018467        0.04931175422552
25
 energy: 114.190468038699 xtb: 6.6.1 (8d0f1dd)
C            3.39689836173337        1.30922021284600        0.12978371198659
N            2.41902133909239        0.24869597151666        0.05072682609777
C            2.76758714630384       -1.17605505081658        0.09170609847928
N            1.55592421086096       -1.85587485436604        0.04865778311026
C            0.47601584210139       -1.07585711232944       -0.00854191180293
C            0.98131096884215        0.26119700737279       -0.01346752143978
C            0.13854541781339        1.32777040959225       -0.05612540828857
O            0.42676575272983        2.52424094192709       -0.06604466255290
N           -1.41361685842060        0.90151187240901       -0.08331445653448
C           -2.14330573196960        2.14242876437702       -0.09744683507115
C           -1.95971753372520       -0.37052872543201       -0.07805039817654
O           -3.13514976864667       -1.06783272599765       -0.10635214039845
N           -0.95982879717461       -1.36949317880580       -0.03627965204738
C           -1.75809917088157       -2.66537645050992        0.02651824204878
H            3.94511178162611        1.34804010119808        1.08674174683889
H            4.16346533089933        1.23245003215433       -0.65948414086531
H            2.88252742998003        2.26906773939283        0.00336667235767
H            3.76698979553203       -1.55748341568109        0.17937398328548
H           -1.42766292780596        2.97520252040201       -0.03439497495599
H           -2.68857326370949        2.23454498487612       -1.03075738440415
H           -2.79787060607865        2.17600895533505        0.76326013376438
H           -0.92230206422030       -3.39607150589179        0.22897692634331
H           -2.22115688821899       -2.83420269564161       -0.98252198658174
H           -3.14798115734370       -2.72111631153863        0.41149748776653
H            1.56731605861663       -2.87145888421672        0.05920575718771
25
 energy: 143.543089870872 xtb: 6.6.1 (8d0f1dd)
C            3.40940354222379        1.31637331182218        0.12969807969324
N            2.42909038887834        0.23845805231336        0.05745306075864
C            2.76088826529904       -1.13920584855578        0.09768631280159
N            1.59519979692630       -1.83543940967878        0.06572586630908
C            0.47560811711457       -1.08268147112078        0.00952540287471
C            1.00536553521597        0.25199119085672       -0.00994516950252
C            0.16252012619718        1.34411470671783       -0.06118443976335
O            0.42219730854765        2.50906724706082       -0.07882325248216
N           -1.42120198884115        0.88291643930141       -0.09111840731899
C           -2.12881659536726        2.14074212707573       -0.10560118285020
C           -1.97985129738036       -0.40065905693285       -0.08550935635846
O           -3.12618228190065       -1.14165591794285       -0.12532114640653
N           -0.95746321254229       -1.38793364230407       -0.02275796552527
C           -1.76994185973811       -2.70087305940890        0.03431869288685
H            3.96251741225976        1.35075259646349        1.08065131236340
H            4.17133288214191        1.24872378349001       -0.66160512820960
H            2.90730847580541        2.28508190340426        0.01310463143149
H            3.77216466491350       -1.51039559157398        0.19686663798754
H           -1.40856167895989        2.96384454417914       -0.03444844940090
H           -2.66612944276943        2.26214689225991       -1.04123024638718
H           -2.78747796779141        2.19701157823940        0.75240716082741
H           -0.88986225336554       -3.42381135265369        0.02076818482293
H           -2.37223645010198       -2.73164727250758       -0.88785924601980
H           -3.28197320825034       -2.79269877150138        0.50019252097567
H            1.62831638942115       -2.85519437683166        0.07404002263969
25
 energy: 167.874405599495 xtb: 6.6.1 (8d0f1dd)
C            3.41082031821666        1.31592363197239        0.12687742603356
N            2.43518156692009        0.21701835441473        0.06543284632982
C            2.74254956745194       -1.09118813818644        0.10469291790969
N            1.62647204681357       -1.82357386881508        0.07854385446683
C            0.47264605623842       -1.08125872308338        0.02147299396912
C            1.02492734066354        0.24585570161854       -0.00547724226283
C            0.18902287840295        1.36262056361370       -0.06419832726365
O            0.42789189068905        2.52184339305949       -0.09185847656766
N           -1.40417657279949        0.87114793571720       -0.09550822284971
C           -2.11713173474737        2.13545949361602       -0.11179605878146
C           -1.97949112360498       -0.43222359217129       -0.08413710700590
O           -3.09684112100938       -1.18457051707198       -0.10738313786149
N           -0.93802550503639       -1.40034393168953       -0.01314279836304
C           -1.74990523031566       -2.72805994538169        0.00855383539646
H            3.96263010561178        1.34197096121025        1.07492656088360
H            4.16736219165869        1.24613125382570       -0.66426092902738
H            2.91540185881860        2.28431111687895        0.01528315245155
H            3.75945053996606       -1.46219759328934        0.20810771925873
H           -1.40758219283209        2.96571151172816       -0.03459460077557
H           -2.64988421196310        2.27228002572502       -1.04801006935954
H           -2.78028669648250        2.20413091490834        0.74309299251681
H           -0.89455630297804       -3.41420192189420       -0.16290858891485
H           -2.45084823403591       -2.66713176727760       -0.77858926300668
H           -3.42282135064446       -2.87050433131422        0.55485738421433
H            1.66940858293413       -2.84012192594178        0.08705703475656
25
 energy: 199.661396793775 xtb: 6.6.1 (8d0f1dd)
C            3.41529440079282        1.32162336639411        0.12799635784450
N            2.44669724316722        0.21145748499754        0.07461841048201
C            2.73859972933830       -1.04906167257192        0.12109538936773
N            1.64932265386290       -1.82118824006948        0.09072873767707
C            0.47439461765017       -1.06970703067092        0.02560702097877
C            1.03397289997992        0.25406305596855       -0.00209526446754
C            0.21359096918462        1.37141860818314       -0.06595425588308
O            0.45003814718205        2.55409348189303       -0.10193857073736
N           -1.38225628601078        0.86450464790744       -0.10335284644087
C           -2.10638934316320        2.13543257831582       -0.12293471882162
C           -1.97585725712853       -0.46497133015313       -0.08289569704138
O           -3.07642174400058       -1.24509529645875       -0.09339422741044
N           -0.90920681029085       -1.40223992839304       -0.00283579646303
C           -1.70943843026924       -2.73600797586740       -0.02043011579749
H            3.96399361719189        1.33571676872807        1.07616098365044
H            4.16744636263262        1.24139840855616       -0.66317340612504
H            2.92098694665044        2.28222558626328        0.01832269829977
H            3.75169106192363       -1.42839534839072        0.22214398602374
H           -1.40674871310450        2.98085158503433       -0.04001100089253
H           -2.63281625731998        2.27937215664794       -1.06163324542350
H           -2.77343724355847        2.20894866814038        0.72893629618451
H           -0.82730247331278       -3.43136511211081       -0.35931278341710
H           -2.57883306556394       -2.58888034005406       -0.68758027605488
H           -3.63089339875070       -2.98889334863743        0.64596970776246
H            1.69578704085311       -2.82627217148019        0.10299651285214
25
 energy: 199.403564450648 xtb: 6.6.1 (8d0f1dd)
C            3.40366638977193        1.31983551418856        0.12484931911620
N            2.45098329825539        0.18582439070907        0.08113490659538
C            2.71981356025038       -0.99940436581412        0.13548346219516
N            1.66484327799767       -1.84239502479400        0.09100138578235
C            0.46486988904301       -1.04766417628823        0.01581225259120
C            1.03026012698079        0.26158865032329        0.00053857633691
C            0.21478169985970        1.37212694693261       -0.06452422933155
O            0.48092357568451        2.59417639384113       -0.10263287041972
N           -1.33141502112762        0.87152929963944       -0.10738787816284
C           -2.10651506160964        2.13472937168904       -0.12652564571689
C           -1.96211102239705       -0.50296126119419       -0.07766053254534
O           -3.05064019810892       -1.23538098112347       -0.05278052311554
N           -0.84864681331816       -1.39640586518237       -0.00521441836901
C           -1.55938090393069       -2.73803540250042       -0.09535100707305
H            3.94607531039538        1.32064464380807        1.07481367825023
H            4.15436277896055        1.22403640911225       -0.66156106902082
H            2.90942157204841        2.26570795163981        0.01569116910080
H            3.72337694402548       -1.41097659283523        0.22043567598627
H           -1.41601382501521        3.00620176120296       -0.04162218207556
H           -2.63335833141209        2.27317753059997       -1.06625775428863
H           -2.77562202293473        2.20266011769580        0.72539370039244
H           -0.80932488136726       -3.39972133647201       -0.48444507744550
H           -2.57067220148503       -2.57530882463527       -0.53822390746902
H           -3.88425415229048       -3.07193971265013        0.65869223927779
H            1.69679067965977       -2.82301683572068        0.10737462555605
25
 energy: 194.355367572482 xtb: 6.6.1 (8d0f1dd)
C            3.40319789890616        1.33148910224639        0.12113721705903
N            2.45114575175474        0.21268793521753        0.07172956216457
C            2.74518531255474       -1.00990678162578        0.14726047248554
N            1.66285294608943       -1.87678675975122        0.08339297575422
C            0.46221671576901       -1.02355830494125        0.00128438523081
C            0.99905995458867        0.28320285651899        0.00020791211028
C            0.16340695987488        1.33902880685575       -0.06333250559851
O            0.51032411361263        2.60772664190250       -0.09116557175346
N           -1.30165298418347        0.89144139190048       -0.10357777577604
C           -2.11110659908213        2.14578318710046       -0.11976887326714
C           -1.96527679381999       -0.53069704257703       -0.07297576597536
O           -3.08195706177698       -1.25296915176621       -0.04744781192147
N           -0.80439198264669       -1.38722779409330       -0.02096285563185
C           -1.41040501766523       -2.68454468983601       -0.17064981841251
H            3.94881936436328        1.31978340367966        1.07414126041839
H            4.15683713184811        1.22234605615057       -0.66514090684848
H            2.90632473906156        2.26856915778560        0.01482198793542
H            3.73444011482375       -1.44082327584251        0.21290669427594
H           -1.41010990252339        3.02778300745380       -0.03672404631680
H           -2.63478743728781        2.26832251489593       -1.06261092795564
H           -2.77318834481459        2.19530991853490        0.73456654144620
H           -0.78412327291393       -3.39324443593159       -0.47522937509253
H           -2.48582451747654       -2.62119229618943       -0.41034551693923
H           -4.15157285281322       -3.06781473056215        0.60237873783172
H            1.68280043169316       -2.83568011495419        0.10313790092418
25
 energy: 199.574167646832 xtb: 6.6.1 (8d0f1dd)
C            3.40734802667340        1.32133475409515        0.12484331564162
N            2.45224241055870        0.23576118179203        0.07013027684367
C            2.76553275053489       -1.04227152042582        0.14674298076742
N            1.65339116452392       -1.87142248302082        0.07452996389079
C            0.47737383366400       -1.00026577890277       -0.00816304880971
C            0.99542227531215        0.30597920740099        0.00253943279588
C            0.12814550949274        1.34296438320440       -0.06689304624465
O            0.54204113134515        2.60718633917299       -0.08456157567871
N           -1.28236696051487        0.93624441584469       -0.09630136840259
C           -2.10697186900485        2.16310638883409       -0.11948095925841
C           -1.96680542966972       -0.52300594012070       -0.06315021435355
O           -3.11403806153479       -1.32565606855586       -0.01846958015715
N           -0.79224797177456       -1.37753187842052       -0.04638791888019
C           -1.31180865529451       -2.61129560560387       -0.19997306491441
H            3.94112257533197        1.31806106128739        1.08277050505105
H            4.16019920243344        1.20787501743290       -0.66386890845612
H            2.89139467947289        2.25724668467773        0.00740205275939
H            3.74575004722738       -1.46455456799787        0.20727128551619
H           -1.42885933762422        3.05194001563028       -0.04536106904754
H           -2.63068479177163        2.24750763172337       -1.05977024146905
H           -2.76585949767360        2.18134086312749        0.73154223865076
H           -0.67943927044239       -3.44057649254068       -0.49168609938187
H           -2.41594359233546       -2.62743003183859       -0.28015419709436
H           -4.42076250404497       -3.05609013214453        0.52268673907515
H            1.66803900305104       -2.84741884247953        0.10079639730367
25
 energy: 233.231302427034 xtb: 6.6.1 (8d0f1dd)
C            3.41555050573367        1.30189145864290        0.12939727041382
N            2.45257719228190        0.25773141800731        0.07126023675064
C            2.78031461341796       -1.09994570938507        0.12769943636639
N            1.64159147214994       -1.82817838856652        0.06182399055026
C            0.52338397553690       -0.98753404712737       -0.01200283257161
C            1.02566788573423        0.32221773276100        0.00688702963949
C            0.10802591867273        1.37550571897875       -0.06160221793624
O            0.55188812429047        2.58209505125561       -0.07188251817294
N           -1.27441680033928        0.98546019862919       -0.07838893256087
C           -2.08759286173584        2.18067449651771       -0.11015404087675
C           -1.96736555840955       -0.49874520304169       -0.06128734187247
O           -3.15780500703181       -1.50186967104523       -0.02294041122117
N           -0.80181657103231       -1.38282441430144       -0.09849354640706
C           -1.22603664958222       -2.57187224061835       -0.20938965566218
H            3.93644412035344        1.32041126635085        1.08910774373520
H            4.16419031725641        1.20020983434939       -0.66462078879833
H            2.87817757215170        2.25196147101595       -0.00158312049863
H            3.76324579229016       -1.48338150429606        0.19456775747573
H           -1.44767095431230        3.06623116780387       -0.04197056095865
H           -2.62613889923550        2.23309224803700       -1.04545627575198
H           -2.75444315582877        2.16786420762032        0.73546580585226
H           -0.63633208613475       -3.39145802452373       -0.38271072639146
H           -2.35272890600395       -2.65296384414263       -0.20118249103088
H           -4.64965621542811       -3.00500538435043        0.38736319660735
H            1.65316084314105       -2.85253923639938        0.08712688946735
25
 energy: 275.878570105227 xtb: 6.6.1 (8d0f1dd)
C            3.42118241812658        1.28987505364929        0.12942315050754
N            2.44862866096087        0.25901768709632        0.07377562624463
C            2.77061043643644       -1.14071991851434        0.11551008959374
N            1.62210711145966       -1.78811465646278        0.05719405560597
C            0.56365280210767       -0.97314792615778       -0.00796936339526
C            1.06746911441445        0.32778854213399        0.00233932322035
C            0.12841716470810        1.42130786870186       -0.05683844375698
O            0.56607660790757        2.55953439190911       -0.06692354773193
N           -1.25663539635866        1.02620961284265       -0.07131838765362
C           -2.06455313748260        2.20319529746844       -0.10804866745447
C           -1.97720972952004       -0.46214040490674       -0.06532133615564
O           -3.24021416202599       -1.73751952568221       -0.00708857195850
N           -0.81154727357170       -1.34973442575445       -0.10396487042333
C           -1.17115447712643       -2.57685093422404       -0.20460092715792
H            3.93536486149483        1.32439785482006        1.09031040072486
H            4.17068617315448        1.19455435918888       -0.66149946952764
H            2.88260213679621        2.25013532345257       -0.01203681571691
H            3.76920680515233       -1.49407480931197        0.19169285196520
H           -1.45575409086425        3.09553379653016       -0.04404223122223
H           -2.62482034325207        2.23145623588191       -1.04001826233288
H           -2.74513982132061        2.17141965733896        0.73620844845688
H           -0.55525257254257       -3.40655941973027       -0.32485078663289
H           -2.28957294657150       -2.63759884409735       -0.14147370181514
H           -4.86510989109504       -2.96062590482462        0.26992761589341
H            1.62317421694837       -2.83831030917574        0.07664771687003
25
 energy: 324.269887911265 xtb: 6.6.1 (8d0f1dd)
C            3.42215282986048        1.27787798220998        0.12977951846315
N            2.43559738970918        0.24575005054266        0.08063412045829
C            2.74435302849285       -1.19024256143865        0.10031901760388
N            1.60086036984719       -1.73241191146023        0.05336474219821
C            0.62856331916275       -0.96927912279762       -0.00870157350494
C            1.13761964470634        0.31793030447504       -0.00675467126221
C            0.18806148942619        1.50396983883749       -0.04872998882424
O            0.56995823693151        2.52297097674378       -0.06151376516793
N           -1.22396919619413        1.07555359927864       -0.06350713270703
C           -2.03452257654162        2.22183062053657       -0.10609134201284
C           -1.96815119359731       -0.37493920748851       -0.07993558250012
O           -3.36459278500263       -2.04831594349836        0.00626352960936
N           -0.83447658436052       -1.28122027691973       -0.11095455446640
C           -1.15004307970502       -2.60470434216640       -0.18202426694288
H            3.93066722703748        1.32784235559782        1.09240075314356
H            4.17253348153320        1.18949899015887       -0.65615053068648
H            2.88276892339602        2.24767569444228       -0.02075861550408
H            3.77827261450820       -1.49960780732208        0.18985273600126
H           -1.46836539410927        3.12350624997151       -0.04590183306461
H           -2.62778735908527        2.22318945453645       -1.03662567848907
H           -2.74051692780104        2.16889247703238        0.73834587481404
H           -0.45754952335380       -3.42770579915469       -0.24794654444572
H           -2.23905326470533       -2.62277980426261       -0.10795622697857
H           -5.06492987727646       -2.88458159443365        0.15343637875776
H            1.59476387505719       -2.82167162124898        0.06618953165493
25