25
 energy: 0.000000000000 xtb: 6.6.1 (8d0f1dd)
C            3.23720132972391        1.16630909158653        0.08434468864950
N            2.29877796055224        0.07527476373246        0.03981602671198
C            2.58028186251803       -1.21425391179017        0.03006175752192
N            1.43813944744728       -1.93419254010258        0.00098261751768
C            0.39035684826767       -1.05887462812143       -0.00790371763344
C            0.93510047688824        0.21347817468824        0.01709077332874
C            0.09450143016486        1.40504290868848       -0.00410946993748
O            0.49712746915594        2.54126690785742       -0.00342325656480
N           -1.25076628431515        1.06271869620815       -0.03085477937476
C           -2.21907191394203        2.15522079838987       -0.05001256521996
C           -1.81739470187490       -0.20012724136556       -0.04692818139228
O           -2.99983858926755       -0.37846413507442       -0.07008877579474
N           -0.92618577614240       -1.30210203518959       -0.03682761236648
C           -1.46982251276835       -2.64643077634382       -0.06029819901142
H            3.71247229913541        1.21471443890471        1.06488839270555
H            4.00791460421487        1.03430799217987       -0.67357688121503
H            2.69909982127087        2.09770098766290       -0.09130154035862
H            3.56654087521359       -1.63682977417947        0.04233139674524
H           -1.67107945562430        3.09322822573871       -0.02552706696334
H           -2.82428927394145        2.09428605349656       -0.95318074103337
H           -2.87644002486466        2.07745706351925        0.81450059976605
H           -1.17061985538665       -3.19584861009707        0.83242224714061
H           -1.14560246782873       -3.17511580834413       -0.95688266944647
H           -2.55549768731684       -2.55659960601237       -0.07459039105944
H            1.38130842369251       -2.94313824728853       -0.01389874052104
25
 energy: -5.050456902029 xtb: 6.6.1 (8d0f1dd)
C            3.24984890392849        1.18346108036989        0.08968988650294
N            2.31277800594848        0.11008301577974        0.03540638227095
C            2.61848173216291       -1.23246116006280        0.03787091982946
N            1.43957464743726       -1.93137823487291        0.00790792058136
C            0.40638711050177       -1.06638282529930       -0.01250614543335
C            0.92369731901136        0.22703913810909        0.00718371978962
C            0.10758761868812        1.37301609246559       -0.01653533536659
O            0.47144444590556        2.55554927905438       -0.01715633687861
N           -1.28714070301787        1.02085021158348       -0.03749381228723
C           -2.21517921500743        2.13936452991591       -0.05772842513106
C           -1.83213595296475       -0.23463007153126       -0.04721049028322
O           -3.02381039401099       -0.48232964196666       -0.06104697768628
N           -0.93695386815365       -1.31827494303156       -0.03973571814655
C           -1.53003386570329       -2.63610407867567       -0.05747675920677
H            3.73234995201025        1.22860331921450        1.07117487793085
H            4.02079000112596        1.05261954643659       -0.67350120466192
H            2.71012862960611        2.11343186771069       -0.08224869317040
H            3.59627677053415       -1.64760282588757        0.05519750768372
H           -1.63926009765090        3.06499246673646       -0.02797169769988
H           -2.81261371294978        2.10790355072602       -0.96763832490489
H           -2.87186923166249        2.08863403770609        0.80811196817278
H           -1.12778262737815       -3.23361086621605        0.75758815667520
H           -1.28379618100185       -3.14059742953934       -0.98907713881184
H           -2.63412469073639       -2.53537325281064        0.03395740137451
H            1.39167871154815       -2.93393275071231        0.00345776753039
25
 energy: -0.540539131334 xtb: 6.6.1 (8d0f1dd)
C            3.25916525466622        1.19461411002105        0.09337557683897
N            2.32093711642096        0.12001072761965        0.03528261588609
C            2.63593988785111       -1.22393874005654        0.04600381086803
N            1.45837165530152       -1.92502149962996        0.01580214364809
C            0.41284011972694       -1.07379014187802       -0.01629447316107
C            0.92663429908996        0.22673021856268       -0.00386915540559
C            0.09595776435941        1.35481871351278       -0.03074529821862
O            0.44048300607616        2.54463650786920       -0.03649174728340
N           -1.30958516293120        0.98851716536390       -0.04508531757678
C           -2.21058600541584        2.12922937228251       -0.06646020085820
C           -1.85132640643091       -0.27604985542302       -0.04760633407571
O           -3.03344361375699       -0.58138914081818       -0.05411213568858
N           -0.93835870997971       -1.33942393705230       -0.03401820574074
C           -1.58187767978258       -2.63881576403728       -0.04848173014972
H            3.74705798721153        1.23794543957825        1.07355138563038
H            4.03093236486922        1.06781782683500       -0.67125683642042
H            2.72312575878098        2.12753552467083       -0.07356070633354
H            3.61530240159479       -1.64102577563821        0.07143493517524
H           -1.61393226399391        3.04411585667863       -0.03067126747456
H           -2.80015486607653        2.12278350916727       -0.98124618976466
H           -2.86694825100367        2.10049200566898        0.79924257569445
H           -1.08447117999138       -3.27940704363339        0.67575124003963
H           -1.42516829774692       -3.10460655291659       -1.01870931359670
H           -2.69505612899487       -2.53303961014798        0.15975589427141
H            1.41703711852992       -2.92712837436093        0.01815785427371
25
 energy: 6.888155027644 xtb: 6.6.1 (8d0f1dd)
C            3.26872219621927        1.20521234564324        0.09604103724185
N            2.32938709396809        0.12866272628611        0.03544922790565
C            2.65285597391739       -1.21633595178623        0.05732948229373
N            1.47682786088518       -1.92118362840051        0.02537316031483
C            0.41768342710751       -1.08570394577704       -0.01765114204516
C            0.93095985766443        0.21946380087469       -0.01195671054594
C            0.08482886885937        1.33151823881429       -0.04596257763846
O            0.41373978117563        2.52637834628714       -0.05764456095911
N           -1.33363696511408        0.95570779988537       -0.05317597089208
C           -2.20572628371139        2.12006155775546       -0.07518715762029
C           -1.87803344242723       -0.31533555425083       -0.05394577567626
O           -3.04776300459683       -0.67716701648891       -0.05889681135649
N           -0.94357853413869       -1.36270512925519       -0.02616419426254
C           -1.63099061203708       -2.65076713657498       -0.03471377695826
H            3.76148624496159        1.24841617837523        1.07490230231040
H            4.04207196671787        1.08100567140214       -0.66884581140578
H            2.73764376010426        2.14140345932728       -0.06823761552155
H            3.63404955170957       -1.63326653297005        0.09297027218384
H           -1.58912125509053        3.02363858220817       -0.03079147175134
H           -2.78581192849507        2.13931497275209       -0.99512962791478
H           -2.86378095909196        2.11217629425481        0.78885351808978
H           -1.04412233735865       -3.32937443129555        0.58239093399723
H           -1.56696107363343       -3.06693397917035       -1.03963206573443
H           -2.74694194771451       -2.55853267865240        0.28424696069586
H            1.44456158448772       -2.92289706271507        0.03242943041459
25
 energy: 15.827774609433 xtb: 6.6.1 (8d0f1dd)
C            3.27834171091924        1.21595018891055        0.09997666658416
N            2.33901452114267        0.13669926309617        0.03635929343775
C            2.67078733844555       -1.20810986880569        0.06743098116386
N            1.49696416198004       -1.91785868284433        0.03685107810755
C            0.42358229950778       -1.10026439619575       -0.00955576829538
C            0.93619816089452        0.21008999151464       -0.01167452216416
C            0.08539858738955        1.31648088441739       -0.05918797538714
O            0.40168107557776        2.51083606684001       -0.07123604101692
N           -1.35136390611399        0.92747274720558       -0.06410662621417
C           -2.19813316328191        2.11341427198364       -0.08441146282679
C           -1.89616413834797       -0.35334803379815       -0.07914090521184
O           -3.04976730901430       -0.76672195967067       -0.13236527287628
N           -0.94611424909233       -1.38912754181081       -0.00605241412595
C           -1.67370816484986       -2.67641829672204       -0.01994226513137
H            3.77713699784002        1.25869967142234        1.07690940962447
H            4.05213926836162        1.09679580632781       -0.66657540084715
H            2.75054434781236        2.15483108496569       -0.05957954547916
H            3.65341867517176       -1.62425638880586        0.11223519150273
H           -1.56407435157808        3.00615738335696       -0.03288818984141
H           -2.77238126051243        2.15695789682851       -1.00673662796650
H           -2.85615866091550        2.12483117330709        0.77978683240746
H           -1.01096988154239       -3.38145660333049        0.49021540549837
H           -1.70318851551369       -3.02723700748895       -1.05645572520353
H           -2.78854276302399       -2.65115570608689        0.38960938561874
H            1.47341437230752       -2.91913054334228        0.04682536014645
25
 energy: 22.189389151286 xtb: 6.6.1 (8d0f1dd)
C            3.28773360357832        1.22770952327534        0.10405331051262
N            2.34863247363535        0.14562310918469        0.03999363663805
C            2.69124667179885       -1.19777378614707        0.07630678911715
N            1.52011613341522       -1.91472392842656        0.04923646131194
C            0.43206465705404       -1.11562783816076        0.00711594030888
C            0.94041562479018        0.20062958098967        0.00032728970713
C            0.08777297384628        1.30242722614989       -0.06624271775277
O            0.40227690774109        2.49416141839892       -0.08147856813566
N           -1.35318580341748        0.91290234034167       -0.06828359319942
C           -2.18738288189953        2.10952223732122       -0.09141425095788
C           -1.88094145068007       -0.36898053178856       -0.04104171976439
O           -3.03403239936191       -0.78111865711678       -0.04506719364630
N           -0.94115142706702       -1.41326776772397        0.01928672386262
C           -1.71260252584059       -2.70251999499912       -0.00073288369620
H            3.79496881851059        1.26941142613270        1.07771645246299
H            4.05965250930830        1.11441351690379       -0.66655422607116
H            2.76152002818078        2.16854249962543       -0.04901152460894
H            3.67560707115295       -1.61172695872558        0.12606641603348
H           -1.53928682139138        2.99232704662623       -0.03976462402584
H           -2.75740922375210        2.16785349901256       -1.01595882640614
H           -2.84622679700265        2.13794491737108        0.77177494706015
H           -1.00077556919206       -3.42627797386716        0.39396617491465
H           -1.83469636757166       -2.98601891125807       -1.05543054277288
H           -2.82938279428525       -2.72949520825633        0.50083879490842
H            1.50632940919467       -2.91589862674917        0.05936738357353
25
 energy: 29.125305742118 xtb: 6.6.1 (8d0f1dd)
C            3.29662814102633        1.23967454523339        0.11029236300161
N            2.35121504860426        0.16038481388952        0.04294615721917
C            2.70329462200678       -1.18061900617344        0.08357885620141
N            1.53720564332495       -1.90680402179262        0.05685131653338
C            0.43584135265037       -1.12287173377900        0.02118868343839
C            0.93476955082992        0.20183629386155        0.01129921004980
C            0.07436963315471        1.29852210504952       -0.07132412239271
O            0.40131999163547        2.48864718716173       -0.11335976119693
N           -1.36198241156938        0.90757917897559       -0.07066550065536
C           -2.18036347159554        2.11322981722427       -0.09436038665297
C           -1.87358510127672       -0.37294046067592        0.02622265266455
O           -3.02775431079727       -0.77361302660180        0.11150022725666
N           -0.94190848212154       -1.42830546606752        0.04005293012819
C           -1.75277216044682       -2.73019061866516       -0.00592073033511
H            3.80852256547055        1.27728076732893        1.08284980868374
H            4.07044908366951        1.12842251379082       -0.66019149764759
H            2.77704114716734        2.18438352428353       -0.03890086398967
H            3.69070003722950       -1.59321398319091        0.14578287383036
H           -1.51437087895122        2.98217413457569       -0.04288984027430
H           -2.74517851610615        2.18519615240031       -1.02109178892175
H           -2.83673457382091        2.15422568923633        0.76906603836311
H           -1.00138587119737       -3.46110100287903        0.28349539777673
H           -1.95252069418233       -2.94143818060932       -1.06483755652665
H           -2.87057731922599       -2.84962160292435        0.54782987822483
H            1.53674188524701       -2.90876494907605        0.06410494620881
25
 energy: 40.529686123624 xtb: 6.6.1 (8d0f1dd)
C            3.30762341496197        1.25331605637799        0.11354684962787
N            2.35905565571948        0.17631845388851        0.04653320626114
C            2.71498427101536       -1.16131831293522        0.08709558172919
N            1.55665078131119       -1.89876667766299        0.06778621103484
C            0.44774306815098       -1.12511511625710        0.03833808748739
C            0.94192331459086        0.20560851372253        0.02243438432696
C            0.07071370654651        1.29610981618280       -0.06483175775617
O            0.41133194350850        2.48568160694321       -0.12935435912726
N           -1.35900822416052        0.89687438367335       -0.07521888333969
C           -2.16903418816962        2.11024273019067       -0.10054557435122
C           -1.86222928302283       -0.38255467780030        0.05325296448406
O           -3.01234322529822       -0.80792281269296        0.11734975209494
N           -0.92881653293656       -1.43731260923117        0.05281360594990
C           -1.75747716038616       -2.73975179555071       -0.04252524105723
H            3.82689832072347        1.28755283886313        1.08287609439337
H            4.07869446408814        1.14505189765319       -0.66090895202299
H            2.79046088117631        2.19987577919952       -0.02990718601754
H            3.70486476618319       -1.57305211590947        0.16027221459176
H           -1.49043875349262        2.96970535719685       -0.04149582364148
H           -2.72646695146034        2.20094744992971       -1.02962186044470
H           -2.83026607669779        2.16287516494441        0.75881366085886
H           -0.99797416843078       -3.48551636897466        0.17317564721536
H           -2.05439362251778       -2.88737021523787       -1.08070177423561
H           -2.93315866474334       -2.96670851910663        0.52685504276323
H            1.56709497265113       -2.90145802145302        0.06965960478281
25
 energy: 62.687367945617 xtb: 6.6.1 (8d0f1dd)
C            3.31880279461236        1.26623553239999        0.11660011831605
N            2.36631948745283        0.19318906950138        0.04946552560286
C            2.72461370059956       -1.14163355693581        0.09165329480284
N            1.57604689534943       -1.89113930485586        0.08012910468387
C            0.46428361336644       -1.12364624853500        0.05527240172539
C            0.95063992557936        0.20959454045363        0.02892627787314
C            0.06481335900114        1.29256594674861       -0.05435228559595
O            0.42351167052610        2.47962493381452       -0.13242955392297
N           -1.35494517828145        0.89097478128572       -0.06443893541557
C           -2.15792399975310        2.10980992675998       -0.10660124366597
C           -1.85234207172912       -0.39983471631225        0.06687439010864
O           -2.99217183954524       -0.88798615470670        0.07525444998557
N           -0.90748248408154       -1.44272124299427        0.05560825102984
C           -1.73748044782729       -2.73638724417969       -0.07461713499866
H            3.84477704300359        1.29533528517190        1.08265941346094
H            4.08685728442624        1.15914707176829       -0.66163849617336
H            2.80480887928454        2.21490792082830       -0.02107302245054
H            3.71706571858014       -1.54910928162145        0.17193007235213
H           -1.46377592445632        2.95749226571877       -0.04228600083123
H           -2.70688600477183        2.21708385755710       -1.03839682739006
H           -2.82439664216222        2.17853874434538        0.74712981355126
H           -0.98640859211817       -3.50496347310595        0.06577459066468
H           -2.14911712902717       -2.82732818367547       -1.06864893005854
H           -3.05428015094581       -3.06928482212807        0.51649153521445
H            1.59491740498580       -2.89401410545284        0.07497613993703
25
 energy: 101.391282871763 xtb: 6.6.1 (8d0f1dd)
C            3.33037843689483        1.27876239363614        0.12299126187849
N            2.37751754189021        0.20170267839999        0.05681025380212
C            2.73039392610226       -1.11640925101454        0.10486292881919
N            1.60238573084508       -1.88247388510143        0.08758864188249
C            0.48545955099771       -1.11451839164262        0.04573076989617
C            0.96617201495026        0.21643032629787        0.02620482322627
C            0.05062060671894        1.28979356820370       -0.04583026249438
O            0.42220318749197        2.47061229871139       -0.11121455869831
N           -1.34604904351056        0.88950468025636       -0.05429504593665
C           -2.15084341884806        2.11054853382545       -0.11259891269703
C           -1.83993557794040       -0.42538820000029        0.05423044174410
O           -2.96270872922298       -0.97052997262159        0.05550197935122
N           -0.85839730066728       -1.44362076537236        0.01437929947008
C           -1.60883096757402       -2.69523017693849       -0.14637401396638
H            3.86038708822270        1.30240206477552        1.08539311216399
H            4.09557063499617        1.17362564446145       -0.65708760472797
H            2.81951434357077        2.23012294421964       -0.00964147624888
H            3.72489087817081       -1.51962450025440        0.18075752068499
H           -1.44268523052470        2.94581645265630       -0.03736548482375
H           -2.68873969065332        2.23644845658957       -1.04724939545816
H           -2.82397130280483        2.18207467021230        0.73450816232584
H           -0.94176024602792       -3.52774738396822       -0.05293640215204
H           -2.24520109964772       -2.76291639769496       -1.00553059121521
H           -3.40421939971563       -3.20641430748198        0.54271721124809
H            1.62399469291186       -2.88632322324614        0.08070900492580
25
 energy: 118.531367728133 xtb: 6.6.1 (8d0f1dd)
C            3.34144638235923        1.28768014735433        0.12560828252702
N            2.38609084600197        0.20449481130327        0.07045518659070
C            2.73278944116855       -1.10274917843087        0.13432575912335
N            1.61778270281097       -1.87793844154958        0.10355067707471
C            0.49384141059942       -1.10673848608228        0.03550397177271
C            0.98036860357251        0.22232851087995        0.02250537590853
C            0.05073412314727        1.28755427693636       -0.03930882950574
O            0.41968501817002        2.46693150804124       -0.09494600771986
N           -1.34268283089381        0.88407365261563       -0.04330488029312
C           -2.14391713530964        2.10808086276718       -0.11962525305917
C           -1.86565806052014       -0.44397631753337        0.02993575804506
O           -2.97008620006487       -1.04423859120190        0.02130887738149
N           -0.83973308620388       -1.44235160639215       -0.02157139039988
C           -1.53324881399648       -2.66616136952627       -0.21795544520666
H            3.87898829035398        1.31321569255217        1.08347255519788
H            4.10349385587955        1.18946290829874       -0.65891560491140
H            2.83205428131041        2.24112428673933       -0.00275181715659
H            3.73257696500521       -1.49489854155258        0.19446569798644
H           -1.42820862400895        2.93413647486402       -0.03080838874034
H           -2.66790235563339        2.24088395699682       -1.06090845544087
H           -2.83065896127426        2.16853286457441        0.71795168824294
H           -0.93280683925667       -3.53872228720639       -0.16873433744322
H           -2.34166740000008       -2.69872790269244       -0.92891561203146
H           -3.66921725080718       -3.26484066407258        0.49897301384465
H            1.65091778775586       -2.88115462034030        0.09438997629560
25
 energy: 131.712372898416 xtb: 6.6.1 (8d0f1dd)
C            3.35256264294605        1.29792613454967        0.12882609019518
N            2.39929496734374        0.22045915235545        0.07954548352280
C            2.75113056979741       -1.11458226498660        0.16228280054370
N            1.60707552855031       -1.87980103410719        0.12001046317033
C            0.51054749118136       -1.08713808810108        0.01772325947777
C            1.00570613156409        0.23150303126807        0.00914484531930
C            0.10556920016562        1.33196323558246       -0.04615608054783
O            0.48120895924343        2.51189275164572       -0.10404841474946
N           -1.26104465886079        0.94680762629114       -0.04273681951684
C           -2.11505439575090        2.12456966869174       -0.11829281519322
C           -1.77829324885590       -0.29084139686167       -0.01838317204236
O           -3.16460702066674       -2.02290460315384        0.21764850858227
N           -0.86936160566044       -1.34435505978097       -0.04371042533055
C           -1.66965411669038       -2.52553495490697       -0.25199389398609
H            3.89786950554796        1.32378632312573        1.08440202849375
H            4.11633268513258        1.20721571738669       -0.65797409952230
H            2.84599891352422        2.25396810603020        0.00601124334237
H            3.74858173144340       -1.48254364241176        0.20850094375600
H           -1.42091835171710        2.96249118701349       -0.02737572133017
H           -2.64180641297869        2.22199776904259       -1.06623993944122
H           -2.82495868071863        2.15026072045215        0.70402583145243
H           -1.06372406727596       -3.45901068044347       -0.18009160799711
H           -2.32418823653418       -2.61744804230918       -1.08929651166228
H           -3.76260652742608       -2.99204828376450        0.41269023465835
H            1.66410448380156       -2.87953431270485        0.10900185927747
25
 energy: 145.754910387376 xtb: 6.6.1 (8d0f1dd)
C            3.36777266460514        1.30137389586829        0.13119491626249
N            2.41066408436266        0.21324519020488        0.08941473180377
C            2.74665000782967       -1.11085886765238        0.17221176188799
N            1.61219256528681       -1.87397400442168        0.13344531154788
C            0.51300118854177       -1.07020894979195        0.02431147420686
C            1.01710200735224        0.24495279828416        0.00888109328206
C            0.11248374970579        1.34807516701302       -0.04313507369808
O            0.48743918668087        2.52601169680422       -0.09842639051707
N           -1.25243176272552        0.94877069329173       -0.03868216183648
C           -2.11567351364792        2.12505629683555       -0.11944164390247
C           -1.78440578533767       -0.29983518130239       -0.03821090204525
O           -3.35560079143376       -2.05856518549737        0.21737031993418
N           -0.85362073186262       -1.33531484805153       -0.05776671514588
C           -1.53436765401606       -2.53063246059382       -0.31434180694868
H            3.91858612030902        1.32694951910515        1.08064604140379
H            4.12501524192466        1.22071500991559       -0.66047732450694
H            2.86270842201706        2.26045165172071        0.01489097874520
H            3.74982661207032       -1.46509115046415        0.22606450062654
H           -1.43743544345033        2.97715711362389       -0.04045122553454
H           -2.63996228391042        2.20550667493213       -1.07304009672750
H           -2.83265446972666        2.14505603316961        0.69269905524237
H           -0.96530125561669       -3.45155610273682       -0.31421286030343
H           -2.39716465061575       -2.49622807633595       -0.95736274992460
H           -3.93380899303649       -2.95862576304526        0.40365515064189
H            1.67116593009298       -2.87586969575100        0.14205492375078
25
 energy: 149.424715636142 xtb: 6.6.1 (8d0f1dd)
C            3.37609858721358        1.30082385830919        0.12816920788146
N            2.42009275164904        0.19942538394622        0.09383231642714
C            2.74390397801440       -1.11652132826103        0.17339896303111
N            1.61400142544584       -1.87091937076929        0.13168961126248
C            0.51505681937567       -1.05359980660786        0.03212365398794
C            1.02747348545370        0.26243124925225        0.00889221387684
C            0.12204529513572        1.36358967072581       -0.03824832876985
O            0.49114878854838        2.54496083238494       -0.08799711446210
N           -1.25701663825616        0.94707134816907       -0.04964172237769
C           -2.11679514843598        2.12637435754254       -0.12705453336274
C           -1.79504803088526       -0.30370882209265       -0.05955055877621
O           -3.52865596741340       -2.10091110966680        0.14759511342006
N           -0.83317614379887       -1.33305546435287       -0.07409451013351
C           -1.42751748213286       -2.51914182765389       -0.37641112175597
H            3.93605690827342        1.31764021656998        1.06953445037804
H            4.12065963992245        1.23251312701525       -0.67455139222868
H            2.87050617197789        2.26361877902910        0.02821400616395
H            3.74966556284251       -1.46337469388708        0.24714932840203
H           -1.45233093850517        2.98927142434338       -0.06037593487927
H           -2.64071567338983        2.18383798288264       -1.08353659327893
H           -2.84011960463795        2.14007133566026        0.67782484701709
H           -0.88237837773729       -3.43219494026157       -0.43408901595965
H           -2.45371521403466       -2.39297339704471       -0.78264703688612
H           -4.12391915107502       -2.94179543243811        0.36970706917277
H            1.66184749002291       -2.87564264168995        0.16668015578077
25
 energy: 146.636508959822 xtb: 6.6.1 (8d0f1dd)
C            3.37245505355373        1.29598865917521        0.11754123684980
N            2.42746629461931        0.18499990581894        0.09425773908198
C            2.74491186691246       -1.13047172273248        0.16550830362493
N            1.61155959983628       -1.86822767152988        0.12493661393194
C            0.51746534248945       -1.04031047885507        0.03923347933986
C            1.03291361461651        0.27334301753418        0.00893835363505
C            0.13970021005795        1.37636848431375       -0.04015815475606
O            0.50059978008258        2.56212346235246       -0.08371048343243
N           -1.24857458957347        0.95500175785199       -0.06827418308999
C           -2.11338260837754        2.13248421009276       -0.13356643315577
C           -1.78577565785195       -0.29717014465648       -0.08258889295164
O           -3.65088789869917       -2.17242020568830        0.10443586087728
N           -0.81849517469754       -1.32772133549966       -0.09505433414016
C           -1.37791728075191       -2.50714621910992       -0.40151980095827
H            3.93549479827265        1.30643646419793        1.05554877512588
H            4.10845787128121        1.23034952109825       -0.69096495976416
H            2.85441861703583        2.25299279528104        0.02013501327841
H            3.74990908654428       -1.49050572303594        0.25128702496928
H           -1.46274529606827        3.00591040510121       -0.07592722390086
H           -2.64079657084770        2.17215745720598       -1.09023098495699
H           -2.83570230344298        2.13395029750492        0.67380571528614
H           -0.81479045878526       -3.39436442096548       -0.53633238581536
H           -2.48202423599212       -2.35259958401274       -0.62523678512755
H           -4.29719147210662       -2.95623256677659        0.33552496952429
H            1.63938405305453       -2.87524389752995        0.18858826634181
25