72
 energy: 0.000000000000 xtb: 6.6.1 (8d0f1dd)
N           -1.47310934822924        2.74401318561852        2.22063942287560
C           -1.55658894218425        2.16490305624665        1.13274284460745
C           -2.74549225258129        2.05621251263064        0.23826250649470
C           -3.31377583855761        0.64333417511334        0.32332515650284
C           -4.30230195924506        0.24487112428158       -0.58026167086503
C           -4.85238808050968       -1.02286499940159       -0.53363593669082
O           -5.81420026757557       -1.48606047972767       -1.36157895357670
C           -6.39655692584623       -0.60827005826649       -2.29568495601309
C           -4.39972542350640       -1.94646120241305        0.44396933240983
O           -4.98748357557592       -3.16146026488900        0.41085995818162
C           -4.66362171172287       -4.10093865802695        1.40909140816864
C           -3.42072545213514       -1.54561399150247        1.33436558640148
C           -2.88302826362110       -0.26315802838497        1.27400162590187
C           -2.19303818453636        2.30467021687947       -1.18742988123374
C           -1.26651549989641        1.17243380322503       -1.65249445018642
C            0.01082525039567        1.09745464658138       -0.89354811789923
N            0.61779399208289       -0.02034948241203       -0.57705527866251
C            2.00145228921113       -0.02376006609561       -0.15611401051620
C            2.92554961797610       -0.53865287672537       -1.27700100652360
C            4.35756883501756       -0.43050761225877       -0.83075552032494
C            5.07346182539911        0.73206415878124       -1.03980975472950
C            6.38628045899965        0.84224449235903       -0.60344828301384
C            7.00047329721665       -0.20824758267940        0.05722314949100
O            8.26703733840855       -0.21011315050632        0.52410948507466
C            9.06912311989339        0.92943609656965        0.31863060963839
C            6.27040022445068       -1.40439766990411        0.28033468609137
O            6.94830004375713       -2.38012947787858        0.92752007684741
C            6.31537376337817       -3.61583233633369        1.15217722400438
C            4.96302840674480       -1.49347485723979       -0.16064431849589
C           -0.05511211878686       -1.29906259857679       -0.62085692079872
C           -3.86758072907722        3.07992629005348        0.58498065642721
C           -4.49286201346546        2.77383518785172        1.94313307512182
C           -3.39165211343248        4.52917708609625        0.54797528556046
H           -4.66030069703099        0.94509076131725       -1.31640581036773
H           -6.85037992114187        0.25803164586058       -1.80468862056629
H           -7.17287509152171       -1.18600121846629       -2.79318183475679
H           -5.66836870040540       -0.26952968819383       -3.04040283452035
H           -4.88416765986127       -3.71589494995018        2.40913564538747
H           -5.29223619720187       -4.96637504833431        1.20969248126828
H           -3.61139846644506       -4.39919876145526        1.35529370415983
H           -3.07077825100221       -2.21868786295666        2.10002682176568
H           -2.14562774333496        0.02067850888151        2.01001363031684
H           -3.02188903413801        2.38238034416975       -1.88813562572432
H           -1.65198546223364        3.25146730843841       -1.20556295755141
H           -1.81103391047759        0.23006526775522       -1.62116316669324
H           -0.99335697743926        1.37490224954061       -2.69443281971844
H           -0.67628070635666        1.65183902374723        0.61785732877701
H            0.63525847086258        1.98466388206871       -0.92314029755375
H            2.11132572081740       -0.65949698961381        0.72532619960637
H            2.30680494458141        0.98978260887088        0.11078973822125
H            2.76694224489122        0.06750735773687       -2.17075272340394
H            2.67954606229959       -1.57455642411728       -1.51167757545099
H            4.62170041431221        1.56295626549351       -1.56123593485311
H            6.92357738865082        1.75715832247601       -0.79119604059515
H            8.65159193263071        1.81001840117181        0.81701562739969
H            9.20136256512460        1.14042868409438       -0.74698998879646
H           10.03428931104811        0.69003246578081        0.76064945022918
H            7.05567240429544       -4.23621211097668        1.65347581279537
H            5.43848051513375       -3.50813590722545        1.79970582482858
H            6.02060097762632       -4.09420535105165        0.21253284608183
H            4.40102799328555       -2.40127288651695       -0.00490198294521
H           -0.22071301762289       -1.61775598610935       -1.65116024301020
H           -1.01972267469312       -1.24102728946113       -0.10935207845464
H            0.55899959333766       -2.04486104898380       -0.12333731565713
H           -4.63991918782192        2.95501120214274       -0.18098089750912
H           -3.76095251366987        2.90314731895452        2.73380846416528
H           -4.87457659255110        1.75695657819473        1.97884621460846
H           -5.31925601899505        3.45579242388173        2.12325583951056
H           -2.60025614255587        4.69225089676674        1.27368930043085
H           -3.03987434616939        4.81897697030947       -0.43870979129779
H           -4.22191779840287        5.18069696155015        0.80616701440619
H           -0.59832439338922        2.77744720721660        2.72959009765665
72
 energy: -4.374962036803 xtb: 6.6.1 (8d0f1dd)
N           -1.49855439665714        2.78635573300604        2.23773740989333
C           -1.56941991543549        2.16140984579362        1.15608214006994
C           -2.75439764477695        2.06423702839053        0.24751933532918
C           -3.32203890027406        0.65219142012060        0.32877889903704
C           -4.30750408017203        0.24839069312033       -0.57510120904734
C           -4.85312512006548       -1.02077461421760       -0.53059928790771
O           -5.81892654446637       -1.48863053706173       -1.36219402635735
C           -6.39791145852156       -0.60995409121294       -2.29544397159744
C           -4.40154653630791       -1.94176676354929        0.44555615767328
O           -4.99164489546646       -3.16352100296511        0.41220363289858
C           -4.66356802736358       -4.09892816532713        1.41045736424783
C           -3.42654789904967       -1.53867064215513        1.33784452239364
C           -2.89282380515572       -0.25471581039399        1.27926926643924
C           -2.20385724942082        2.30870406369433       -1.18168714638016
C           -1.27304165408021        1.19155449757436       -1.67635402645540
C            0.00084755900722        1.13097660963597       -0.90438499265744
N            0.62720005990915       -0.02901513757403       -0.57932400632253
C            2.00282283316286       -0.02228485537244       -0.17209395707221
C            2.93322975066128       -0.51948113146236       -1.29612757546117
C            4.36121645735289       -0.42320360762069       -0.85230448851880
C            5.07884139364371        0.74106402849347       -1.05047426654080
C            6.38840072570893        0.84272798194660       -0.60717255035994
C            6.99554600332192       -0.21610156376198        0.05113291118386
O            8.27056721878243       -0.21656429000011        0.51922805126072
C            9.06786041493256        0.92524012651611        0.31474189003911
C            6.26538384604249       -1.41685858468870        0.27331075840019
O            6.95064144064370       -2.40169792237825        0.92845570343792
C            6.38909661478281       -3.67775740524327        1.20010889797604
C            4.96057438331111       -1.49169172568528       -0.17850979044468
C           -0.05040128964093       -1.29733681421420       -0.63896192449866
C           -3.88340954225618        3.07954141185347        0.58501653498325
C           -4.50714108779333        2.77518224771991        1.94491945529108
C           -3.41063134515884        4.53078856288818        0.55108813993282
H           -4.66164457147235        0.94597655107101       -1.31598630089667
H           -6.85183050902581        0.25718331977662       -1.80494364076024
H           -7.17401194246003       -1.18758598700461       -2.79456829125865
H           -5.66876571321913       -0.26946118478397       -3.03855481084837
H           -4.88411673340371       -3.71388725816529        2.41113793944586
H           -5.28982302710303       -4.96684965685929        1.21188932684013
H           -3.61009277063976       -4.39374571819180        1.35771390487518
H           -3.07291197482495       -2.21370005071323        2.10126865576486
H           -2.15082229120530        0.02890941860430        2.00960094809567
H           -3.03550110565848        2.39694503545119       -1.88097987305430
H           -1.65848337194805        3.25361212899819       -1.19578631436382
H           -1.81073653579047        0.24507626724844       -1.62906096138021
H           -1.03220133362540        1.39322180091677       -2.72894224001942
H           -0.69240762058258        1.65366287909163        0.65479988054966
H            0.63448565695768        2.00577950922524       -0.95752252120914
H            2.11970098703675       -0.65804268592127        0.70953625175637
H            2.29403850878978        0.99518510468709        0.09955136890292
H            2.76644611665913        0.09847674378405       -2.18041313290580
H            2.67824785705821       -1.55070513609230       -1.54028693566970
H            4.62864982853207        1.57729153913012       -1.56641717161201
H            6.92927870006233        1.75855762343720       -0.79078581628113
H            8.65066439696640        1.80650018484772        0.81358199990812
H            9.20200654794372        1.14091425211103       -0.75046108440219
H           10.03351490384140        0.68642934959613        0.75698527665531
H            7.16125942711110       -4.26519494200778        1.70182517664941
H            5.52250541134735       -3.61726676195116        1.86916091617466
H            6.10219502373936       -4.20519403165720        0.28331510729067
H            4.38965300233454       -2.39346449800327       -0.02602455088528
H           -0.22345402306586       -1.60797460871920       -1.67390118225010
H           -1.01459883116638       -1.23932651374616       -0.12575959041635
H            0.56329797376803       -2.04705278227939       -0.14765981858072
H           -4.65747154078745        2.95685031138559       -0.18105490684721
H           -3.76918791269121        2.90411828985799        2.73044019037152
H           -4.88296521584306        1.75558896901543        1.98035712502572
H           -5.33640206964344        3.45485838883764        2.12770074926574
H           -2.61730013676923        4.68985088216050        1.27562786688110
H           -3.05570192447596        4.81863237761456       -0.43536906698816
H           -4.24203528236051        5.18329234689349        0.80860019033982
H           -0.61731641670434        2.79242072855766        2.74115401743134
72
 energy: -0.562803523551 xtb: 6.6.1 (8d0f1dd)
N           -1.53936914379780        2.84775067410052        2.25154063000554
C           -1.58420744451015        2.16440640146208        1.18189949124678
C           -2.76837628710797        2.07538258589999        0.25876473288426
C           -3.33240695532310        0.66279851206979        0.33385510679808
C           -4.31545373244192        0.25281224981038       -0.56897994299923
C           -4.85493680795889       -1.01776730757800       -0.52560035353101
O           -5.82618482803748       -1.49200943022502       -1.36278682343543
C           -6.39990590574859       -0.61253654619299       -2.29477611193412
C           -4.40488944701497       -1.93451868629416        0.44847325458408
O           -4.99807551475657       -3.16598433801269        0.41523170998466
C           -4.66323305560616       -4.09510753672265        1.41289080907637
C           -3.43483436008331       -1.52952447953285        1.34341573276773
C           -2.90636795565157       -0.24444853065153        1.28593770370300
C           -2.22030308522757        2.32128903796808       -1.17364396283547
C           -1.28723064503151        1.21564253598416       -1.69740048736433
C           -0.01435577459189        1.17601114008162       -0.92099067156571
N            0.63475247689029       -0.03259954397068       -0.58868439280926
C            1.99999662522548       -0.01058755592174       -0.19882714871591
C            2.94175943863196       -0.48682945148391       -1.32599265769383
C            4.36437492857908       -0.41004049817027       -0.88044722875347
C            5.08728010877447        0.75398374850508       -1.06557632937049
C            6.39381822420848        0.83963322362571       -0.61264494678656
C            6.98809783535140       -0.23206396197383        0.04135154827081
O            8.27489319654794       -0.22665450715238        0.50979417500573
C            9.06512584458893        0.91826801653462        0.30806257709537
C            6.25659456181839       -1.43905886905410        0.26164805369496
O            6.95048437138293       -2.43771176398437        0.92812976720614
C            6.50677673805523       -3.77795516559733        1.27661757753675
C            4.95510200132312       -1.48808425018005       -0.20588048065655
C           -0.04689281377013       -1.28730240731327       -0.67242174217278
C           -3.90515262759595        3.07933244236278        0.58709698153535
C           -4.52956934131876        2.77568659731355        1.94816918457345
C           -3.44059118423288        4.53475821599517        0.55540159796290
H           -4.66525430289344        0.94738380028294       -1.31546937357348
H           -6.85509043514144        0.25557569883068       -1.80555582119778
H           -7.17548564092828       -1.18992139486175       -2.79651729701224
H           -5.66979520586719       -0.26966389042288       -3.03614035792962
H           -4.88451019592559       -3.71115393560731        2.41477935923640
H           -5.28542176292236       -4.96709918060936        1.21574422501638
H           -3.60795100657089       -4.38525413688329        1.36180703967057
H           -3.07709403177094       -2.20606928600490        2.10479018343668
H           -2.16101491918404        0.04076618366685        2.01136278537849
H           -3.05750323893423        2.42355617727745       -1.86840660344782
H           -1.66904659653092        3.26375945827432       -1.18058277901158
H           -1.81370754455302        0.26235891352311       -1.63695932124679
H           -1.08768104786644        1.42041264892418       -2.76204999146905
H           -0.71708458634363        1.65145481204102        0.71165600053455
H            0.63434912343657        2.03079984590626       -0.99980103297376
H            2.13223081234309       -0.65096097030381        0.68094539174751
H            2.27584641692031        1.00975256336563        0.08341406685783
H            2.76820882534309        0.15019756204868       -2.19631556213555
H            2.67399679645794       -1.51058666811193       -1.58958500844575
H            4.64090410032906        1.59858963888907       -1.57441191399846
H            6.93981603769408        1.75707490579036       -0.78848380332949
H            8.64919119511483        1.80042581558091        0.80828517650163
H            9.20341831159489        1.14134908472618       -0.75620832564822
H           10.03142990415430        0.67999585594442        0.75085087610788
H            7.33882179634970       -4.30157545373322        1.77809630845106
H            5.66118210778836       -3.79412666977767        1.98382378009966
H            6.23737452319763       -4.38670165177143        0.39828833885984
H            4.37177688974783       -2.38315527252238       -0.06005007250620
H           -0.22933382238597       -1.58941462298654       -1.71249547163329
H           -1.00958273081663       -1.23725380120116       -0.15475197397343
H            0.56850741684583       -2.04375276869376       -0.19173392811516
H           -4.68056294408955        2.95677475894010       -0.17947254128588
H           -3.78568703856131        2.90653945124188        2.72777414223077
H           -4.89816353846609        1.75281987491787        1.98404424831590
H           -5.36254764397484        3.45166888621533        2.13306310361479
H           -2.64624031398223        4.68957509809528        1.27935301281295
H           -3.08241826350402        4.82069106002791       -0.43076396222386
H           -4.27453877969470        5.18609680020725        0.81191402227048
H           -0.64615931109914        2.81139202914505        2.74462225916653
72
 energy: 12.868885896175 xtb: 6.6.1 (8d0f1dd)
N           -1.58277115517450        2.90356803914373        2.26449642490090
C           -1.59730498164133        2.17165151087683        1.20480617948119
C           -2.78310641255842        2.08673175915667        0.26938666690381
C           -3.34226716844692        0.67281206750413        0.33800343132766
C           -4.32341463630036        0.25712852816536       -0.56355624653562
C           -4.85680151020917       -1.01477307821593       -0.52033576706918
O           -5.83350595261939       -1.49522449248240       -1.36324224628496
C           -6.40193780171188       -0.61536003391181       -2.29385581151089
C           -4.40833055646249       -1.92701214456684        0.45169021846983
O           -5.00453480740553       -3.16824728027279        0.41894426260093
C           -4.66278611917301       -4.09087481725981        1.41562848088280
C           -3.44275223758365       -1.52074286638924        1.34934144776734
C           -2.91948328494369       -0.23486320097893        1.29228257938205
C           -2.23750933429052        2.33615308288554       -1.16592449744308
C           -1.30362030045547        1.23907921395007       -1.71509344205436
C           -0.03067758364585        1.22107793327643       -0.94102988430144
N            0.64020982487467       -0.03408175591563       -0.59966452567328
C            1.99564920529016        0.00428591852800       -0.22625543528532
C            2.94924171286738       -0.45189053203155       -1.35703968437079
C            4.36674427177432       -0.39458331399357       -0.90797702295396
C            5.09617807850669        0.76804266944792       -1.08092352386171
C            6.40026181527025        0.83533042339025       -0.61804033557866
C            6.98060722649039       -0.24996281790094        0.03161451764714
O            8.27937615054876       -0.23635318256866        0.49940117710861
C            9.06229627189172        0.91132678169978        0.30085133198590
C            6.24713436086784       -1.46331919349853        0.25010492848138
O            6.94656586945053       -2.47969104680449        0.92793271043611
C            6.62811702574675       -3.88536845217273        1.35684394412024
C            4.94892810640571       -1.48235987078948       -0.23414498562096
C           -0.04424066969815       -1.27529587121533       -0.70804164947795
C           -3.92684966240100        3.07938511978518        0.59011660538193
C           -4.55269572103152        2.77571808968781        1.95188790876778
C           -3.47148734322369        4.53933862600292        0.55964132071240
H           -4.66951597765016        0.94897761851144       -1.31500444951236
H           -6.85894266445793        0.25366083233903       -1.80625868136401
H           -7.17692203649978       -1.19250898584043       -2.79830014466176
H           -5.67113963459388       -0.27015125373314       -3.03384480946326
H           -4.88509477970552       -3.70857351001865        2.41890840670739
H           -5.28062504109063       -4.96718099533293        1.22003488501605
H           -3.60571290362330       -4.37659351144959        1.36634474097199
H           -3.08157289281211       -2.19812034513818        2.10922399418008
H           -2.17203467545537        0.05278832744068        2.01409668789375
H           -3.08018463513133        2.45171940538776       -1.85552081333809
H           -1.68021487462705        3.27581959897909       -1.16534055654314
H           -1.81822952747304        0.27902390496610       -1.64428957191891
H           -1.14251426897727        1.44767781990019       -2.79005337761649
H           -0.74200151660176        1.65095179673517        0.76971908602047
H            0.63368525792429        2.05487049174138       -1.03932262036059
H            2.14541917248526       -0.64211223573879        0.65098937127459
H            2.25803496790826        1.02642688462988        0.06711992163888
H            2.77104485099837        0.20470458066514       -2.21329576963025
H            2.66896011626083       -1.46781904586598       -1.64182394533563
H            4.65429084771780        1.62114770727286       -1.58304441911238
H            6.95118257459758        1.75442010504429       -0.78603789132467
H            8.64792980531187        1.79436835839033        0.80273488879290
H            9.20526303979924        1.14197692117991       -0.76237632526371
H           10.02916930305871        0.67326388307369        0.74435030846708
H            7.52202276991782       -4.33862628547505        1.85625504010099
H            5.80902765966583       -3.97792376627554        2.10376276919131
H            6.38164025908506       -4.57501373295825        0.51957692815684
H            4.35240474957270       -2.37096017933951       -0.09650922842773
H           -0.23535014998971       -1.56927087368373       -1.75277831414440
H           -1.00520692216260       -1.23574214565603       -0.18529828993083
H            0.57361726508841       -2.03920342511814       -0.23880598470803
H           -4.70303377540995        2.95552099788979       -0.17722137165005
H           -3.80425599445514        2.90948378004217        2.72638047994204
H           -4.91444007968181        1.74986788243178        1.98817418175180
H           -5.38920649180991        3.44782464081637        2.13794231381862
H           -2.67687726271709        4.69098654566091        1.28338058881153
H           -3.11079059449308        4.82360271050722       -0.42629593635545
H           -4.30838293731277        5.18831176266741        0.81498293691199
H           -0.67477688678878        2.83006969489257        2.74208242513823
72
 energy: 34.135704384447 xtb: 6.6.1 (8d0f1dd)
N           -1.63167556981789        2.94638915221666        2.27398409449595
C           -1.60209954558072        2.18869491831363        1.22138745601724
C           -2.79755436483593        2.09716014792715        0.27849371875063
C           -3.35032572254466        0.68064531228917        0.33988972339365
C           -4.33115336396576        0.26104770027593       -0.55971486880760
C           -4.85822169444567       -1.01185207184059       -0.51441107447366
O           -5.84075861619936       -1.49789206481939       -1.36404575695925
C           -6.40343174446966       -0.61840621116466       -2.29234294652377
C           -4.41157693330098       -1.91889145908499        0.45495050449744
O           -5.01088090179197       -3.17065621318740        0.42342774650339
C           -4.66218293932778       -4.08588670379931        1.41793718749585
C           -3.44928795694445       -1.51364915161498        1.35578303374074
C           -2.93128171763738       -0.22806984293656        1.29789285790480
C           -2.25368133636005        2.35437353091888       -1.15972548172493
C           -1.32208649366679        1.25740513057296       -1.72364603608970
C           -0.04756012681088        1.26354449055923       -0.97017901491955
N            0.64077140081094       -0.03229884778804       -0.61185947532097
C            1.98730372607891        0.02439412455052       -0.25224078858539
C            2.95398150964800       -0.41715304682868       -1.38746537087645
C            4.36711700412019       -0.37479054754050       -0.93241695667493
C            5.10478220108062        0.78421101621107       -1.09682307960976
C            6.40846322276425        0.83061256969918       -0.62327987024220
C            6.97316198841617       -0.26838237732171        0.02238255213211
O            8.28447781310284       -0.24105251347896        0.48731821016840
C            9.06010278660150        0.90655060846413        0.29325764286012
C            6.23722784223273       -1.48724836435290        0.23933652091929
O            6.93075679021943       -2.53332501282704        0.92791658289205
C            6.74273687050210       -4.00159959134051        1.43810159115761
C            4.94301375603677       -1.46955669880072       -0.26298484922620
C           -0.04359079904793       -1.25944019452459       -0.74419261197925
C           -3.94541839397255        3.07996481583175        0.59460631390087
C           -4.57480909188687        2.77473271034318        1.95596790906642
C           -3.50061278319606        4.54493901401515        0.56309159127304
H           -4.67441677532341        0.95100232634947       -1.31470230923633
H           -6.86336085944123        0.25149889492962       -1.80705786854035
H           -7.17803139564711       -1.19488669429332       -2.79978363421342
H           -5.67278995156584       -0.27091830439626       -3.03206971068539
H           -4.88601406270909       -3.70659416394173        2.42320937931381
H           -5.27546360351588       -4.96695962573274        1.22456758902557
H           -3.60351633982686       -4.36858591499572        1.37100208230191
H           -3.08583232012319       -2.19052193144944        2.11465881327783
H           -2.18350937709056        0.06395874747540        2.01831882374547
H           -3.10199500549386        2.47999966847820       -1.84210179018678
H           -1.69060252149814        3.29031288245069       -1.15097844707111
H           -1.82324673133123        0.29122674976414       -1.65179303816419
H           -1.19258537254238        1.47286523063668       -2.80490597028622
H           -0.76686769380977        1.65262899026068        0.83218106462707
H            0.63508579246000        2.07215796422048       -1.07164693306786
H            2.16046236479565       -0.63198876383651        0.62156875137578
H            2.24292701635356        1.04480549399691        0.05285541889791
H            2.77457065435721        0.25794103570855       -2.23046810187856
H            2.66331970070985       -1.42548124201127       -1.69479111053595
H            4.66680409737540        1.64473090740866       -1.59298761906760
H            6.96177610267372        1.75238556930051       -0.78418459616788
H            8.64794473970300        1.79033745880182        0.79735397099791
H            9.20856232183337        1.14401141592688       -0.76886590454144
H           10.02714869755909        0.66697670604034        0.73803350160335
H            7.69370155311401       -4.37732120370607        1.93052426100345
H            5.96205155834777       -4.15857610598215        2.22198686358706
H            6.53066792900731       -4.75784085222306        0.64393644084165
H            4.33371308484142       -2.35453777754318       -0.13432910010898
H           -0.24118817143655       -1.54978029381021       -1.79125548769017
H           -1.00208537054594       -1.23604556861213       -0.21492407644402
H            0.57786505065579       -2.03298915473823       -0.28613583496915
H           -4.72162440492480        2.95230232411195       -0.17402728771271
H           -3.82418967549558        2.91319821827712        2.72626683948945
H           -4.93127309552809        1.74697849089750        1.99268614648961
H           -5.41346901901833        3.44306325572665        2.14182998545781
H           -2.70737526958544        4.69393751766028        1.28754697941815
H           -3.13882509779511        4.82756336906615       -0.42265328238498
H           -4.34035532539673        5.18934403600702        0.81738154929018
H           -0.70179124307280        2.84457778691241        2.72584311951410
72
 energy: 58.402529081365 xtb: 6.6.1 (8d0f1dd)
N           -1.68014261082873        2.97325419195566        2.27855124485611
C           -1.60177841754618        2.21541578862650        1.23576329982267
C           -2.81327997516031        2.10528194970128        0.28649239254970
C           -3.35965180705557        0.68657062708363        0.34206587251300
C           -4.33918286871373        0.26516297284873       -0.55799182356814
C           -4.86002591660759       -1.00922049326651       -0.50855744497900
O           -5.84648902273142       -1.49894048668212       -1.36493542771714
C           -6.40464043293423       -0.62162699579191       -2.29025718090700
C           -4.41509734816318       -1.91096738543141        0.45835432576254
O           -5.01534727353360       -3.17203934465568        0.42884628143732
C           -4.66144959149890       -4.08032493987472        1.41988039248669
C           -3.45408159677395       -1.50839226088040        1.36302560862488
C           -2.94206610882129       -0.22347354994159        1.30377878618507
C           -2.26911754567198        2.37328401639518       -1.15494709110546
C           -1.34018213197478        1.27138615967436       -1.72563237536642
C           -0.06309484036655        1.29738642693112       -1.01427206314928
N            0.63293806530797       -0.02181576673673       -0.62673543721250
C            1.97632793941549        0.04892891958288       -0.27573346520238
C            2.95553021215757       -0.38519241410680       -1.41703864688395
C            4.36755309358509       -0.35569013312933       -0.95238589775980