25
 energy: 89.641089752684 xtb: 6.6.1 (8d0f1dd)
C            3.24768043836934        1.16991181378302        0.08253726309832
N            2.25475307658371        0.10754428582272        0.06146794496343
C            2.58758444901854       -1.17328002477145        0.09194354526035
N            1.46929390882383       -1.93806857184083        0.04648771755512
C            0.32829184320166       -1.10672391411428        0.02196797015505
C            0.88743213432746        0.19185033154422        0.00939905760730
C            0.03124048871094        1.38672333314050       -0.00881071665151
O            0.57199035254062        2.48968115309905        0.10306352156168
N           -1.29906549160997        1.09476097366477       -0.09510301655033
C           -2.15798106224601        2.22170773908999        0.09666974820554
C           -2.28277000179425       -0.27049279503097       -1.14269673277381
O           -3.43297197072004       -0.28165514589414       -1.17725933823092
N           -0.94295174645280       -1.39181233895905        0.01799756121426
C           -1.41524645211868       -2.72391042089794        0.12972782413208
H            3.74976419058304        1.23170388824237        1.05435825247068
H            4.02017509605610        0.98413010275118       -0.66855949978032
H            2.76260894949424        2.12553496534786       -0.11731878080060
H            3.59691400956088       -1.53514933484221        0.02716142163900
H           -1.55761519642779        3.12589432503755        0.18412849969702
H           -2.81897735669394        2.33356108519950       -0.75692701394588
H           -2.77594895591634        2.09031718821735        0.98334166193221
H           -0.77424563161792       -3.26363949599472        0.83682501471805
H           -1.43848113889700       -3.25879792591045       -0.82130610353471
H           -2.44693069077661       -2.68931395470044        0.48666748106871
H            1.50797724811470       -2.94245186140716        0.07243028113536
