25
 energy: -43.833538610160 gnorm: 0.085786689756 xtb: 6.6.1 (8d0f1dd)
C            3.28011165354541        1.16800714674963        0.09550218094476
N            2.32623767300618        0.10766338223314        0.03173770969508
C            2.60990515483536       -1.24976272341047        0.02693782532452
N            1.39712491840561       -1.93161095746398       -0.01988798337285
C            0.40718662611997       -1.02194682288632       -0.01579220286387
C            0.92495241259647        0.25967281672465        0.01475050533336
C            0.06440046733742        1.37959859396542        0.03803402657506
O            0.46443706581895        2.57546365791128        0.01012352534289
N           -1.35985367682182        1.05512265061318        0.00581717842997
C           -2.30661681289829        2.15825542554001       -0.09033497058607
C           -1.86869915086753       -0.19405601965277        0.05139364753553
O           -3.04233511732363       -0.40234993958219       -0.01034867822432
N           -0.94829276698015       -1.26236762584741       -0.00591916716581
C           -1.43899196957837       -2.63018331707976       -0.07188651517072
H            3.74973246040319        1.24051584962776        1.12198414181939
H            4.10300024021128        0.99349366591662       -0.62385411477272
H            2.79615428882020        2.09404479699987       -0.13937121813240
H            3.57937246060400       -1.69662217244160        0.03223174969566
H           -1.70990231035600        3.07748847125532       -0.10285363981331
H           -2.91914982532283        2.08670417926895       -0.99783857341861
H           -2.95822229846619        2.14698844150909        0.78214369217273
H           -1.09498761690516       -3.21495068911497        0.79031271771105
H           -1.14727065611035       -3.12265523790746       -1.00373636092816
H           -2.52918889459182       -2.56219399653835       -0.01935451121390
H            1.32637726281367       -2.94004667810821       -0.03233033202556
25
 energy: -43.837175270948 gnorm: 0.026841996727 xtb: 6.6.1 (8d0f1dd)
C            3.27690481332831        1.16697326936530        0.09792460242368
N            2.31674952524479        0.11305723471394        0.03274832949983
C            2.59783959081931       -1.24305098403874        0.02813197977121
N            1.39662557719627       -1.92629783920050       -0.01220593582829
C            0.39833944855070       -1.02805128367051       -0.01224424053612
C            0.91965170744369        0.25746165825099        0.01307437557767
C            0.07457186886172        1.38876279121633        0.01991546038425
O            0.44613649867404        2.57535289879663        0.01576074972096
N           -1.33184009865806        1.05342273854359       -0.00770742725014
C           -2.28059789523158        2.15395853023406       -0.07829253172333
C           -1.85690456504249       -0.19808397344793        0.00315961016139
O           -3.05061655034897       -0.40992829140958        0.00270555540449
N           -0.94625912075336       -1.27352890707478       -0.01120240042492
C           -1.44716935589083       -2.62998783127578       -0.06315901644320
H            3.73229980923259        1.23788509509016        1.10564770917250
H            4.08962657977404        0.99268722943335       -0.61923883079804
H            2.78111145789077        2.10179865078113       -0.12941030722456
H            3.56568326763055       -1.68676710021777        0.02768106343458
H           -1.69601354800859        3.07397279719744       -0.09586183393787
H           -2.88823829849284        2.07510311159518       -0.98329841333675
H           -2.94456987033732        2.14068403254698        0.78609814815580
H           -1.09458637729256       -3.20970438051862        0.79452504150171
H           -1.14499358191854       -3.11711100980665       -0.99259124053904
H           -2.53529159436451       -2.56384007422726       -0.02575318700726
H            1.32702229998845       -2.93049546459552       -0.02894662726683
25
 energy: -43.837261573173 gnorm: 0.019294738238 xtb: 6.6.1 (8d0f1dd)
C            3.29565499249058        1.15797245249529        0.10127062990479
N            2.32132830372554        0.11257802285429        0.03498477871510
C            2.59883245628195       -1.24612105688994        0.02778302054918
N            1.39911054432004       -1.92358918559415       -0.01692523156806
C            0.39648934195302       -1.02768652674438       -0.00230667174667
C            0.92177505482241        0.25763205075025        0.02772700633782
C            0.07886680897301        1.39605362525984        0.03473378992775
O            0.44360517852529        2.57449142395915        0.01337513772208
N           -1.32698788063558        1.06035440302599        0.01085923729814
C           -2.29554639494616        2.14982312056228       -0.08899331349241
C           -1.85322721350432       -0.19360956635627        0.03090213540330
O           -3.05035579176491       -0.40987036130447        0.01182964998350
N           -0.94429664443094       -1.27121685208942        0.00440416046537
C           -1.44528517002478       -2.62438243682656       -0.06901606717449
H            3.74602252585722        1.23452309574582        1.10194179188712
H            4.10171583084376        0.98213171593317       -0.61792680571566
H            2.80154506107175        2.09693254697542       -0.13582102266073
H            3.56667863130252       -1.69330501755157        0.02869747353118
H           -1.72854207215870        3.07758967298920       -0.11716575131324
H           -2.91056777962098        2.06323222522450       -0.99090573840247
H           -2.96725196796868        2.14820468135854        0.77092270325884
H           -1.08639935594493       -3.21712150961502        0.77536421384141
H           -1.15162940991046       -3.10354322505468       -1.00764390174910
H           -2.53037019414029       -2.55984936878466       -0.02027680208221
H            1.32431673317919       -2.92695103204121       -0.04035379002882
25
 energy: -43.837845121854 gnorm: 0.010323096029 xtb: 6.6.1 (8d0f1dd)
C            3.28890150423349        1.16338778069725        0.10269740451081
N            2.32077716484608        0.11128774930870        0.02839554910022
C            2.60234829462536       -1.24835693049387        0.02495399780765
N            1.40166904745689       -1.92706361972893       -0.01897928664986
C            0.39600864629493       -1.03168325762092       -0.01229869805712
C            0.92047294480273        0.25284248251042        0.01831604618791
C            0.07802537906397        1.39219663242226        0.02801209103011
O            0.44812582087775        2.56986468650497        0.00899253302884
N           -1.33033528977971        1.05862950580794        0.00482463067939
C           -2.29211595916994        2.15580376117818       -0.08443423603859
C           -1.85644554080702       -0.19454675393873        0.02511731010157
O           -3.05008458701516       -0.40933270006090       -0.01289646193146
N           -0.94660324270319       -1.27332340072591       -0.00439541887276
C           -1.44484725014543       -2.62922107863543       -0.06644656164584
H            3.73505347917633        1.24194465725196        1.10847670812283
H            4.09608066272253        0.99722083577598       -0.61881726451929
H            2.78851122229589        2.09800198933016       -0.13765522264252
H            3.57256567437831       -1.69356156823027        0.03386259872614
H           -1.70959037334858        3.07510399957709       -0.09733250956361
H           -2.91203465472949        2.09122559764367       -0.98676123121182
H           -2.95423628575724        2.14633677746161        0.78292794668452
H           -1.09522305935582       -3.21020577010711        0.79068043010650
H           -1.14727162221334       -3.12634258544796       -0.99597735886899
H           -2.53005765551347       -2.56406999747795       -0.02197862347676
H            1.32578726805968       -2.93186589472076       -0.03182373971616
25
 energy: -43.837948459792 gnorm: 0.008136321878 xtb: 6.6.1 (8d0f1dd)
C            3.28522079716804        1.16545476580491        0.10234846724891
N            2.31817013341005        0.11386478652659        0.02982560068181
C            2.60057269465854       -1.24549115965351        0.02476841282737
N            1.39983111580171       -1.92522189675180       -0.01554444069147
C            0.39527249926963       -1.02903170713680       -0.01208968104969
C            0.91864448615553        0.25531076505050        0.01804458307904
C            0.07597972567496        1.39329401046422        0.02649541937660
O            0.44707506178533        2.57409419627605        0.01647180996362
N           -1.33230583237477        1.05624924307765        0.00352773586914
C           -2.28816652185038        2.15374793158833       -0.08567551673836
C           -1.85821100334101       -0.19502145043429        0.02527158234815
O           -3.05062523951184       -0.40928784396178        0.00290919366843
N           -0.94791435234687       -1.27202706218012       -0.00442487494280
C           -1.44585630599184       -2.62767045944747       -0.06654895402902
H            3.73895312749251        1.23521049243870        1.10773433835082
H            4.08984470543419        0.99269112999634       -0.62234069666837
H            2.78733330071304        2.10169381343309       -0.13132286899151
H            3.57064133975546       -1.68901530581942        0.02723302607321
H           -1.70195970781350        3.07258712248863       -0.10380281188828
H           -2.89657870802836        2.07117322810998       -0.99282105763793
H           -2.95052710989704        2.14261782426116        0.78133583573666
H           -1.09436930392724       -3.21288652361987        0.78847992546065
H           -1.14632095944927       -3.11476427499193       -0.99994095720454
H           -2.53247046695517       -2.56279450805728       -0.02429619375900
H            1.32324811246387       -2.93050421918046       -0.02817724419174
25
 energy: -43.838023490842 gnorm: 0.004388090639 xtb: 6.6.1 (8d0f1dd)
C            3.28919593221031        1.16288170209870        0.10161810828166
N            2.31963210425672        0.11304729709372        0.03116960600194
C            2.60068348711363       -1.24668075017186        0.02910125595802
N            1.40069538950349       -1.92529146706287       -0.01635268699414
C            0.39612692477680       -1.02914137510320       -0.01146183571620
C            0.91990453274923        0.25524010596117        0.01875403553318
C            0.07714079242707        1.39406639366778        0.02461186594818
O            0.44697728202917        2.57398268404667        0.01244969908230
N           -1.33155295495201        1.05776143873728        0.00074399356741
C           -2.29225240757473        2.15416915480772       -0.08298977610136
C           -1.85674593180170       -0.19431493341077        0.01904980146543
O           -3.04992914029626       -0.40986237296874       -0.00052986008245
N           -0.94642799116843       -1.27188402951496       -0.00598583656550
C           -1.44500465366520       -2.62711156124748       -0.06587810306594
H            3.73796251543581        1.23872841571789        1.10696090000676
H            4.09790396098717        0.98662433032183       -0.61702040659258
H            2.79299563593464        2.09870561319165       -0.13817221085522
H            3.56984729174295       -1.69135132911926        0.03266231489364
H           -1.71367561955620        3.07716630211603       -0.10118968202492
H           -2.90600246269128        2.07563639747481       -0.98616909533778
H           -2.95545461568329        2.14212356302848        0.78315207835729
H           -1.09110127328619       -3.21176817486492        0.78819898139722
H           -1.14742456569858       -3.11572031252462       -0.99886389847428
H           -2.53139312793466       -2.56252314100780       -0.02182002945349
H            1.32338048343711       -2.93021105298581       -0.03457858633746
25
 energy: -43.838019507935 gnorm: 0.005029043506 xtb: 6.6.1 (8d0f1dd)
C            3.28816256196883        1.16385178322452        0.10190984327318
N            2.31992832448855        0.11227361300577        0.03028967435124
C            2.60153099456211       -1.24754610615992        0.02569514374348
N            1.40199766089664       -1.92640415354920       -0.01643675204838
C            0.39613632903890       -1.03123349778426       -0.00799163148528
C            0.92010303301085        0.25315115741180        0.02292020706973
C            0.07814660698238        1.39262226317170        0.03118798363404
O            0.44710501273597        2.57123348242876        0.01273539144524
N           -1.33032330351511        1.05717438793540        0.00527284682627
C           -2.29053892875652        2.15496540185601       -0.08627536044599
C           -1.85632235229337       -0.19494755562471        0.02471934731850
O           -3.04979003691587       -0.41039634949324       -0.00294799304528
N           -0.94624058411518       -1.27351810812368       -0.00186021686158
C           -1.44561618281512       -2.62832435881575       -0.06625493293282
H            3.73825133170948        1.23891222328638        1.10558484332463
H            4.09450185101704        0.99617042463367       -0.62074043175738
H            2.78755853822787        2.09908574642635       -0.13296329775966
H            3.57095120228392       -1.69211882731366        0.02723514550107
H           -1.70955610219520        3.07559448339537       -0.10433302444963
H           -2.90515306004693        2.08181664938009       -0.98975511239163
H           -2.95644221776361        2.14917025060385        0.77778931244555
H           -1.09384710537283       -3.21399538891381        0.78733018581458
H           -1.14832490962195       -3.11881196773587       -0.99874937065478
H           -2.53154772216379       -2.56329083959242       -0.02250419045442
H            1.32481064694848       -2.93116181537172       -0.03439697756897
25
 energy: -43.838067646199 gnorm: 0.001675560919 xtb: 6.6.1 (8d0f1dd)
C            3.28824032518311        1.16377442729824        0.10214695642237
N            2.31939531467100        0.11320413259849        0.02888506738349
C            2.60086720377829       -1.24658269871964        0.02633170831711
N            1.40102549491921       -1.92532769392806       -0.01640688573305
C            0.39565518708742       -1.02968715441182       -0.01155555792462
C            0.91965455663838        0.25461465235594        0.01851341430211
C            0.07750276015240        1.39366371489270        0.02665920145393
O            0.44675294827560        2.57306507093042        0.01202491040401
N           -1.33108831009342        1.05707242696409        0.00404526315299
C           -2.29085900210162        2.15379618544926       -0.08474783583217
C           -1.85711078820594       -0.19443629871308        0.02480241587035
O           -3.05020918495515       -0.40958503926428       -0.00087819066357
N           -0.94683848927335       -1.27233944467448       -0.00423976629327
C           -1.44533393066948       -2.62745033314813       -0.06720276930774
H            3.73774292085426        1.23715043439835        1.10732557680424
H            4.09466564224143        0.99210561421631       -0.61978585148907
H            2.79044966991209        2.09973296194225       -0.13464991331083
H            3.57039858926686       -1.69102882241823        0.03139312269478
H           -1.70845790800068        3.07399923109542       -0.10253619584910
H           -2.90471136938845        2.07717381303170       -0.98872384529746
H           -2.95351033704896        2.14381108177228        0.78183572020992
H           -1.09329681350454       -3.21192991193052        0.78737589617675
H           -1.14734743967870       -3.11756139795152       -0.99973216224154
H           -2.53143314512926       -2.56272359729337       -0.02339907452336
H            1.32332769336507       -2.93023845621089       -0.03002057183455
25
 energy: -43.838035920149 gnorm: 0.003793637423 xtb: 6.6.1 (8d0f1dd)
C            3.28778281606918        1.16367590475939        0.10237984624016
N            2.31923302224325        0.11291643923533        0.03188454204214
C            2.60094001344337       -1.24679296020150        0.02700576136693
N            1.40110432001350       -1.92562415376002       -0.01777656316904
C            0.39586450946844       -1.02974861245338       -0.01067022417105
C            0.91955164987345        0.25456110826254        0.02088188845856
C            0.07735211461676        1.39356470084516        0.02835927212450
O            0.44745948192436        2.57341700606821        0.01784820356404
N           -1.33168362978803        1.05741650993636        0.00190939889752
C           -2.29098099793360        2.15475751256558       -0.08513295055642
C           -1.85730414718422       -0.19419779635296        0.01994790560428
O           -3.05013596889154       -0.40963808517786       -0.00308618606111
N           -0.94680968927851       -1.27231745852001       -0.00466498347160
C           -1.44514565728694       -2.62768489178505       -0.06415014762441
H            3.73890570836303        1.23959301763552        1.10701500945612
H            4.09453587261098        0.98879276046306       -0.61883066605637
H            2.79003235332121        2.09891702449659       -0.13643693714999
H            3.57054145502756       -1.69096256409671        0.02746189263831
H           -1.71079553712058        3.07690729701321       -0.10151592251113
H           -2.90180207171637        2.07640630924195       -0.99056985424032
H           -2.95590234868719        2.14315091118600        0.77976965328842
H           -1.09221846916542       -3.21211844682090        0.79061959294551
H           -1.14704373529524       -3.11691090011407       -0.99676546345408
H           -2.53153462119554       -2.56318497984611       -0.02040654123259
H            1.32353514486364       -2.93062275429887       -0.03761589403666
25
 energy: -43.838068713498 gnorm: 0.001647533589 xtb: 6.6.1 (8d0f1dd)
C            3.28786371853582        1.16380546704085        0.10202935428038
N            2.31944195179608        0.11280695689409        0.03110181702382
C            2.60113227329436       -1.24693615297720        0.02751532272374
N            1.40142717974418       -1.92585057927951       -0.01625113761926
C            0.39599139890428       -1.03016214514576       -0.01003770261347
C            0.91971662567024        0.25420282784005        0.02053683752962
C            0.07757213243386        1.39329608723142        0.02718741405517
O            0.44727307964420        2.57288954798336        0.01351155813278
N           -1.33143001921357        1.05721603884095        0.00252283262680
C           -2.29090296792980        2.15478899430095       -0.08462167475384
C           -1.85704701179280       -0.19444464051311        0.02166792445720
O           -3.05003385461399       -0.41003723332840       -0.00130966267923
N           -0.94661586428749       -1.27267657681893       -0.00412561262533
C           -1.44534437817601       -2.62779497193126       -0.06581270945486
H            3.73843457884422        1.23898956830768        1.10661295433400
H            4.09487108042492        0.99097121434748       -0.61927034753893
H            2.78949263566087        2.09915786828614       -0.13544900690384
H            3.57068553475668       -1.69118059041803        0.02916662977151
H           -1.71026815651831        3.07641073352654       -0.10265911093719
H           -2.90388125978922        2.07739835654789       -0.98868482658422
H           -2.95484850773644        2.14510802541441        0.78098559251277
H           -1.09279532310304       -3.21330969947594        0.78818828345430
H           -1.14748459889285       -3.11653282705802       -0.99883558674454
H           -2.53164954772514       -2.56302796299842       -0.02226445394019
H            1.32388088836453       -2.93081540833580       -0.03424405561548
25
 energy: -43.808534426178 gnorm: 0.166540863179 xtb: 6.6.1 (8d0f1dd)
C            3.32353425285305        1.15049207480305        0.10732943301231
N            2.36000085080848        0.12965974918081        0.01027570730588
C            2.62271711417185       -1.29475743881792        0.01243877551042
N            1.35516672600725       -1.91007040463167       -0.04918636948128
C            0.41034978175545       -0.97676877871259       -0.02088432571244
C            0.91964712407094        0.30840871742348        0.01674124972616
C            0.07069251448159        1.41955727233234        0.06957999664981
O            0.38107059998176        2.58848181191633        0.02954959284093
N           -1.47044827654271        1.06652692803273        0.04324469722472
C           -2.39128739746295        2.17300752474583       -0.13773452305237
C           -1.91053219349475       -0.18943638713650        0.15786373269523
O           -3.06161357803352       -0.43092765967946        0.07786951125086
N           -0.95389864757764       -1.21881166124910        0.03197661992741
C           -1.40254724537227       -2.61887375629480       -0.08346578400281
H            3.76630329289310        1.26082446621824        1.19514211836399
H            4.18816315016957        0.93184153882633       -0.56372938385065
H            2.89487974314510        2.08597340407373       -0.18424191570913
H            3.57307540832630       -1.75859714938877        0.00255266739124
H           -1.76120936483114        3.07523935864582       -0.18711397549962
H           -3.01145538345876        2.06562227332240       -1.05069805884969
H           -3.03503345821332        2.21873510231770        0.73963197844559
H           -1.01954250480503       -3.23418436937258        0.74787649386974
H           -1.15570677108515       -3.07048080327025       -1.05165799923184
H           -2.50274141050532       -2.58090924480530        0.03579719429478
H            1.27633565728092       -2.92323721194165       -0.06476899103643
25
 energy: -43.825023486549 gnorm: 0.061348917260 xtb: 6.6.1 (8d0f1dd)
C            3.31807442473939        1.14428211435833        0.11236733489594
N            2.33592113821449        0.12612737023695        0.01536954075845
C            2.59335514533695       -1.26411060815312        0.01418603753214
N            1.36247109401056       -1.90666461514765       -0.03763764486716
C            0.39340344064854       -0.99200074305243       -0.01354924017066
C            0.91221166895683        0.29516267139016        0.01825323347593
C            0.07416225936320        1.42519468715374        0.04731197700628
O            0.37897534606647        2.60624986272062        0.03600643738339
N           -1.41248935212075        1.06315948803984        0.02281667046047
C           -2.35307534534985        2.16244769061140       -0.11755518811219
C           -1.89368124767786       -0.19693162965154        0.07798085540426
O           -3.08345088346500       -0.44093263603543        0.10069354903031
N           -0.95117616186090       -1.24464879613274        0.02443996681239
C           -1.41908392763126       -2.61918228694662       -0.06765329877256
H            3.73888621631716        1.25139895445480        1.15553844051220
H            4.17330641864098        0.92876390250549       -0.54801845670354
H            2.88434092911394        2.09310226249905       -0.17115825620837
H            3.55082916505475       -1.72535400196065       -0.00498829049383
H           -1.75598425011949        3.07437425879941       -0.18194492803934
H           -2.96647054313977        2.05019228389944       -1.02268184712346
H           -3.02270929973311        2.21245190184535        0.74228847506811
H           -1.01753249559648       -3.22627350610785        0.75008977922653
H           -1.15269300890459       -3.05584272355377       -1.03296309432557
H           -2.50916207917794       -2.58124153894446        0.02634592520925
H            1.28749133287653       -2.91240900629009       -0.06114953587615
25
 energy: -43.826545968120 gnorm: 0.029981809145 xtb: 6.6.1 (8d0f1dd)
C            3.34048855288406        1.13579286557328        0.12212269348529
N            2.33966605667046        0.11819082808272        0.02102692435574
C            2.58983352397237       -1.25941819822652        0.01272481357994
N            1.37015846070803       -1.90116988396335       -0.04445144799314
C            0.38938341428687       -0.98945101187055       -0.00231884196622
C            0.91989290233666        0.29291949150647        0.03554305190961
C            0.06664263780343        1.42300907635395        0.06081395473007
O            0.36999273444866        2.60859090020927        0.03746436716850
N           -1.39346061500941        1.07228624319954        0.04629323866582
C           -2.36593754019276        2.15283394281952       -0.13245660386786
C           -1.88517613965691       -0.18804397705360        0.11454010765286
O           -3.07638835113331       -0.43844855012518        0.10705472181120
N           -0.94764322112752       -1.24069412254140        0.04540488963571
C           -1.41625711405398       -2.60691246060410       -0.07582450789342
H            3.74906697510761        1.24808239351425        1.14949953935142
H            4.17779037591764        0.92265751055514       -0.55464578198192
H            2.89922651916397        2.08423555114959       -0.17631509342078
H            3.54702533602125       -1.74107596835118       -0.00121260553757
H           -1.78587339092851        3.07147757124288       -0.20666213626933
H           -2.99051411101994        2.03526106748371       -1.03258915196331
H           -3.04188127843888        2.21787674014878        0.72354467501956
H           -1.00931331421511       -3.22940270124910        0.72441443284233
H           -1.16175960967588       -3.04230794487393       -1.04909884984068
H           -2.49743448290517       -2.57494934605629        0.03370403002353
H            1.27839166359918       -2.90402466038569       -0.07418797741454
25
 energy: -43.827090469015 gnorm: 0.023066284614 xtb: 6.6.1 (8d0f1dd)
C            3.33598651370832        1.14626298712999        0.12702960701819
N            2.33852933908946        0.11709017072069        0.01071844886151
C            2.59424727858868       -1.25750948825893        0.00603281219169
N            1.37732461809948       -1.90342171422175       -0.04618957216397
C            0.38642923340166       -0.99326343142732       -0.01684100629101
C            0.91995112110716        0.28794975655630        0.02063697438711
C            0.05541131986168        1.41419906186703        0.04772916075448
O            0.36831239965690        2.59995640057791        0.02684868930587
N           -1.39117617855785        1.07187119167339        0.03915236975884
C           -2.35915143748268        2.16390753744500       -0.12429481442665
C           -1.88921063723716       -0.18804888724414        0.10283995743450
O           -3.07518488419548       -0.43871197366613        0.07227376207682
N           -0.95185726349818       -1.24459204246846        0.03255177834657
C           -1.41611346870467       -2.61445616825478       -0.07064034783201
H            3.73196483705682        1.25583161604146        1.15896121333553
H            4.17233668350163        0.93944224593111       -0.55291300447490
H            2.88273246025619        2.08957568125412       -0.18101376723926
H            3.55363020805561       -1.74510331221356        0.00375140916635
H           -1.75876829726939        3.07123314166358       -0.17449667751699
H           -2.98895100085808        2.07338122129785       -1.02687517493228
H           -3.02216012144533        2.21410599376779        0.74315656446497
H           -1.02302661715656       -3.22297480498815        0.74878870346032
H           -1.15304054998338       -3.07790498492426       -1.03237881478678
H           -2.49827441998847       -2.58420272552531        0.02930174581062
H            1.27597884855644       -2.90730211619521       -0.05974157462673
25
 energy: -43.827855536595 gnorm: 0.009968004918 xtb: 6.6.1 (8d0f1dd)
C            3.33286075731407        1.14883609963670        0.12295676967722
N            2.33627728427497        0.12217637908102        0.01207213703250
C            2.59540196237892       -1.25656188116807        0.00744958972872
N            1.37528895258568       -1.90343460315600       -0.04134542631234
C            0.38712492537945       -0.99066963290708       -0.01482121486307
C            0.91763719883290        0.29246099140993        0.02345375041189
C            0.05379635581196        1.41826019527196        0.05324346157887
O            0.37732892787004        2.60195930786822        0.03713163067804
N           -1.39794338887255        1.07000509578952        0.03630190484663
C           -2.35974769321906        2.16301867115756       -0.12707692513345
C           -1.89327540755712       -0.18898860963357        0.10325097966473
O           -3.07812036661249       -0.43928455053787        0.09705313710890
N           -0.95418126502890       -1.24336843825300        0.03258698988311
C           -1.41878233721971       -2.61369965690358       -0.07052213030294
H            3.74457253634599        1.24783296548989        1.15677498903200
H            4.17167556672782        0.92920267266985       -0.55279036620705
H            2.88549564545849        2.09480176551937       -0.17592667335230
H            3.55470238179129       -1.73650923303853       -0.00407436546513
H           -1.75973302178328        3.07306872714347       -0.18739805699784
H           -2.97407115692215        2.04406721593025       -1.03426951428812