25
 energy: 0.000000000000 xtb: 6.6.1 (8d0f1dd)
C            3.23720163006194        1.16630919979326        0.08434469647475
N            2.29877817382611        0.07527477071623        0.03981603040599
C            2.58028210190900       -1.21425402444508        0.03006176031096
N            1.43813958087363       -1.93419271955128        0.00098261760884
C            0.39035688448383       -1.05887472636071       -0.00790371836672
C            0.93510056364412        0.21347819449412        0.01709077491437
C            0.09450143893243        1.40504303904423       -0.00410947031874
O            0.49712751527797        2.54126714362870       -0.00342325688240
N           -1.25076640035757        1.06271879480407       -0.03085478223738
C           -2.21907211982101        2.15522099834493       -0.05001256985998
C           -1.81739487048744       -0.20012725993278       -0.04692818574614
O           -2.99983886758376       -0.37846417018721       -0.07008878229737
N           -0.92618586207120       -1.30210215599479       -0.03682761578324
C           -1.46982264913417       -2.64643102187190       -0.06029820460571
H            3.71247264356769        1.21471455160235        1.06488849150277
H            4.00791497605742        1.03430808813993       -0.67357694370751
H            2.69910007168542        2.09770118228144       -0.09130154882931
H            3.56654120610678       -1.63682992603973        0.04233140067262
H           -1.67107961066214        3.09322851271934       -0.02552706933167
H           -2.82428953597071        2.09428624779827       -0.95318082946668
H           -2.87644029173232        2.07745725625962        0.81450067533302
H           -1.17061996399332       -3.19584890659852        0.83242232437030
H           -1.14560257411436       -3.17511610292205       -0.95688275822323
H           -2.55549792440841       -2.55659984320617       -0.07459039797972
H            1.38130855184625       -2.94313852034425       -0.01389874181052
25
 energy: -5.376074835600 xtb: 6.6.1 (8d0f1dd)
C            3.24768554283561        1.17469237328016        0.08730452451542
N            2.30965320278777        0.09450269160471        0.03778789850829
C            2.60093096843298       -1.23376876083043        0.02965862747968
N            1.42858105153386       -1.94083538578489       -0.00038092157277
C            0.39734413682248       -1.05610900357340       -0.00858350269355
C            0.93104760749236        0.22255097145324        0.01555649056671
C            0.10002978643909        1.39583286995121       -0.00376964358015
O            0.49709484794809        2.56138692692884       -0.00262640677017
N           -1.26411660576771        1.05278149923400       -0.02951271826878
C           -2.22639904818136        2.14958493789457       -0.05175873038466
C           -1.82555272532852       -0.19970072759983       -0.04327994992169
O           -3.02193430795278       -0.38377888822304       -0.06371516185017
N           -0.93372463718922       -1.29991726213928       -0.03619932709991
C           -1.46931206349401       -2.64294203179745       -0.06098853531915
H            3.72252403564176        1.22313519358128        1.07070320545125
H            4.01890929961752        1.03634371975229       -0.67167373299350
H            2.70402902678432        2.09970176886438       -0.09346152657544
H            3.57924334425843       -1.66060806702047        0.04167534981966
H           -1.66653949077489        3.08186926505920       -0.02918289539233
H           -2.83282889751341        2.09648573016712       -0.95587848767132
H           -2.88632680697739        2.08411222033303        0.81294259678864
H           -1.16197728414486       -3.19685665865765        0.82807137501332
H           -1.14357366135528       -3.17117399643789       -0.95915476332678
H           -2.55453560510741       -2.55357736701424       -0.07111575502706
H            1.36196295112878       -2.94468341685345       -0.01538411354823
25
 energy: -6.499370324589 xtb: 6.6.1 (8d0f1dd)
C            3.26056336862563        1.17641707249495        0.09082152364253
N            2.31729416779325        0.10539698896956        0.03425787833203
C            2.61114075486286       -1.24782661390655        0.02892386239718
N            1.41688922645438       -1.93953395808766       -0.00243230759654
C            0.40129080293880       -1.05096868696241       -0.00970124470002
C            0.92754860818893        0.23145588422784        0.01362377455565
C            0.10294295082474        1.38477387183982       -0.00301663674586
O            0.48278564893209        2.56506473475884       -0.00168392858135
N           -1.27985380359847        1.04526138739795       -0.02698782951733
C           -2.23517462016963        2.14634452647709       -0.05515037163097
C           -1.83075541628038       -0.19945157229280       -0.03613792221479
O           -3.03067210666738       -0.39275782811443       -0.05016555868484
N           -0.93921960912047       -1.29469981454346       -0.03440084366057
C           -1.46523794512972       -2.63821038574585       -0.06226621748132
H            3.73494201986311        1.23179891225864        1.07619055241411
H            4.03761684762898        1.03693788476384       -0.66401205892759
H            2.71911587068272        2.10107338242274       -0.09635141326731
H            3.58271107285208       -1.68141399369410        0.03980822661984
H           -1.66173722389387        3.07118177378620       -0.03676145397535
H           -2.84303689894085        2.09796070592037       -0.95959558655958
H           -2.89902404026531        2.09502938790628        0.80853575403803
H           -1.14678381661403       -3.19881535329033        0.82012282396418
H           -1.14235191230195       -3.16258568508945       -0.96507144924134
H           -2.55064122317580       -2.55201278445564       -0.06359548879381
H            1.34186194444654       -2.94139123486944       -0.01792018823771
25
 energy: -6.515332182742 xtb: 6.6.1 (8d0f1dd)
C            3.27047616846670        1.17305748790450        0.09384001105783
N            2.32063640626929        0.10748343951292        0.03100334642104
C            2.61105727626335       -1.25371178812429        0.02771654871560
N            1.41030380853711       -1.93630963683537       -0.00461423269425
C            0.40161750608525       -1.04690457002274       -0.01053746718619
C            0.92659903873663        0.23718206618013        0.01249859825443
C            0.10181258213895        1.38318659534297       -0.00185942723714
O            0.46700756299508        2.56727974034025       -0.00100360771373
N           -1.29086285979942        1.04417122806042       -0.02395240102417
C           -2.24270043210926        2.14659846763308       -0.05949164472320
C           -1.83468505377626       -0.19999352099770       -0.02710020091937
O           -3.03371484042655       -0.40167539471722       -0.03351388917877
N           -0.94067799141725       -1.29054253233506       -0.03150398249312
C           -1.45932800395107       -2.63578986546175       -0.06373951434400
H            3.74075277060975        1.23316955246009        1.08173373708982
H            4.05504696081827        1.03104572308950       -0.65358447397558
H            2.73756956067265        2.10168017054517       -0.10025350439584
H            3.57948925149885       -1.69339941343922        0.03630761874773
H           -1.66228345118482        3.06709379087029       -0.04672505170071
H           -2.85076104855247        2.09639017955608       -0.96403561443861
H           -2.90914049102246        2.10570467732155        0.80310355927362
H           -1.12866359429890       -3.20210003073607        0.81095838724545
H           -1.14263257394339       -3.15206646403150       -0.97382635119877
H           -2.54523210127281       -2.55431477628443       -0.05339866421043
H            1.33052821659900       -2.93820652365959       -0.02098788322434
25
 energy: -6.033603537882 xtb: 6.6.1 (8d0f1dd)
C            3.29330580432736        1.16110172347804        0.10216252288841
N            2.32640761719974        0.10940091651188        0.02290738760129
C            2.60593037537876       -1.26176725913761        0.02365438926709
N            1.39788213461377       -1.92770071642347       -0.01072041618820
C            0.39991285709380       -1.03621855225836       -0.01229901809710
C            0.92553296018066        0.25034635657483        0.01044244774574
C            0.09687878276882        1.38661022620896        0.00144173248622
O            0.43154330980156        2.57549052509927        0.00065841551002
N           -1.31372785913782        1.04517247463485       -0.01561953018962
C           -2.26115416177228        2.14859126102378       -0.07217647526984
C           -1.84483860481358       -0.20083325609637       -0.00147495905758
O           -3.04079940955831       -0.42069024145817        0.01422170011978
N           -0.94266816928177       -1.28082927888650       -0.02245700167404
C           -1.44317702968519       -2.63170687681934       -0.06771676714032
H            3.74652967412921        1.22846748926427        1.09906902023447
H            4.09795267022805        1.00546344265552       -0.62321055453579
H            2.78618049691708        2.10093341689564       -0.11287553288760
H            3.56839925361724       -1.71500183013129        0.02404533070892
H           -1.67132529078548        3.06295319721299       -0.07626912764045
H           -2.86907380935458        2.08756055348602       -0.97686215122054
H           -2.93290114823595        2.13265234650492        0.78805582223964
H           -1.07700772461558       -3.21333431554798        0.78440981437268
H           -1.14590412363117       -3.12272169749815       -0.99968626566250
H           -2.53026552669808       -2.56501506536886       -0.02264476679886
H            1.30860158924993       -2.92989623775287       -0.03002212066459
25
 energy: -3.469560585635 xtb: 6.6.1 (8d0f1dd)
C            3.34062612488468        1.13193742527653        0.12217830158351
N            2.33606341732142        0.11266635246450        0.00530635970787
C            2.59203217917385       -1.27183806821279        0.01318005590866
N            1.37490414112276       -1.90876471556201       -0.02519675627939
C            0.39398000378684       -1.01172477484486       -0.01553529699877
C            0.92367304643956        0.27828982898825        0.00717080814924
C            0.08512598956311        1.40008802733196        0.00914932036067
O            0.36322090566597        2.59611215349843        0.00441845389511
N           -1.35772732815820        1.05005074443901        0.00304812661394
C           -2.30094893400135        2.15290741106407       -0.10231096505950
C           -1.86705549789222       -0.20095284532108        0.05798784931420
O           -3.05607933948236       -0.45541188523278        0.12632443733087
N           -0.94642513812926       -1.26041662679731       -0.00031971759773
C           -1.40768091729357       -2.62430903807640       -0.07670192918250
H            3.74717258918441        1.21094801840311        1.14239380785764
H            4.19002771739118        0.93526921183089       -0.54994396419570
H            2.89431029417186        2.09554284432478       -0.14480197924706
H            3.54340783682325       -1.75090801072554       -0.00904506179180
H           -1.70078599699413        3.06010827774504       -0.14721784397715
H           -2.90864934818707        2.06035539214284       -1.00663333622506
H           -2.98208398387675        2.19043226780129        0.75348642224657
H           -0.95790266711161       -3.24080974964008        0.72044657440304
H           -1.15852481831465       -3.05539634048262       -1.05941157229414
H           -2.49598858155483       -2.59400285358508        0.05119217614521
H            1.26752297340328       -2.91114444465818       -0.05213037452047
25
 energy: 2.003584968378 xtb: 6.6.1 (8d0f1dd)
C            3.39460355605012        1.09437450609847        0.14763046634585
N            2.34574569038617        0.11566003478114       -0.01550347848042
C            2.57419833035552       -1.27716874827508       -0.00083981712226
N            1.35219524302920       -1.88599812422948       -0.04359644911226
C            0.38580471485289       -0.98183848641673       -0.01834337140943
C            0.92256736753607        0.31063027523294        0.00523824264774
C            0.07122848700474        1.42094767812287        0.01938941444809
O            0.28967453577121        2.62188223255587        0.01032943915503
N           -1.40550194184899        1.05797400489439        0.02501801073680
C           -2.34824095351936        2.15721725507010       -0.13990124101543
C           -1.89260800194845       -0.19968574873851        0.13065710898472
O           -3.07156502622320       -0.49125720379111        0.26562574399684
N           -0.94970547315680       -1.23692568276827        0.02766325039484
C           -1.36622255283216       -2.61554557636634       -0.08760088456244
H            3.73833284996972        1.18602702345646        1.19674042387121
H            4.29469161734710        0.83978380545331       -0.45679796573287
H            3.02522913051496        2.08362891369202       -0.18507361694694
H            3.51400935153636       -1.78301317762416       -0.05605390394853
H           -1.74469555606740        3.06060636953212       -0.23658045946354
H           -2.95656695685973        2.02063623849187       -1.04216098531877
H           -3.03756893612487        2.25696929140130        0.71073008299374
H           -0.81957133472362       -3.27008545122902        0.63997860937766
H           -1.17801973851863       -2.97552410603487       -1.12661819897050
H           -2.45167018693843       -2.63209688360549        0.13849869851042
H            1.22587045234374       -2.88816983753187       -0.08139522323227
25
 energy: 2.927096503336 xtb: 6.6.1 (8d0f1dd)
C            3.41243802998799        1.07087765683166        0.16078241495841
N            2.34693731555468        0.11235443180553       -0.02469200148347
C            2.56197785389721       -1.26377294548128       -0.00980031117095
N            1.35434088813450       -1.87507919552366       -0.05305321189076
C            0.37952785676478       -0.96772508911391       -0.01661313535079
C            0.92625424422475        0.32190953151180        0.00983669393318
C            0.06616068464722        1.44228600743193        0.02692533243564
O            0.27236541521534        2.63522754483863        0.01821505919545
N           -1.41605286098957        1.06642384020760        0.03299943941404
C           -2.36812199643109        2.15750516645893       -0.15890668379561
C           -1.90147813319845       -0.19704821733677        0.16337770273845
O           -3.06990403077124       -0.49672035679793        0.33509943334552
N           -0.94696642449969       -1.22885345765017        0.04263250570596
C           -1.34988587715303       -2.61194906668655       -0.09235594821728
H            3.71724359695378        1.16514173362541        1.22157885113327
H            4.32370524270140        0.77626572496233       -0.40853350791483
H            3.08488283139669        2.06413246378802       -0.20258737068683
H            3.50034563208861       -1.77358529137512       -0.09328626561779
H           -1.78267588218528        3.06876704005366       -0.28268014276917
H           -2.97857552282221        1.99026560394753       -1.05640263106274
H           -3.05471682530929        2.27994325000684        0.68865693302482
H           -0.77775876187454       -3.26961891543729        0.60122320853906
H           -1.19029498709951       -2.94633379744641       -1.14034407329906
H           -2.42310853618326       -2.65484211021529        0.16485869265960
H            1.22557491488635       -2.87654295023359       -0.09989708767688
25
 energy: 2.648396571175 xtb: 6.6.1 (8d0f1dd)
C            3.42355417676413        1.04664407836784        0.17924894727344
N            2.34657316463251        0.11515802432672       -0.03182115532341
C            2.55588187140448       -1.23516724502752       -0.02356843188348
N            1.36334320899698       -1.86524083707218       -0.06693377179244
C            0.37360450449847       -0.95272605506091       -0.01454641278871
C            0.93138256917300        0.33123687753238        0.02025520998605
C            0.06416844014039        1.46400486202932        0.03504669136887
O            0.27893298930601        2.65551484810248        0.03076883988330
N           -1.40949068142987        1.07069068976132        0.03760308632590
C           -2.38287915459615        2.14645011745551       -0.18012023206246
C           -1.90415330798916       -0.19047443174930        0.19347468460794
O           -3.05921537491689       -0.48040831358814        0.40686098890153
N           -0.94512295867808       -1.22578741791494        0.06073078100008
C           -1.34587510443730       -2.60696994390984       -0.09325611495637
H            3.68119218314556        1.14239945796728        1.24532877124772
H            4.32597656717374        0.69670068795326       -0.34982408518448
H            3.14302585123818        2.02783104237769       -0.21088837438386
H            3.49546161032999       -1.73523106692011       -0.15128508725264
H           -1.83233410984656        3.07408990447219       -0.34117298858647
H           -2.99958529053173        1.94005393471443       -1.06525910381601
H           -3.06210986633977        2.28996215235067        0.66427337953003
H           -0.75820933404722       -3.25729612351694        0.56017079891677
H           -1.21506482562139       -2.92023079025728       -1.13491736686070
H           -2.39480615212589       -2.67885968604751        0.18292759343305
H            1.23796369169273       -2.86331616417452       -0.12606275143638
25
 energy: 6.150304292314 xtb: 6.6.1 (8d0f1dd)
C            3.45499899949604        1.01439436156268        0.21323286531818
N            2.34767447818178        0.12928284566880       -0.04686146493344
C            2.54941321305411       -1.21436312719521       -0.04515555400248
N            1.35791164555384       -1.84857561462110       -0.09165830175962
C            0.36767392953713       -0.92739771766288       -0.01741931500472
C            0.93033584998633        0.35433752897869        0.02711643564186
C            0.05507320863027        1.48476737330577        0.04286126911690
O            0.26383332289600        2.68145506711142        0.04400245204080
N           -1.42145346616390        1.07641515937714        0.04584716654764
C           -2.41526462700380        2.13328027229955       -0.21751268548436
C           -1.91316719582176       -0.18044637195067        0.25145918974155
O           -3.05500431646347       -0.47296365191033        0.53415376538153
N           -0.94764341310105       -1.21407803563595        0.09094060163997
C           -1.33147036160485       -2.59674346016205       -0.09582123887640
H            3.63538157653714        1.12397878811395        1.29797422010783
H            4.37496460615262        0.57880626274987       -0.23844330152694
H            3.26123415108215        1.99653698643661       -0.24118756385459
H            3.48491934939398       -1.71068760358824       -0.23267180448568
H           -1.89182634750929        3.06999259052681       -0.44044050479918
H           -3.04086405419920        1.86789557551791       -1.08571081651280
H           -3.08801131199093        2.32134948544449        0.62479340726310
H           -0.67239643722971       -3.26518510945825        0.48273401141914
H           -1.26457909497158       -2.85531323301545       -1.16500226494905
H           -2.35858433287159       -2.71486900630301        0.25625884281540
H            1.22906529636589       -2.84284076341875       -0.16645551469738
25
 energy: 4.722039163337 xtb: 6.6.1 (8d0f1dd)
C            3.44807631687532        1.01069145983401        0.24944569589221
N            2.33406584224516        0.16553354192706       -0.05181912438880
C            2.56559222658302       -1.18519792860926       -0.07119114855523
N            1.36226718875113       -1.84935316366495       -0.11571662011671
C            0.37075882772435       -0.92038905330578       -0.02352752984192
C            0.91940735567422        0.35839259925516        0.03686545813829
C            0.04476715974815        1.48191284572989        0.03802669982663
O            0.32582789041319        2.68793402136698        0.05518921547351
N           -1.39000107602050        1.07580529495025        0.02605743036312
C           -2.41561087823906        2.10338134424038       -0.24225778982970
C           -1.89435919611901       -0.16135883104373        0.26959436372658
O           -3.02953669903109       -0.41353546643343        0.58836456723470
N           -0.95199799867776       -1.22215580086994        0.11720341667376
C           -1.35723122422999       -2.58918587500161       -0.08361562453215
H            3.56811886140543        1.14100357260910        1.32842405203531
H            4.34102338650455        0.49915004810813       -0.13377746984089
H            3.33230959627268        1.96731592142787       -0.24403026034952
H            3.50265537467415       -1.64109315399650       -0.32090436495780
H           -1.92644406102625        3.04374893161425       -0.51349841558794
H           -3.05542660495748        1.79087772370545       -1.07800090014631
H           -3.06874574275387        2.29833203020617        0.60480082395878
H           -0.65753650170707       -3.26253519021615        0.42884739330691
H           -1.35086301613374       -2.82067059102292       -1.15629674863691
H           -2.35323415960226       -2.73214957553042        0.32017812786818
H            1.24833179956288       -2.83742610310822       -0.20132735156684
25
 energy: 7.291053892373 xtb: 6.6.1 (8d0f1dd)
C            3.46655149536958        0.99418593213266        0.28910520009301
N            2.32843409335908        0.18381404777489       -0.07042668887402
C            2.56433124341464       -1.17716128438714       -0.10212620973998
N            1.35758570064823       -1.83727600748806       -0.14422163251151
C            0.37243458937602       -0.91118673497913       -0.02691426089640
C            0.91192283015799        0.36943956914996        0.03717086670567
C            0.02788104607489        1.48690208843931        0.03923216274482
O            0.31848208610144        2.68923247142590        0.05440383594685
N           -1.39695209546366        1.08346156409210        0.02177352537466
C           -2.43563343396738        2.09247749217318       -0.27550963786783
C           -1.88833866353457       -0.15352886699405        0.31942690141703
O           -3.01617679091333       -0.40376448168650        0.68063306195209
N           -0.94834710404799       -1.21629565757231        0.14808414371657
C           -1.35212129884398       -2.58067872130483       -0.07874816936537
H            3.51246969117361        1.15974288111093        1.38256135277766
H            4.37932891688204        0.42432934416486       -0.00837351824950
H            3.44473512026572        1.95334733390576       -0.26473580569454
H            3.49553596147876       -1.62142872128117       -0.41335007284394
H           -1.95733079956716        3.02460932776514       -0.60198505179821
H           -3.08775188053957        1.72684765943812       -1.08676053534612
H           -3.07627797012944        2.32194488429573        0.58014194813070
H           -0.61247529541449       -3.27040268560539        0.36648014487227
H           -1.41826761099875       -2.77693455448107       -1.16922275907980
H           -2.32455234434334       -2.74639025161091        0.39686732160536
H            1.24674718139781       -2.82625802630622       -0.24647222692216
25
 energy: 6.132942557201 xtb: 6.6.1 (8d0f1dd)
C            3.46031296620360        0.99908641277686        0.32068853498672
N            2.32256004215101        0.19438287199519       -0.08450494580132
C            2.57014769941778       -1.18366139520712       -0.13360014949136
N            1.35937253037839       -1.83476060768580       -0.16750443627916
C            0.38192128650246       -0.92338232793334       -0.02746193444203
C            0.90650209416846        0.36101078768639        0.03457251509404
C            0.01288174205955        1.47528747298798        0.03465327330234
O            0.32228370902211        2.66737305972938        0.03615418443232
N           -1.39004508340807        1.08894659897864        0.00795981849781
C           -2.43050916016677        2.08712899385207       -0.29554388449476
C           -1.86673416293731       -0.15110160610591        0.33854773929517
O           -2.99776032112116       -0.39239071550918        0.70286674361797
N           -0.93785009685602       -1.21751186446086        0.16726672015549
C           -1.36295802845240       -2.57541895147542       -0.06421289912892
H            3.47502260464152        1.19987711475467        1.40793941477406
H            4.37259831311373        0.43881139382869        0.07324411888481
H            3.48410374968682        1.94700825889408       -0.23460045648940
H            3.49282879601798       -1.61121508461154       -0.48834428473472
H           -1.94833281667384        2.99943462185217       -0.65129352158192
H           -3.09172629904381        1.69416995620331       -1.08329823535820
H           -3.05867480556883        2.33052268132048        0.57378355955936
H           -0.62646251873870       -3.27549235572659        0.34653737310156
H           -1.47646771712171       -2.76891499961959       -1.15052156482227
H           -2.31841421639066       -2.73149896391465        0.44551998273905
H            1.25761436105199       -2.82866275043815       -0.28181376966937
25
 energy: 5.501436535623 xtb: 6.6.1 (8d0f1dd)
C            3.44143416856930        1.00757974287484        0.35403163377935
N            2.32261942511151        0.20217895123379       -0.09698707368291
C            2.57906683278635       -1.18085161362428       -0.16445125114305
N            1.37089545182478       -1.83182992835467       -0.20072670013925
C            0.39129818340099       -0.93604022940538       -0.02939791071063
C            0.91004899495898        0.35049450990789        0.03474848690843
C            0.00670455846098        1.46755176492260        0.02857160357131
O            0.32376031955933        2.65257433269862        0.01959467405771
N           -1.37573477976768        1.08850143869638       -0.00075524479434
C           -2.41823929008717        2.07630642863512       -0.31141851107775
C           -1.84272842246359       -0.15135613935670        0.34640455159880
O           -2.97313702645647       -0.37780223234002        0.71280653151663
N           -0.92635787179668       -1.21864264108757        0.18361062431043
C           -1.38488695965680       -2.56700351794364       -0.04064777098264
H            3.40287544534912        1.24543980348300        1.43642687079097
H            4.36689376777862        0.42075958607878        0.18089337623860
H            3.51443814202875        1.93721144386736       -0.21949117281400
H            3.48974391190121       -1.58687794491766       -0.58094804264709
H           -1.94205528516740        2.97356706501919       -0.70265831988354
H           -3.09175994799744        1.65856444754625       -1.06980119078660
H           -3.03153683120053        2.33409628602252        0.56296571643542
H           -0.63823828002937       -3.27937102922448        0.32636034768194
H           -1.54656620371626       -2.75321561121326       -1.11491925174211
H           -2.31781024451952       -2.71510907712655        0.50089939346973
H            1.28148660906511       -2.82769723422038       -0.32807747380818
25
 energy: 4.551425256457 xtb: 6.6.1 (8d0f1dd)
C            3.41408944623598        1.01700900965900        0.39973380775983
N            2.33239527300054        0.20093816264963       -0.10687967847888
C            2.59148755242534       -1.18038772303125       -0.19680990410176
N            1.38721961433780       -1.83100145662687       -0.24699179644275
C            0.40208499088282       -0.95048334954370       -0.03797512280719
C            0.92442930209148        0.33697782171627        0.03625966380361
C            0.01537162740311        1.46085113303231        0.01573065379429
O            0.32039750216454        2.64220764803533       -0.00837728078826
N           -1.35798779660110        1.08153177647020       -0.00541513030619
C           -2.39627354328245        2.06434365203220       -0.32822880389228
C           -1.81950337881511       -0.15854619242773        0.34443581876193
O           -2.95210505135997       -0.37273264713321        0.72213728773718
N           -0.91201988389393       -1.21886351423672        0.19088146501491
C           -1.40884085225999       -2.55976126832620       -0.01065402395363
H            3.32393694088518        1.28661429554800        1.46196566961804
H            4.33374980156436        0.43269305591042        0.29559291413445
H            3.53035797233921        1.92270090605245       -0.18129190826914
H            3.47865538907462       -1.56282538550598       -0.67846551004692
H           -1.92586023163259        2.94483793336618       -0.76364298857541
H           -3.08508100747422        1.62056714513059       -1.05372092084646
H           -2.99198477999548        2.35060585591067        0.54737907776947
H           -0.64625375899765       -3.28652819119915        0.30660115071164
H           -1.63612864507097       -2.73006579958722       -1.07784344620298
H           -2.31844198137167       -2.69492844731028        0.58299309020602
H            1.30852016628628       -2.82672581841322       -0.38038018845225
25