25
 energy: -41.123102239122 gnorm: 5.850773810239 xtb: 6.6.1 (8d0f1dd)
C            3.15636539009237        0.77702800721451        0.47287674153151
N            2.36653589988096        0.06869417784216       -0.59727971315844
C            2.63842973227248       -1.39970932982155       -0.43346104856343
N            1.46959324732113       -1.96216413517338       -0.19741777317621
C            0.41013992846878       -1.06227867197432       -0.15348657079718
C            0.92698907627453        0.18607257005578       -0.36245507819154
C            0.12030375282286        1.37743723720718       -0.35143605467345
O            0.52687791357977        2.50428964059523       -0.50196138756036
N           -1.22272618524627        1.06191424699044       -0.12033330278054
C           -2.17195548199496        2.16473779341622       -0.08589740051862
C           -1.77856957026103       -0.18900301516351        0.06770986936763
O           -2.95086616815478       -0.35781508003758        0.23965574345501
N           -0.88839652272362       -1.29664052891624        0.05868497045613
C           -1.42675216092356       -2.62823766764758        0.25370853065210
H            2.88333669547192        0.41991288625268        1.46398470364220
H            4.21382051663895        0.58744002040080        0.29854400821835
H            2.94710417657970        1.84460561539811        0.39443963093201
H            2.51771764486066        0.24497528478432       -1.03705941764099
H           -1.62075881633476        3.09034069712922       -0.23559645467295
H           -2.91792143567436        2.03687338927483       -0.87045579590733
H           -2.68588248799030        2.18008042975663        0.87520715271288
H           -1.00976028636394       -3.08412845849938        1.15253565288222
H           -1.22253775901010       -3.25493101812604       -0.61525537014492
H           -2.50537151125408       -2.52987082578828        0.37402725114999
H            1.38471592576622       -2.96138472356584       -0.05810726931323
25
 energy: -42.118487111811 gnorm: 0.124165156643 xtb: 6.6.1 (8d0f1dd)
C            3.15615512881293        0.77639533583836        0.48142851465174
N            2.28752096237695       -0.02340564450840       -0.36231341333520
C            2.63694158565341       -1.40610279919339       -0.42773846818821
N            1.46897983656873       -1.96381883441002       -0.19700557779155
C            0.40862186954996       -1.06305402346978       -0.15289333325800
C            0.91987346295838        0.18300619255008       -0.35408485819242
C            0.12018210703383        1.37757749851943       -0.35220373388832
O            0.52707293141771        2.50428246260200       -0.50171422506685
N           -1.22278541006308        1.06194354188234       -0.12054196059832
C           -2.17196724295462        2.16476715313218       -0.08589474012085
C           -1.77854318300196       -0.18901267488992        0.06772454991568
O           -2.95086839787635       -0.35780373610845        0.23966658107077
N           -0.88867696430340       -1.29669595579814        0.05849665830296
C           -1.42677575344274       -2.62827190773102        0.25370874171671
H            2.88404469210428        0.42053647180115        1.46515704934903
H            4.21353814089073        0.58713861421475        0.29811001545525
H            2.94680859969095        1.84434186441622        0.39404888643960
H            2.60789937421108        0.34964376053205       -1.29498953974006
H           -1.62076092906053        3.09033723558149       -0.23560404360836
H           -2.91792016733452        2.03687307169295       -0.87045518660044
H           -2.68588165577704        2.18007822399714        0.87520438034820
H           -1.00976088875702       -3.08411117772753        1.15252840159059
H           -1.22253818546291       -3.25492764522290       -0.61523873657247
H           -2.50536314054422       -2.52987039665495        0.37403688482455
H            1.38463474140802       -2.96160808944126       -0.05826122880320
25
 energy: -42.132926166898 gnorm: 0.062436263454 xtb: 6.6.1 (8d0f1dd)
C            3.16761992100570        0.79407021252544        0.50249720783842
N            2.32977417398392        0.00334791436736       -0.40634127261966
C            2.61990995217243       -1.40945394296757       -0.40464282449199
N            1.44436491898558       -1.98580271605226       -0.20794991591754
C            0.39258272955746       -1.07864913077208       -0.15324865907632
C            0.92049064262474        0.17253588306218       -0.35001506202628
C            0.12004389843503        1.36946465795577       -0.33831275953150
O            0.52941809595653        2.49437187299821       -0.49876598875313
N           -1.22530495865210        1.05659924399808       -0.12043332551465
C           -2.17212483469933        2.16286025481344       -0.08702814198499
C           -1.78649173320660       -0.19283817755906        0.06883628025097
O           -2.95923738353748       -0.35513940521893        0.24274671184236
N           -0.90525247146229       -1.30626739413512        0.05410366012536
C           -1.43982251041554       -2.63623485659415        0.25473101220959
H            2.93261612023756        0.47741253531760        1.52027139995860
H            4.21748354285922        0.59483355538075        0.30057083045911
H            2.95356106966250        1.85626445840048        0.39065173321788
H            2.65215518867731        0.36929004078812       -1.33750483750418
H           -1.61984304809885        3.08761137665036       -0.23682567741600
H           -2.91840789920298        2.03633142791490       -0.87122522058349
H           -2.68575054825318        2.17956560314709        0.87408536317263
H           -1.01531806950501       -3.08470333723052        1.15390083849488
H           -1.23177476433249       -3.26339791894499       -0.61234159370111
H           -2.51724876102538       -2.53800674285890        0.37877793051213
H            1.35698824233181       -2.98582687338180       -0.08536607106027
25
 energy: -42.136668014047 gnorm: 0.024904615105 xtb: 6.6.1 (8d0f1dd)
C            3.17268149510395        0.80257310700832        0.50859271641453
N            2.35505971888837        0.02008335137066       -0.45329885797706
C            2.62110543920521       -1.41777806473822       -0.38371524052207
N            1.43959695171181       -1.99206739423346       -0.19996308833500
C            0.38990594048238       -1.08317824040672       -0.14411522392051
C            0.92201829177105        0.16772265257612       -0.33068968654008
C            0.12035008739953        1.36310412837816       -0.31941305420239
O            0.53313304261707        2.48687598419330       -0.48223222031911
N           -1.22763358141073        1.05318067727238       -0.11691713456699
C           -2.17248821351334        2.16145043529926       -0.08845619742069
C           -1.79157899604848       -0.19478911382494        0.07031230059579
O           -2.96557183787052       -0.35507995965312        0.24245258732219
N           -0.91185559846861       -1.30855026936538        0.05159886419147
C           -1.44870637058442       -2.63857246415517        0.25329994838360
H            2.94724837670479        0.50107901687009        1.53396866231288
H            4.22242911042699        0.60396238218345        0.30829937137002
H            2.95026599262202        1.86085720528760        0.38812910928655
H            2.67409090301021        0.37839858252334       -1.38358509404040
H           -1.61677152918245        3.08397802049966       -0.23908305639326
H           -2.91605749663311        2.03475974286867       -0.87517450306676
H           -2.68904315104992        2.18151516252534        0.87105577715846
H           -1.02593468225404       -3.08638062556751        1.15375580317625
H           -1.24146150367455       -3.26874194687559       -0.61171185509908
H           -2.52635128874229       -2.54151968723842        0.37710980657622
H            1.34600041358768       -2.99464414119339       -0.09904811648377
25
 energy: -42.137072044606 gnorm: 0.015642121881 xtb: 6.6.1 (8d0f1dd)
C            3.17221689281791        0.80202926292404        0.50708137992630
N            2.35897660970435        0.02589830172615       -0.46953910193306
C            2.62483542962897       -1.42101515232216       -0.38509415659301
N            1.44466248381392       -1.98947429716919       -0.19300535666756
C            0.39345220299553       -1.08216254135313       -0.13998422974489
C            0.92316605301943        0.16807336734541       -0.32136198612936
C            0.12058391897616        1.36179548952793       -0.31629647812861
O            0.53473036660622        2.48645229328456       -0.47006983951809
N           -1.22758356518231        1.05213316342857       -0.11557013369089
C           -2.17192371810015        2.16046954438735       -0.08957307570370
C           -1.79096883336746       -0.19576503051717        0.07109470104234
O           -2.96495205149157       -0.35679918719011        0.24251756571549
N           -0.91014372227346       -1.30826205563900        0.05204138767124
C           -1.45127645635311       -2.63777338110847        0.25358793534199
H            2.93576833264609        0.49115565304304        1.52339202733938
H            4.22510798820602        0.60964085800339        0.31449027705754
H            2.94720979632919        1.86076506700946        0.39124810678081
H            2.67494173558807        0.38160320191508       -1.39901035431802
H           -1.61515475609213        3.08214397403426       -0.24184719352782
H           -2.91447564928914        2.03215146905740       -0.87700858531411
H           -2.68975339634553        2.18291668009887        0.86916262702536
H           -1.03224056148157       -3.08780963846570        1.15453964633590
H           -1.24767044186562       -3.26973067363742       -0.61113809827189
H           -2.52914675993892       -2.53800278649884        0.37600211434689
H            1.35006961554770       -2.99219504027992       -0.09448756114142
25
 energy: -42.137241653025 gnorm: 0.011504580933 xtb: 6.6.1 (8d0f1dd)
C            3.16793639898918        0.79719338762142        0.50624319103442
N            2.35808476420130        0.03034294625011       -0.48069790555244
C            2.62860313620686       -1.42191967131383       -0.39446539784052
N            1.45113870436949       -1.98577345311661       -0.19127097321484
C            0.39808977673825       -1.08012870122311       -0.13720867305198
C            0.92426333851937        0.16993252649598       -0.31608635375350
C            0.12135356207357        1.36271047897516       -0.31454531751182
O            0.53556088886703        2.48823764790572       -0.46247730212659
N           -1.22673777063314        1.05237596849616       -0.11456437657707
C           -2.17168348373621        2.15988551124513       -0.09208780047381
C           -1.78847846538322       -0.19597723874112        0.07283076612280
O           -2.96238301305998       -0.35813565340677        0.24355275331925
N           -0.90608329529261       -1.30724535345112        0.05517093851375
C           -1.45093939002072       -2.63602908067902        0.25591004190787
H            2.91938274632452        0.47246342888722        1.51366089799801
H            4.22348949000433        0.61074675249863        0.32005489580874
H            2.94309762499464        1.85747908082269        0.39928076903321
H            2.67126148684667        0.38463874156407       -1.40855359879486
H           -1.61505776910663        3.08139440649351       -0.24604180839493
H           -2.91361676331032        2.02898219104317       -0.87975929060681
H           -2.69037863890284        2.18472093930466        0.86609341406130
H           -1.03473380505013       -3.08872396748501        1.15662316239397
H           -1.25067844526217       -3.26827523520486       -0.60953492624880
H           -2.52885710760047       -2.53251362302564        0.37745354747158
H            1.35779754332182       -2.98814348835215       -0.08840903561611
25
 energy: -42.137318837469 gnorm: 0.009451122042 xtb: 6.6.1 (8d0f1dd)
C            3.16297315708549        0.79112454466482        0.50743122552840
N            2.35610196831521        0.03424969074679       -0.48748245060394
C            2.63048334611270       -1.42028262225506       -0.40610074595645
N            1.45542282438531       -1.98274157396617       -0.19459408133771
C            0.40130519036686       -1.07816661454741       -0.13597657770374
C            0.92517320265126        0.17207096032176       -0.31602272736201
C            0.12200599894613        1.36453311595319       -0.31515734773159
O            0.53552164655745        2.49046397459970       -0.46134286908927
N           -1.22582963852762        1.05336847646616       -0.11443557729273
C           -2.17191916580528        2.15973271181291       -0.09486888158575
C           -1.78590647888756       -0.19544204937756        0.07491932876820
O           -2.95971156502417       -0.35827610008959        0.24565875895381
N           -0.90239954346292       -1.30609356730563        0.05958435685435
C           -1.44894674307325       -2.63443198453269        0.25953269419723
H            2.90589711529192        0.45416664855475        1.50883507096286
H            4.21990411474833        0.60779012289613        0.32585985785802
H            2.93998761998533        1.85312251655874        0.41052910708876
H            2.66766067021477        0.38758328635684       -1.41329729821780
H           -1.61625773733387        3.08149132645490       -0.25083504469960
H           -2.91375738546040        2.02591767106114       -0.88216032562457
H           -2.69075246841183        2.18663597664849        0.86321326650081
H           -1.03333801427041       -3.08894823926268        1.15940795445553
H           -1.25063787786469       -3.26601558192595       -0.60689415474194
H           -2.52671172967659       -2.52867531454442        0.38148026993267
H            1.36416300723643       -2.98493883368475       -0.08611219125270
