25
 energy: -42.182026990712 gnorm: 0.006330295732 xtb: 6.6.1 (8d0f1dd)
C            3.28658099725804        0.92827866310041        0.09842713055812
N            2.38361765192935       -0.03740522786324        0.02841709054541
C            2.58804547651269       -1.36379376929144       -0.12625493936410
N            1.38156504179698       -2.03096293307918       -0.14359239640069
C            0.39638301252195       -1.14816763817572        0.00008923552522
C            0.99049526931211        0.13321095224439        0.08001892396350
C            0.18978424327748        1.25994692000922        0.03154573941732
O            0.63284362289914        2.49990174124521       -0.06647220658915
N           -1.15188140245765        1.06362539799837        0.04840872416861
C           -2.06752049705231        2.19478232719860        0.00869469737159
C           -1.78050779938610       -0.19506170886868        0.07841415724233
O           -2.97228095879797       -0.28804344637319        0.11929121394840
N           -0.94819426081867       -1.31176972797712        0.03599498693240
C           -1.54473812586864       -2.63434665128729        0.01400227600262
H            3.05233814910431        1.89332689705295        0.50088820794392
H            4.31444687950158        0.67714861729720       -0.03538524344676
H            1.59846028665178        2.51271648246092       -0.21688449262410
H            3.54171617281341       -1.83061949928791       -0.22311020033952
H           -1.49963401449460        3.11915475448601        0.01456273112790
H           -2.68048799888409        2.13450848902515       -0.89026963787656
H           -2.72906756986652        2.15234311554587        0.87332288759881
H           -1.20803953898996       -3.21354058433094        0.87413920013947
H           -1.28711252134316       -3.15275870330819       -0.90998664008874
H           -2.62529396153349       -2.51229730526976        0.06554456696279
H            1.29891336001441       -3.03193862095174       -0.22863439481883
