25
 energy: -42.083168236999 gnorm: 0.019795775893 xtb: 6.6.1 (8d0f1dd)
C            3.09362255252184        1.73185204873239        0.03463379225780
N            2.35322181319687        0.56501479641966        0.03275951935978
C            2.62885388594164       -2.39277397658482       -0.03147174512709
N            1.35240236972859       -2.19402524237932       -0.00969101055940
C            0.58726010638207       -1.03346964283490        0.00101809919008
C            1.09855763567261        0.29974306230024        0.00806595858387
C            0.09940279273818        1.43437206879644       -0.01625926570121
O            0.45639387306534        2.58861915053658       -0.04118332916521
N           -1.21907549711851        1.07854010724104       -0.00261823652912
C           -2.23049431006415        2.13030337889172       -0.00559924782961
C           -1.71240245202747       -0.20648841659903        0.01075484302159
O           -2.89165578264895       -0.43533561134175        0.02489757821556
N           -0.76662491001449       -1.24242065645906        0.00201017417418
C           -1.34152143687243       -2.57992102241573       -0.00615494213225
H            3.63780726567344        1.79907070444753        0.98334051363496
H            3.84547120077717        1.65916723440802       -0.75921710973905
H            2.48355826746358        2.63765375769036       -0.10380157435423
H            2.97707329928245       -3.44186673593425       -0.04449228448084
H           -1.72795012639726        3.09394928824787        0.00502076138829
H           -2.85202359219090        2.03645564684467       -0.89563017237803
H           -2.86753729928613        2.02341197354661        0.87178304633550
H           -1.07010706736898       -3.14014740880399        0.89130546263249
H           -1.07723918564754       -3.12438525786178       -0.91533188262592
H           -2.42614875235891       -2.45419823918688        0.00006406812688
H            0.72958686365205       -3.01488246610104       -0.00303139839865
25
 energy: -42.087097310176 gnorm: 0.014668094081 xtb: 6.6.1 (8d0f1dd)
C            3.09809692034866        1.68464061200825        0.03357814023092
N            2.35174718936076        0.51865583000110        0.02898314135766
C            2.63692945253990       -2.29926840915193       -0.03016036694231
N            1.35235288382144       -2.17139278448784       -0.01013915192034
C            0.56538224338086       -1.03447283926187        0.00048832863091
C            1.09044805102257        0.28581455780958        0.00699379592814
C            0.09885904124499        1.42818159190262       -0.01541884420857
O            0.46264059909751        2.58020670006490       -0.04080573228512
N           -1.22215832639502        1.07827944667839       -0.00232949991683
C           -2.22936297563189        2.13383296446592       -0.00566156815151
C           -1.72430901559295       -0.20491798383952        0.01045014755981
O           -2.90457888575826       -0.42724743338249        0.02443467726692
N           -0.78493635974719       -1.24562394878986        0.00180395719300
C           -1.35531502451010       -2.58433186963665       -0.00584682238500
H            3.64213499150352        1.75517869903556        0.98192002112724
H            3.84681179973708        1.62231789147917       -0.76305659917514
H            2.49003738233171        2.59401827419581       -0.09892704528170
H            3.03849443494051       -3.31526012779888       -0.03955457369242
H           -1.72459031891545        3.09606716614726        0.00496762517826
H           -2.85082812954802        2.04130362059630       -0.89595548827787
H           -2.86699608382076        2.02831880663706        0.87154797336378
H           -1.08181922591269       -3.14248491819410        0.89221803714316
H           -1.08817481282722       -3.12783885790401       -0.91471096354466
H           -2.44014584040908       -2.46060702021440       -0.00011717210163
H            0.75971152383920       -3.01513142675982       -0.00353039919634
25
 energy: -42.093595366937 gnorm: 0.022474153738 xtb: 6.6.1 (8d0f1dd)
C            3.10478521345109        1.59285438381977        0.03101436115335
N            2.34871509421433        0.42685382679978        0.02068571611816
C            2.64547682743608       -2.11262201573075       -0.02368849662534
N            1.34487238173721       -2.13487476269668       -0.00923414941187
C            0.51797130054751       -1.03699312025713       -0.00025287074528
C            1.07230183566291        0.26297023700642        0.00545538177653
C            0.09907172042926        1.42050193730531       -0.01376863987347
O            0.47423947739450        2.56906630134379       -0.03832307881267
N           -1.22605335606130        1.07890416034732       -0.00178323333074
C           -2.22512468000792        2.14184606554124       -0.00579803443856
C           -1.74807609498815       -0.20015740887252        0.00971865601322
O           -2.93034845971462       -0.40872613322255        0.02282878585347
N           -0.82300075269141       -1.25107263434074        0.00124903455870
C           -1.38046439982626       -2.59255449839797       -0.00542603464452
H            3.65031153495450        1.66741712484805        0.97799107389688
H            3.84876521799315        1.54879153699786       -0.76978841112137
H            2.49448668777570        2.50463699144882       -0.09069281836793
H            3.16500248480180       -3.06924753003825       -0.03255327447940
H           -1.71492486540094        3.10089724772521        0.00493045723557
H           -2.84690782507936        2.05265981891764       -0.89644416414176
H           -2.86444997209983        2.03990854707522        0.87082432153662
H           -1.09408378751826       -3.14525851168945        0.89132601675183
H           -1.09981011380751       -3.13289471443014       -0.91143646037713
H           -2.46639241311159       -2.48002897706488       -0.00051383733008
H            0.81406845800922       -3.02463933083481       -0.00514868329388
25
 energy: -42.103009835300 gnorm: 0.043057065752 xtb: 6.6.1 (8d0f1dd)
C            3.11402774837101        1.48445856954722        0.02775040515700
N            2.34180205097636        0.32016194500265        0.01058398427094
C            2.64522215471882       -1.89193822765024       -0.01518460672959
N            1.34016961477881       -2.09266770373839       -0.00773745016973
C            0.46455511446164       -1.03934340313324       -0.00084491761201
C            1.04850909818412        0.24093351659096        0.00414488458131
C            0.10005651818935        1.41347828329241       -0.01129315364028
O            0.48564317838491        2.55887433219062       -0.03387731430324
N           -1.22919671763017        1.07839788303728       -0.00110509737742
C           -2.21940445556733        2.14981253260744       -0.00593092607746
C           -1.77489246182356       -0.19516392045141        0.00865090702220
O           -2.95933992253478       -0.38797085246782        0.02029976366259
N           -0.86606141825545       -1.25752504526638        0.00067535805330
C           -1.40906226522801       -2.60181023243702       -0.00499429436799
H            3.66145064298822        1.56285913154074        0.97315025857427
H            3.85317778074214        1.45954722284919       -0.77719701012706
H            2.49603964725015        2.39398411121019       -0.08313763000245
H            3.30021781607092       -2.77788008823010       -0.02401677651208
H           -1.70280760505956        3.10526060601374        0.00516937342001
H           -2.84181219644444        2.06516966052175       -0.89683400149361
H           -2.86104943495339        2.05262455278719        0.86976195794285
H           -1.10694119614714       -3.14841028307006        0.89008404021927
H           -1.11203064103853       -3.13822031624945       -0.90788330544437
H           -2.49579123907429       -2.50480073120640       -0.00100325898173
H            0.88794970274029       -3.03159300169035       -0.00805957216435
25
 energy: -42.129709452158 gnorm: 0.092370222676 xtb: 6.6.1 (8d0f1dd)
C            3.12988511857415        1.37156120224062        0.02554287699200
N            2.33570335902871        0.20896634294566        0.00148187290874
C            2.63812339632760       -1.67453679285197       -0.00783470640403
N            1.33954193606158       -2.03859463768427       -0.00572366592655
C            0.41492479498807       -1.03623219347040       -0.00106915317286
C            1.02403403284750        0.22018738476213        0.00292604030644
C            0.10147562443562        1.40673934938506       -0.00940589831647
O            0.49642610961072        2.54935673559820       -0.03029036211918
N           -1.23216448417086        1.07663664344548       -0.00064115984129
C           -2.21561346575750        2.15446740056595       -0.00614959297144
C           -1.80056565170042       -0.19145017474307        0.00774009205731
O           -2.98703269547794       -0.36965415144144        0.01797077870235
N           -0.90738891045722       -1.26294048243022        0.00042075460882
C           -1.43236728487904       -2.61162707074997       -0.00460939466308
H            3.67520165998939        1.46334801815735        0.97071203785550
H            3.86281376980365        1.37306115288221       -0.78493388189356
H            2.49840192638195        2.27481096598222       -0.07724163382206
H            3.40130229110704       -2.49040894839158       -0.01770109345065
H           -1.69499854177706        3.10743737412407        0.00521006977468
H           -2.83865287687029        2.07246500673338       -0.89706910963320
H           -2.85918801460728        2.06021557947858        0.86865387150399
H           -1.11464258606721       -3.15212544075006        0.88892842542079
H           -1.11920387298399       -3.14349154182727       -0.90492737260121
H           -2.51975421117412       -2.53103997847392       -0.00141233102785
H            0.96417009086700       -3.01891320188625       -0.00940584638686
25
 energy: -42.203280180317 gnorm: 0.123016308620 xtb: 6.6.1 (8d0f1dd)
C            3.14797019916538        1.25143447102359        0.02493656540128
N            2.35305440102097        0.05437954781840       -0.00676438518570
C            2.60916759722383       -1.43799932391140       -0.00272128612179
N            1.32675981625497       -1.97949042403740       -0.00386596014597
C            0.36838988980347       -1.03274404774054       -0.00058912055637
C            1.00768199863881        0.19005620903099        0.00259816858403
C            0.11396239939995        1.39597467686721       -0.00862203959307
O            0.51329193153548        2.53777023134196       -0.02871671198508
N           -1.22722767222199        1.07138495073911       -0.00046619833963
C           -2.20970272521555        2.15246452066329       -0.00666143367961
C           -1.81922196640661       -0.18994498634531        0.00749618895557
O           -3.00662065908295       -0.35522529936108        0.01672761944935
N           -0.94392291613508       -1.26805470160834        0.00080280030116
C           -1.44687362236871       -2.62116828002245       -0.00406750974152
H            3.68429886988748        1.39604546086014        0.97011485619906
H            3.87560684195171        1.31722739206978       -0.79036775185232
H            2.49013287300415        2.14620189632636       -0.07329885494152
H            3.44378985233932       -2.20009626829439       -0.01490423304511
H           -1.69153830018249        3.10607771595980        0.00460041292793
H           -2.83522295363192        2.07112329002121       -0.89651029657636
H           -2.85627619878181        2.05952417695482        0.86669893048624
H           -1.11468711746675       -3.15526421669281        0.88836518268428
H           -1.11902511145477       -3.14735767053154       -0.90284682419249
H           -2.53313771729611       -2.55212499716516       -0.00137699938942
H            1.02978180411923       -2.99195578236578       -0.00938950174259
25
 energy: -42.158719692814 gnorm: 0.599832802102 xtb: 6.6.1 (8d0f1dd)
C            3.15964636350935        1.13745466693980        0.02400810597456
N            2.37500758209205       -0.10557166050274       -0.00869181399133
C            2.57951555901960       -1.19870832514194       -0.00514731927920
N            1.31778824832925       -1.92635873243375       -0.00258946867328
C            0.32926710470880       -1.02828801710413        0.00066083472059
C            0.99328717887237        0.16806222703178        0.00376462309303
C            0.12797522094627        1.38828349628583       -0.00878020464747
O            0.52396130121067        2.53046050700280       -0.02769845967441
N           -1.22212039980898        1.06687217417396       -0.00080906407609
C           -2.20434748714563        2.14964361149175       -0.00755036950274
C           -1.83409026946784       -0.18738833804633        0.00726807662194
O           -3.02179162256276       -0.34167381120725        0.01571156971190
N           -0.97160150555657       -1.27319025297729        0.00172257840993
C           -1.45764241762729       -2.63096585332936       -0.00313732439010
H            3.68784283415568        1.32553724315744        0.96738157752685
H            3.88351959072367        1.25393598270699       -0.79058812234341
H            2.48489583150533        2.02327129689935       -0.07266596191429
H            3.46046193264212       -1.91360264736187       -0.01274437496448
H           -1.68826321616485        3.10384088704983        0.00343096797878
H           -2.83171762731576        2.06764720499086       -0.89655272376778
H           -2.85311728179227        2.05687963032592        0.86474999791141
H           -1.11400233336160       -3.15936664491487        0.88818721256339
H           -1.11796313343232       -3.15215273334296       -0.90034978596443
H           -2.54366901047957       -2.57365582022770       -0.00098042194561
H            1.09758907110033       -2.96272754986569       -0.00742851147745
25
 energy: -42.231688187397 gnorm: 0.082617569261 xtb: 6.6.1 (8d0f1dd)
C            3.16757886068405        1.18148975510037        0.02381813427711
N            2.33530415611651        0.02159565461982       -0.00598780331785
C            2.59935995324154       -1.32786405362006       -0.00544961819248
N            1.33410310395507       -1.94774147900639       -0.00295981305639
C            0.34813178872135       -1.02584667009332        0.00064881729560
C            0.97782062691564        0.19800878802218        0.00347763961407
C            0.11642046475361        1.39608057678917       -0.00923649608155
O            0.51838575170273        2.53544176511154       -0.02745745354476
N           -1.22816202417928        1.06886978653942       -0.00075623443965
C           -2.20614740558881        2.15152185915611       -0.00721980911090
C           -1.83356948314245       -0.18644862602651        0.00715872971213
O           -3.02200744139822       -0.34062363575209        0.01561566355641
N           -0.96339727935323       -1.27298882355100        0.00166781870788
C           -1.45713743769303       -2.63141632011488       -0.00338062631328
H            3.69080913295486        1.31561719643823        0.97069387493646
H            3.88477550722234        1.24123233279825       -0.79189863436223
H            2.48882473556492        2.03961826242445       -0.07506279797250
H            3.46925045120580       -1.97966763456895       -0.01429441465939
H           -1.68659739379561        3.10397397438075        0.00386085593516
H           -2.83105002484477        2.06824243752111       -0.89680898916810
H           -2.85246280052716        2.05725101844765        0.86565720917970
H           -1.11587675430979       -3.16062608156023        0.88800108948963
H           -1.11970302938901       -3.15311421159887       -0.90075804966023
H           -2.54501702903203       -2.57621665431477       -0.00121037364993
H            1.09079508431500       -2.95815067554153       -0.00694710127456
25
 energy: -42.230499834677 gnorm: 0.079064718246 xtb: 6.6.1 (8d0f1dd)
C            3.17898555066449        1.19673648306079        0.02634995865741
N            2.35377051604385       -0.00505551825558        0.00420126753634
C            2.54192943592695       -1.35176982782242       -0.02098619542253
N            1.33338132826390       -1.95145528681596       -0.00290601347857
C            0.38209143275037       -1.01841882288902        0.00287931221372
C            0.97579009744319        0.21973425688391        0.00551516943022
C            0.11866658733135        1.40881065295314       -0.01247211196942
O            0.49435537718982        2.55611426161988       -0.03073137728477
N           -1.22925341784262        1.06583985554125       -0.00253984606845
C           -2.21777655760953        2.13945633550758       -0.00822878887347
C           -1.81631212036449       -0.19130321252550        0.00703961171688
O           -3.00051943807980       -0.35771532489815        0.01561790456787
N           -0.93243144046839       -1.27272363694882        0.00352569884843
C           -1.43082492570181       -2.63420349451802       -0.00256843070875
H            3.70040082095608        1.32815730657360        0.97199371749508
H            3.89658454663503        1.24092969187190       -0.78220426140204
H            2.52020603122045        2.06644747895551       -0.08235900626433
H            3.33485519935542       -1.99652832880637       -0.02066576506548
H           -1.70230314094978        3.09427595201962        0.00249392373704
H           -2.84233683572063        2.05244799473005       -0.89779246453394
H           -2.86223985827105        2.04165060554783        0.86574462669774
H           -1.10146935582372       -3.16672932630290        0.88952812756711
H           -1.10465312788433       -3.15750693596506       -0.90151577514557
H           -2.51797594335644       -2.58007155485448       -0.00041306240277
H            1.08751075239172       -2.90888106306234        0.00166539805254
25
 energy: -42.239671473970 gnorm: 0.070507703664 xtb: 6.6.1 (8d0f1dd)
C            3.18798064662793        1.17802593533721        0.02254694745809
N            2.31075057299677        0.00738204899881        0.00059206967240
C            2.51964349502041       -1.30373577149827       -0.01230021142510
N            1.33654954820989       -1.96449412069005       -0.00343955046512
C            0.36921546681408       -1.03281188122974        0.00257618860775
C            0.93332324187191        0.22884342258214        0.00310140382951
C            0.09577914739967        1.41896981348388       -0.00983396576068
O            0.47216993988816        2.56724280302359       -0.02901848787805
N           -1.25301335225840        1.07061660724459       -0.00173001815387
C           -2.22610328789202        2.15468581081529       -0.00738226227159
C           -1.83370812104545       -0.18770235021510        0.00584075801913
O           -3.01778378377113       -0.34962642797793        0.01330065616716
N           -0.94777291152222       -1.28170055758727        0.00318894953387
C           -1.45382828614544       -2.64343522224050       -0.00284892950967
H            3.72268225097960        1.22846110023953        0.96998621856846
H            3.90632750978346        1.13785599124878       -0.78529398175835
H            2.57853298702028        2.07839169971917       -0.08299277951630
H            3.51875644539984       -1.84861149666039       -0.01433529774454
H           -1.68941258322210        3.09937055077186        0.00408522975069
H           -2.84574947884467        2.07473204546116       -0.90022078640695
H           -2.86656500880561        2.06303327676326        0.86935524356004
H           -1.13031606017259       -3.17664838856841        0.89053160956266
H           -1.13184129017689       -3.16713055749811       -0.90262112496575
H           -2.54139644727568       -2.59530484488847       -0.00118363806838
H            1.14621087322023       -2.93817094503460       -0.00073262290512
25
 energy: -42.243800720938 gnorm: 0.048115886915 xtb: 6.6.1 (8d0f1dd)
C            3.19387840653363        1.15745053910275        0.02010551776634
N            2.27943350457746        0.03127824831520       -0.00316916541583
C            2.57498480618424       -1.25966450483144        0.00703657026704
N            1.37718535438613       -1.94067410758274       -0.00178900903572
C            0.35092472678072       -1.03452351569750        0.00203810784572
C            0.91487525664618        0.22564703450720        0.00279715953045
C            0.08174045588008        1.41610543199412       -0.00774605096507
O            0.47023938210416        2.56015390164783       -0.02667696139889
N           -1.26636314896693        1.07065605400276       -0.00081476669234
C           -2.23118751309215        2.16230202404324       -0.00637274336417
C           -1.84909408471262       -0.18886356625141        0.00526139113525
O           -3.03499718519154       -0.34956432315321        0.01157879066057
N           -0.96509218245775       -1.28656652457558        0.00187952375865
C           -1.47137683869149       -2.64531384221273       -0.00370199675574
H            3.73307596933396        1.18065904432641        0.96949974922981
H            3.91346755343391        1.08579838600430       -0.79322607160526
H            2.59776668086786        2.06500399825733       -0.08243676066454
H            3.51977711654825       -1.79759921541461       -0.01534279823903
H           -1.68616382202727        3.10262000479504        0.00555952734930
H           -2.85130449486067        2.09050823129340       -0.89917042491530
H           -2.87255247336145        2.07816163758012        0.87002837794425
H           -1.14297032274451       -3.17723396422380        0.88994959963864
H           -1.14391005462380       -3.16840020795365       -0.90299914941032
H           -2.55908246049329       -2.59388030268866       -0.00238268682091
H            1.22717688204693       -2.96582191968396       -0.00873411194260
25
 energy: -42.246210831557 gnorm: 0.025922585583 xtb: 6.6.1 (8d0f1dd)
C            3.20914155633698        1.16356119049207        0.02198354958511
N            2.28878548642821        0.04665884818815        0.00244771382262
C            2.55086989767243       -1.24979725913321       -0.00992497211441
N            1.37100155266033       -1.94196208856319       -0.00363471860661
C            0.35104578185258       -1.03976339037998        0.00312512902644
C            0.92386661860637        0.22155135989731        0.00461097855762
C            0.08335611759490        1.40816905490332       -0.00761712207871
O            0.47083144706312        2.55152743934907       -0.02457064282396
N           -1.26880834053706        1.06457213557609       -0.00122142327833
C           -2.23654213401394        2.15629781825830       -0.00731466605598
C           -1.85059058026873       -0.19407717591127        0.00502655353690
O           -3.03633319070890       -0.35823849936485        0.00950407053166
N           -0.96530407666691       -1.29117215633524        0.00332270394845
C           -1.47731267924968       -2.64770924264409       -0.00323838867404
H            3.74990735809212        1.17844585442440        0.96989286786772
H            3.92721293858439        1.07413263803479       -0.79350006521319
H            2.62488291197389        2.07683964225689       -0.08326256317693
H            3.50367846975833       -1.75777875479693       -0.01242653214919
H           -1.69315651198675        3.09691005311360        0.00475013244441
H           -2.85907271656314        2.08916534091186       -0.89904055597439
H           -2.88128434042908        2.07717407525876        0.86738042841319
H           -1.14830078516892       -3.18156937035558        0.88917231451566
H           -1.14839930742619       -3.17250076717463       -0.90121746515011
H           -2.56500502525251       -2.59416385434166       -0.00274137184458
H            1.23596106574820       -2.95803435006358       -0.00033433720908
25
 energy: -42.247362871817 gnorm: 0.018607512498 xtb: 6.6.1 (8d0f1dd)
C            3.22360592058718        1.15211534270744        0.01676138197037
N            2.27795904638184        0.05688654778062       -0.00335969424720
C            2.53659417561271       -1.23726042577890        0.01401354158729
N            1.38439982118309       -1.93856255437342       -0.00012628160613
C            0.35597896651590       -1.04777126196361        0.00091441297944
C            0.91190484042927        0.21964451377630        0.00309453542489
C            0.07272400966709        1.40561271631464       -0.00406382657394
O            0.46077676416356        2.54825925451350       -0.01803722798863
N           -1.28124647948060        1.06112904874139        0.00037143592207
C           -2.24822673842867        2.15431399549599       -0.00387054353335
C           -1.85268624339524       -0.19960476894100        0.00197859782461
O           -3.03680232321984       -0.37289794911300        0.00490947575628
N           -0.96160504413649       -1.29690999148175       -0.00046410841519
C           -1.48626318331385       -2.64895762980139       -0.00657555759850
H            3.77161305369014        1.14634179290587        0.96028940823261
H            3.93706318601427        1.03871852298415       -0.80110421739310
H            2.67469051621658        2.08833169441895       -0.08301183416798
H            3.51070205799727       -1.69295209223484       -0.00006404725960
H           -1.70026262534450        3.09263035204431        0.01027468344430
H           -2.87111124660139        2.09443242167055       -0.89599322071645
H           -2.89403824627068        2.07919595125494        0.87036290320198
H           -1.16457375140412       -3.18689036302192        0.88548774266250
H           -1.16383977688949       -3.17833584768627       -0.90344349785373
H           -2.57285473735076       -2.58388381154293       -0.00641820793352
H            1.27592955147673       -2.93534691706921       -0.01075423581870
25
 energy: -42.247706275468 gnorm: 0.010662144489 xtb: 6.6.1 (8d0f1dd)
C            3.22624358992397        1.14546612792529        0.02373493166129
N            2.26841444390785        0.06742713957171        0.01247492461788
C            2.53971950583115       -1.22666633894336       -0.02172978497161
N            1.39416420478747       -1.94020010505415       -0.00526345597252
C            0.35387072019049       -1.05728667457870        0.00280994880769
C            0.90484936377809        0.21346318860020        0.00778449734012
C            0.06799844691817        1.40158622525007       -0.00716950855892
O            0.46219247444388        2.54214065886246       -0.01843437568776
N           -1.28539754647710        1.06001832727319       -0.00237706072401
C           -2.24937652913058        2.15518465323443       -0.00760477264070
C           -1.85429593448418       -0.20130090455206        0.00244497915515
O           -3.03842231511734       -0.37704582846709        0.00452913565264
N           -0.96396958091769       -1.30120302426115        0.00297673862470
C           -1.49799387425993       -2.64850835004412       -0.00223573547171
H            3.77381087697297        1.14833149039460        0.96567976173653
H            3.93912983176141        1.02090955974088       -0.79278195459507
H            2.69320445258256        2.08817498564177       -0.08828225795344
H            3.52383417354992       -1.65692373112468       -0.00849568354363
H           -1.69829863453526        3.09204119011634        0.00510366926036
H           -2.87204618021064        2.09570576057252       -0.89965032735535
H           -2.89460830744710        2.08312574378242        0.86720504574630
H           -1.18096816491617       -3.18795826266633        0.89057207627153
H           -1.17978664922299       -3.18145528142669       -0.89847901941261
H           -2.58369193451459       -2.57084066567211       -0.00270342142287
H            1.31185508068566       -2.94594734257504        0.00106326733632
25
 energy: -42.247838345664 gnorm: 0.008034999291 xtb: 6.6.1 (8d0f1dd)
C            3.22384345395312        1.14648686236865        0.01815544826319
N            2.26953749167741        0.07077728984196        0.00172308369622
C            2.54299409762883       -1.22597584318577        0.00525024781115
N            1.39520552460544       -1.94413288318564       -0.00164757038257
C            0.35317989656360       -1.06241018533882        0.00089261764576
C            0.90621462825058        0.20895021359502        0.00492430728953
C            0.06928884052331        1.39849249525909       -0.00252827696645
O            0.46746097749890        2.53767877436493       -0.01402410752814
N           -1.28309278515966        1.05974375164109       -0.00001198622437
C           -2.24624502304693        2.15500836426694       -0.00460244032910
C           -1.85293476055789       -0.20126702676903        0.00105794087048
O           -3.03751917394166       -0.37650811925789        0.00220808182383
N           -0.96503092165557       -1.30273138524177       -0.00042691637915
C           -1.50423663159172       -2.64750236008335       -0.00555285592055
H            3.77195069187186        1.15175090783354        0.96011986064195
H            3.93419171072893        1.03474309345564       -0.80004015225895
H            2.68919368942789        2.08841756308213       -0.08708664743285
H            3.52600292408448       -1.65199824500970       -0.00039263181299
H           -1.69537337452454        3.09189503519666        0.00971386225693
H           -2.86823632884404        2.09596449897123       -0.89709664358691