72
 energy: 35.440359058222 xtb: 6.6.1 (8d0f1dd)
N           -1.94631406420572        3.17545636640821        2.30818573338904
C           -1.81349932846899        2.31387974361613        1.40405765062982
C           -2.84383751538183        2.10566370312823        0.32053105735852
C           -3.31835634012292        0.66115627626352        0.35825674480971
C           -4.13611066401137        0.16852626028077       -0.65909381051885
C           -4.63199363259694       -1.12070188573922       -0.63506300743022
O           -5.46184441749048       -1.65678094181270       -1.57452625053857
C           -5.91857149963941       -0.83690617531209       -2.62074562434169
C           -4.28285459734948       -1.98192176711156        0.42840948075073
O           -4.80348735714746       -3.24071705204004        0.36746848772525
C           -4.56730134140106       -4.11562313416657        1.43649398348726
C           -3.48086334519938       -1.49136600081343        1.44068113980965
C           -3.01825183222509       -0.18086365457830        1.41277627958719
C           -2.13887141908601        2.40593482385434       -1.03050381478972
C           -1.20417250670675        1.30358925534020       -1.56436130342295
C            0.09385307687416        1.23300196329613       -0.85511629476762
N            0.61559023048441        0.10313524183493       -0.28977737263457
C            1.95453860329788        0.15637582505744        0.21463862067418
C            3.04464880931368       -0.07009117000311       -0.84908706677554
C            4.40542669508076        0.04200320386048       -0.19754590829640
C            4.97286725279273        1.29678327528088        0.01050906553535
C            6.29171701511959        1.41964901030346        0.43355031532015
C            7.05315274578365        0.29647337672030        0.69855009676795
O            7.14034580747649       -1.17351499253333       -1.55117835256885
C            8.34712908588336       -1.06789161501939       -1.50959419132317
C            6.41654233357958       -0.94863391340778        0.72679244648832
O            7.17364353212936       -1.94030065028708        1.25405987779777
C            6.81986439498379       -3.28872939904572        1.01010120686482
C            5.11584467228796       -1.07435707650160        0.24381101688610
C            0.07120679543342       -1.20064309722295       -0.56958439624944
C           -4.09546029169413        3.03290370199199        0.46227822825581
C           -4.87176033613413        2.75911745421116        1.74929036258615
C           -3.75889052149721        4.52152238507749        0.36998802045431
H           -4.39858436980990        0.81986910305312       -1.47566118353318
H           -6.46201597062435        0.03921098811957       -2.24918699880580
H           -6.59905379694969       -1.45784579400547       -3.20178726632739
H           -5.09372771623909       -0.50811469664858       -3.26129113038195
H           -4.96323825930724       -3.71294831746599        2.37318494519398
H           -5.09804198178415       -5.03294432639853        1.19127367952068
H           -3.50052064224125       -4.33415114145493        1.56264070767220
H           -3.22700105543017       -2.11112122397688        2.28625801704038
H           -2.44017057650969        0.17570393299813        2.25093786404963
H           -2.90259904606244        2.58110879393221       -1.79149673781415
H           -1.55904919119837        3.32318260155785       -0.92062732186661
H           -1.72335785637106        0.34686442893664       -1.54352488519857
H           -1.01364414108436        1.55417657816502       -2.62157774707133
H           -0.93472352647863        1.66661318621116        1.28648977916675
H            0.70262719781788        2.11906936958859       -0.81521779114038
H            2.07200741393829       -0.60383142015237        0.99108635761387
H            2.12374302761081        1.13902095441367        0.64440324294150
H            2.93247985600770        0.66272088063565       -1.66066231991719
H            2.91626793870518       -1.05939032998572       -1.28766962491597
H            4.43071819339192        2.19991322730224       -0.17230224931220
H            6.70794133906324        2.40760977378634        0.54007648107855
H            8.14559193338947        0.17773243981753        0.59425953470694
H            8.88516139727375       -0.25123296256335       -2.00763956546665
H            9.02968224968443       -1.90598661227618       -1.36025999933542
H            7.65694785491563       -3.89148699257155        1.36122694333894
H            5.92586255179832       -3.59249964574411        1.55544443289675
H            6.64687968988050       -3.49488880121346       -0.05299502886902
H            4.68059516892956       -2.05325519666885        0.16387539372102
H            0.02568673139198       -1.41745455383033       -1.64340263298521
H           -0.92868933773671       -1.28186287833224       -0.14789371564223
H            0.69589473911495       -1.95523092427914       -0.09618450115962
H           -4.76074369823518        2.78832824602725       -0.37508734707407
H           -4.26092646104957        3.00458847304603        2.61130007722536
H           -5.15876494787464        1.71097872139871        1.80808584693344
H           -5.77194786539449        3.37355344996171        1.77429682682768
H           -3.05975050443254        4.79016548004446        1.15438493836291
H           -3.32109169591662        4.77514988034137       -0.59229267872818
H           -4.66689964986878        5.10888283073654        0.49719370879813
H           -1.17794175303958        3.23084584568849        2.97658102841666
