25
 energy: 19.720522631212 xtb: 6.6.1 (8d0f1dd)
C            3.26610549295764        1.32335660594613        0.10205261808428
N            2.39160072990808        0.15117133170961        0.02366970223836
C            2.73412738831779       -1.20675705898787        0.04385093842371
N            1.57240241195740       -1.94400790466192        0.03347006560003
C            0.46227610559364       -1.17543967093787       -0.01110539043473
C            0.98034668456306        0.15896953406647       -0.00842813665958
C            0.16787002916896        1.30189597179646       -0.03929582422623
O            0.48905477287713        2.49883591398512       -0.04693768039347
N           -1.22055036966174        0.91896067319995       -0.05057800790839
C           -2.12339709253036        2.06155216226720       -0.05458659148760
C           -1.76132842305109       -0.33621208395322       -0.06277514031870
O           -2.97923318312793       -0.44661800962961       -0.07986547554385
N           -0.94264583101935       -1.51556486306568       -0.04631120799751
C           -1.89231092705328       -2.77946394117821       -0.07772472687778
H            3.87097437285708        1.34924665653441        1.02184025611288
H            3.97892601998219        1.39558404349587       -0.73977081967321
H            2.66325840428869        2.24964585378224        0.10942626786945
H            3.72184187069756       -1.63747667156558        0.07652264769772
H           -1.48248547568712        2.94910036097493       -0.03471191221436
H           -2.73544179666970        2.08469755126427       -0.95509220362432
H           -2.76532859377132        2.07625609953264        0.82535248907570
H           -1.80055155015330       -3.42285139900601        0.79712462963851
H           -1.76589988406761       -3.40098859323121       -0.96320394326825
H           -2.89136537173720       -2.33157572679644       -0.09035414691119
H            1.57513516576102       -2.94663224017057        0.06482459939387
