25
 energy: 103.200989954254 xtb: 6.6.1 (8d0f1dd)
C            3.36761284478501        1.13969268237884        0.10873085685526
N            2.40738629498105        0.06482385036010        0.08082415322038
C            2.72043702646326       -1.22436447674219        0.06005746930756
N            1.59131411129630       -1.96099326507223        0.06271694896755
C            0.47488804930391       -1.09114784091205        0.06692130300486
C            1.05144815574480        0.20951961698875        0.09643884736441
C            0.29819097356857        1.47191427704449        0.10440698121251
O            0.84144444582078        2.58363841157338        0.00363253484260
N           -0.98721266840836        1.24501537281212        0.30031073019602
C           -2.01842931148454        2.18876220932564        0.17071419710345
C           -4.23191813874000        0.37515457333437       -1.15138185245110
O           -4.21996514162258       -0.75450900593710       -1.09645100861776
N           -0.76960056741988       -1.36600799930568        0.01802239565386
C           -1.30611556269164       -2.68681441887335        0.03627605364415
H            3.88299695175515        1.15966047094709        1.07024639713496
H            4.10267939115874        1.00696488041663       -0.68503692455657
H            2.82954644849107        2.08063240596470       -0.02938815223291
H            3.71619162981196       -1.61914048644695        0.04861116910317
H           -1.73483314284545        3.08903500739656       -0.38884318821898
H           -2.85399694606456        1.68631087293019       -0.35168520899139
H           -2.39572282611088        2.46271907723938        1.16336291319119
H           -1.11042367827342       -3.20615703370344        0.98179109985958
H           -0.91408810952452       -3.30600298878305       -0.78127140638221
H           -2.38506504714044       -2.59379704557933       -0.08774649548043
H            1.55544912211817       -2.96588035861286        0.02577409846456
