25
 energy: -43.833326695055 gnorm: 0.112008915306 xtb: 6.6.1 (8d0f1dd)
C            3.23967472847857        1.17346012929712        0.08453819650006
N            2.30362712538587        0.08706071016791        0.03628917157425
C            2.59331906527018       -1.21397717749983        0.02310706352960
N            1.44211612334472       -1.93157675408383       -0.01036311516177
C            0.40099335950994       -1.05637148575681       -0.00856093163294
C            0.93496500479606        0.22130931414931        0.01240789743621
C            0.10276843190407        1.40452901014368       -0.00682366908449
O            0.49966670933153        2.54873536907475       -0.00371312970531
N           -1.25081932159844        1.05760363383018       -0.03635486896238
C           -2.21384827664802        2.15668478014442       -0.04769697990962
C           -1.81121460639201       -0.19938773235795       -0.05480834633134
O           -3.00599732479399       -0.37688720814096       -0.07712791701179
N           -0.92597859163097       -1.31362592797391       -0.01809417912102
C           -1.48369479699703       -2.66523944038424       -0.03012941564922
H            3.71570335856791        1.22093099308175        1.06607077029320
H            4.01157987675265        1.04532377831472       -0.67453351288798
H            2.69995006489998        2.10599814715333       -0.08947561160817
H            3.57731601022344       -1.63463511774156        0.03419360181760
H           -1.66164184427039        3.09288674043551       -0.02342136361074
H           -2.82333955318145        2.10158067706494       -0.94988734083722
H           -2.87027332257686        2.08193985555443        0.81861776455129
H           -1.27833692195677       -3.27600243780534        0.85279097507003
H           -1.11056155363947       -3.20230954399270       -0.90569880168329
H           -2.55922317045295       -2.54645795219036       -0.11989246088761
H            1.38476851276466       -2.93794867072466       -0.02783186559517
25
 energy: -43.837629228347 gnorm: 0.039504699566 xtb: 6.6.1 (8d0f1dd)
C            3.24488975898675        1.18175409212310        0.08608287141995
N            2.31040807451620        0.10024928413701        0.03361366613901
C            2.60675844169823       -1.23139173761737        0.02238224875222
N            1.43186511030197       -1.93819427864716       -0.00667290230366
C            0.40171807947339       -1.05817061937572       -0.00463813500773
C            0.92962167117820        0.22427804539294        0.01422001326498
C            0.10625821000459        1.39315721763298       -0.00518777215606
O            0.49612349007616        2.56206876980075       -0.00575059408743
N           -1.26066056528229        1.04436900032862       -0.03219695606192
C           -2.21623678037449        2.14521958918773       -0.04875715786496
C           -1.81843129109103       -0.20456885596664       -0.04357009037986
O           -3.01748545448995       -0.38647995337481       -0.07787236100088
N           -0.93316329464691       -1.31266029780138       -0.01623133914183
C           -1.48436548500536       -2.65363918907660       -0.04560278115508
H            3.72459325495204        1.22784840773452        1.06813161315470
H            4.01426946368354        1.05295402893443       -0.67731126148460
H            2.69813847176503        2.10783205706326       -0.08645715778812
H            3.58495643076378       -1.65546116135356        0.03267757107308
H           -1.64883491118313        3.07334415821971       -0.02489428517417
H           -2.82503263202559        2.09711608156734       -0.95151467287512
H           -2.87172201536929        2.07903890079230        0.81919393849296
H           -1.25433602783776       -3.22566284358114        0.85809209448705
H           -1.11004152990866       -3.19795929133000       -0.91661178499308
H           -2.56409726740758       -2.54011516765493       -0.12420640546295
H            1.36632588431339       -2.94130254737544       -0.02331642875437
25
 energy: -43.838441430774 gnorm: 0.019662988867 xtb: 6.6.1 (8d0f1dd)
C            3.24235662756337        1.18436198074938        0.08588854900134
N            2.30751094820909        0.11232541008441        0.02877646944644
C            2.61370250377800       -1.23171113489365        0.02140149127266
N            1.43180521922768       -1.93738570778397       -0.00969238958941
C            0.40343027625216       -1.06242057597943       -0.00363051641603
C            0.92183275763507        0.22634803396704        0.01031461066902
C            0.11464847931027        1.38702168054537       -0.00848228210227
O            0.50217071938764        2.56553274570400       -0.00429900408906
N           -1.26242469756839        1.04628878148179       -0.03796505260012
C           -2.21326085635631        2.15300986127063       -0.04847467357376
C           -1.81192823870070       -0.20175132312727       -0.04935297410104
O           -3.01238206188946       -0.38219750338484       -0.08094544330772
N           -0.93618317596722       -1.31719346544342       -0.00653599065265
C           -1.48486293677353       -2.66154247860874       -0.03773120764843
H            3.71578231290292        1.22398015818605        1.07143082058242
H            4.01437980369791        1.04509746330999       -0.67357950957504
H            2.69889723076926        2.10945355674879       -0.09186927412420
H            3.59053183756589       -1.64230518829451        0.03471750487066
H           -1.65695291555664        3.08958920244831       -0.02065867981425
H           -2.82347700724760        2.10943247478717       -0.94975926709902
H           -2.86933590212813        2.08396014674039        0.81859419824262
H           -1.27603767830721       -3.26183841473072        0.85443054150303
H           -1.11152202405886       -3.20542955716126       -0.90709046668399
H           -2.56421119930248       -2.54985424151287       -0.12190989731919
H            1.37704906464850       -2.93914821534271       -0.02997562579984
25
 energy: -43.838708066035 gnorm: 0.009114913658 xtb: 6.6.1 (8d0f1dd)
C            3.24416306935191        1.17820773184149        0.08562837987035
N            2.30589056971390        0.10884622291958        0.03098427019733
C            2.60840300315169       -1.23302873967067        0.02321758407237
N            1.42858576414988       -1.93553821411546       -0.00710210494397
C            0.40319503399431       -1.06046766042271       -0.00688237204524
C            0.92146294016263        0.22745655264430        0.01344181278350
C            0.11482819852357        1.38723711428774       -0.00498822756693
O            0.49736691529429        2.56274990675330       -0.00153175463742
N           -1.26382610737728        1.04861999465470       -0.03522815789773
C           -2.21716369917924        2.15006007486559       -0.04939134437637
C           -1.81080483880846       -0.19904884992789       -0.04922491235943
O           -3.01044679097052       -0.38149614916005       -0.07666565382006
N           -0.93500395629283       -1.31256147982777       -0.01166111653078
C           -1.48135119651922       -2.65576294639406       -0.04026573450442
H            3.72556667602180        1.21883351044178        1.06666411971957
H            4.01194863190161        1.04577040918520       -0.67899111373789
H            2.70161096394021        2.10545649518234       -0.08467006831848
H            3.58391609507572       -1.64369288184869        0.03479212109586
H           -1.65916408076158        3.08520618009566       -0.02720841172889
H           -2.82588297863457        2.09584325188218       -0.95137672149781
H           -2.87287978324541        2.08088969791611        0.81835664214429
H           -1.26495708759078       -3.25268195558834        0.85288369147725
H           -1.10970202522657       -3.19666454549095       -0.91240309099480
H           -2.56076922811203       -2.54234152930806       -0.12042798008505
H            1.37653299852820       -2.93826850115539       -0.02434792522309
25
 energy: -43.838664601435 gnorm: 0.008527498270 xtb: 6.6.1 (8d0f1dd)
C            3.24049977864176        1.17950536942440        0.08679708267331
N            2.30572623699736        0.10538999994860        0.03109439273004
C            2.60688468439046       -1.23423820552428        0.02362412576503
N            1.42891573637212       -1.93605897854560       -0.00855963419722
C            0.40334290275537       -1.06286636571565       -0.00969143933395
C            0.92204699934698        0.22509702606510        0.01167680869795
C            0.11574646734576        1.38506555059754       -0.00847220841627
O            0.49413530202388        2.55833217025804       -0.00767699940494
N           -1.26433514229524        1.04705163520015       -0.03636981654032
C           -2.21329484189029        2.15027978783258       -0.04663474690624
C           -1.81145016836826       -0.20088296523402       -0.05076846178172
O           -3.01101524308415       -0.38464357059857       -0.07883459600659
N           -0.93505031179713       -1.31357657564834       -0.01624239870665
C           -1.48360737625527       -2.65566520958467       -0.04035250707588
H            3.71542345472451        1.23083435704651        1.07035575882955
H            4.01487111648295        1.05222907248813       -0.67190494027235
H            2.69603872681191        2.10562322243713       -0.09083272239027
H            3.58359148049202       -1.64476998229136        0.03294531594189
H           -1.64577909636385        3.07908037788010       -0.01944298107406
H           -2.82221777148421        2.10497473356518       -0.94924115063592
H           -2.86841726251240        2.08112334351101        0.82152033923836
H           -1.26627834728069       -3.24174973666551        0.85988513760124
H           -1.11043200934139       -3.20322709943969       -0.90847627224617
H           -2.56327086533452       -2.54341593577721       -0.12344976585024
H            1.37944463671356       -2.93986833146964       -0.02734638954643
25
 energy: -43.838795297986 gnorm: 0.003427758222 xtb: 6.6.1 (8d0f1dd)
C            3.24350359043293        1.17945368390908        0.08566796752438
N            2.30740588171876        0.10687406464850        0.03126019486732
C            2.60850109311511       -1.23398816360127        0.02345338197286
N            1.42910139253527       -1.93521619063467       -0.00734230005046
C            0.40354219483015       -1.06206977124364       -0.00473963802864
C            0.92256986073874        0.22678779984451        0.01442025274676
C            0.11679430958123        1.38709415690535       -0.00526760874559
O            0.49517394537575        2.56181856928564       -0.00487122866588
N           -1.26474378412092        1.04805780799565       -0.03424303930088
C           -2.21565141481019        2.15062639760259       -0.04927390103563
C           -1.81169682450537       -0.20040755496307       -0.04594172478237
O           -3.01162091069440       -0.38409011280772       -0.07824053448650
N           -0.93553125527658       -1.31372869276811       -0.01019939609673
C           -1.48387295862330       -2.65694150581359       -0.04086913300813
H            3.72123601429130        1.22532300383719        1.06846292997954
H            4.01481082068158        1.04815179240653       -0.67573666122307
H            2.70127467141951        2.10759376222387       -0.08940640838144
H            3.58586406649536       -1.64466768861316        0.03191711070825
H           -1.65458952238649        3.08337252873891       -0.02380971998267
H           -2.82438237480010        2.10284513035339       -0.95177392601250
H           -2.87226521469624        2.08255983810063        0.81764921206337
H           -1.26788400565543       -3.25020992594349        0.85463889707376
H           -1.11091418621518       -3.20053660993997       -0.91148682462212
H           -2.56379953559176       -2.54619734591235       -0.12319583843852
H            1.37869323325150       -2.93888128385089       -0.02747013298294
25
 energy: -43.838776366686 gnorm: 0.004099652861 xtb: 6.6.1 (8d0f1dd)
C            3.24264759656431        1.17907555406073        0.08639430115630
N            2.30723110440102        0.10721329143190        0.02943665036358
C            2.60840732986420       -1.23426375703903        0.02337546326584
N            1.42853053069336       -1.93511957010580       -0.00841675163466
C            0.40347685236032       -1.06174363962172       -0.00870603877863
C            0.92218002175099        0.22745409473003        0.01018733272347
C            0.11848648176292        1.38793870359892       -0.00890022161666
O            0.49699332224448        2.56333358633005       -0.00370307274488
N           -1.26412782240564        1.04860618740891       -0.03797980771299
C           -2.21564522351163        2.15033008900700       -0.04782618601157
C           -1.81100792791025       -0.19949014208718       -0.05189082971877
O           -3.01112162232689       -0.38244699316539       -0.08010608549275
N           -0.93548523887959       -1.31311544151651       -0.01301566201500
C           -1.48243287537725       -2.65662022256906       -0.03926428892151
H            3.72095917146338        1.22045386337099        1.06922332209044
H            4.01235020666201        1.04778419570997       -0.67663033632086
H            2.69884109446407        2.10666639006731       -0.08547641865412
H            3.58571072823731       -1.64426086472596        0.03672700094832
H           -1.65748960571778        3.08511456433431       -0.02366909937138
H           -2.82676187316012        2.10072510998761       -0.94849408201946
H           -2.86947224439304        2.07986886627638        0.82112997028371
H           -1.26584677061747       -3.25042363367002        0.85595207837979
H           -1.11046811469246       -3.20063675223281       -0.90981116526851
H           -2.56206012490179       -2.54408989924620       -0.11964438659762
H            1.37762409051675       -2.93872989057451       -0.02528975523992
25
 energy: -43.838809402155 gnorm: 0.001496423485 xtb: 6.6.1 (8d0f1dd)
C            3.24232508696326        1.17942179367925        0.08582477163056
N            2.30698996537136        0.10687636726292        0.03049388809167
C            2.60797075478978       -1.23408937937696        0.02330844540135
N            1.42867129851338       -1.93514932359823       -0.00784198003960
C            0.40331254265553       -1.06228001440714       -0.00670350061199
C            0.92190626134792        0.22695514474866        0.01286606767552
C            0.11805069767742        1.38717162814193       -0.00594812844355
O            0.49567858137961        2.56219614876690       -0.00308177166612
N           -1.26466421843308        1.04784515294311       -0.03531234547265
C           -2.21483537247558        2.15034585518547       -0.04866794307293
C           -1.81141935572183       -0.20020648419453       -0.04864645617022
O           -3.01139251023898       -0.38343819638456       -0.07760351825651
N           -0.93560815384129       -1.31356619207306       -0.01154776347864
C           -1.48299861650604       -2.65679310806750       -0.04016580997766
H            3.72032020427707        1.22438878093145        1.06855076537228
H            4.01303797024097        1.04806195245321       -0.67613358453115
H            2.69864825169568        2.10658365461761       -0.08855723636112
H            3.58539891079303       -1.64379284196731        0.03346175137598
H           -1.65379092809725        3.08337630758806       -0.02387623030982
H           -2.82335890350256        2.10120136160539       -0.95120297534507
H           -2.87117675597939        2.08215854425435        0.81861979983096
H           -1.26745521615313       -3.25067384319437        0.85515889006214
H           -1.11001268737589       -3.20008113145004       -0.91078391378030
H           -2.56248073773340       -2.54400448504820       -0.12228722215296
H            1.37840201744468       -2.93888400265647       -0.02632206867802
25
 energy: -43.838785858439 gnorm: 0.003252872247 xtb: 6.6.1 (8d0f1dd)
C            3.24472828090157        1.17884439743430        0.08666597248028
N            2.30789797288685        0.10657889312819        0.03118165442558
C            2.60790469614286       -1.23399828547173        0.02367353589646
N            1.42899521727402       -1.93471810031416       -0.00776684771251
C            0.40342412930892       -1.06204593956303       -0.00589891864345
C            0.92239367437725        0.22730104174324        0.01322326892863
C            0.11769910594426        1.38746940389169       -0.00785670751372
O            0.49432383082206        2.56212263513365       -0.00858633098646
N           -1.26563663119601        1.04806857763894       -0.03596228442355
C           -2.21666229654396        2.15025011635936       -0.04834302696398
C           -1.81184625704675       -0.20027848570007       -0.04771685256644
O           -3.01163170344447       -0.38414726279089       -0.07947013894594
N           -0.93561046489763       -1.31339759205394       -0.01158720607230
C           -1.48383754952281       -2.65672604368870       -0.04042242038141
H            3.72209979955312        1.22443442479936        1.06961131778176
H            4.01694695402283        1.04761664576398       -0.67386479338031
H            2.70388938845664        2.10753293116792       -0.08845422389570
H            3.58539278130860       -1.64440052932286        0.03241928989670
H           -1.65611979269098        3.08339106702110       -0.02253274339040
H           -2.82744898278492        2.10363546457169       -0.94967025847368
H           -2.87192635976419        2.08105052273003        0.81963998099297
H           -1.26704002181811       -3.24850899881884        0.85585967203746
H           -1.11143181350265       -3.20143010767652       -0.91054874747853
H           -2.56380302064881       -2.54644707730735       -0.12223440244547
H            1.37881814995355       -2.93857400891546       -0.02775685807381
25
 energy: -43.838809577265 gnorm: 0.001258391027 xtb: 6.6.1 (8d0f1dd)
C            3.24335068370125        1.17923607950728        0.08607184613206
N            2.30762356850613        0.10650114783748        0.03080330373490
C            2.60799955050136       -1.23421445008839        0.02365361263415
N            1.42897878116627       -1.93503468718544       -0.00770565530767
C            0.40343076049030       -1.06231398953242       -0.00626251061412
C            0.92221733844983        0.22705088304389        0.01311393211907
C            0.11830756906438        1.38737750246531       -0.00675799673282
O            0.49530193321368        2.56215664715825       -0.00548501739164
N           -1.26509832797582        1.04804507232288       -0.03573547301931
C           -2.21569296478320        2.15040973567546       -0.04855855138057
C           -1.81152222682375       -0.20013191026149       -0.04831273835153
O           -3.01138336196564       -0.38365129130502       -0.07940182432063
N           -0.93557306873978       -1.31348535368645       -0.01165101468717
C           -1.48352241579791       -2.65680140047631       -0.04032918806873
H            3.72127117041482        1.22418945197267        1.06879858480781
H            4.01448026306111        1.04848356947502       -0.67562210236509
H            2.70074887144445        2.10709608541126       -0.08805871110315
H            3.58553274728904       -1.64435610971960        0.03339928738674
H           -1.65525070880392        3.08370548238909       -0.02327075041933
H           -2.82572303792810        2.10276199041891       -0.95027574662047
H           -2.87125637618125        2.08153370707036        0.81923232498257
H           -1.26695843687830       -3.24942500346559        0.85548755232206
H           -1.11105811822249       -3.20095475512505       -0.91071475629293
H           -2.56334726346262       -2.54570087878611       -0.12194256723032
H            1.37866215735140       -2.93885383535606       -0.02687390912173
25
 energy: -43.832365899548 gnorm: 0.082273785346 xtb: 6.6.1 (8d0f1dd)
C            3.24213583054646        1.18061528331732        0.08471873492274
N            2.30830579441168        0.09876719423121        0.03251027521004
C            2.60578857884090       -1.21353905558776        0.01566709614413
N            1.44621752252464       -1.92812754367019       -0.02121052404429
C            0.41164089522347       -1.05505604815577       -0.01029544173140
C            0.93473422563338        0.22893255289350        0.00748733975526
C            0.11101757594989        1.40363235256177       -0.00925168458394
O            0.50209377155884        2.55622464261085       -0.00402082917405
N           -1.25045829518409        1.05149293135278       -0.04152420453474
C           -2.20865856029908        2.15842490745393       -0.04559669836144
C           -1.80276970106157       -0.19978707629611       -0.05430316601607
O           -3.00510094225504       -0.37454109902995       -0.08476631054999
N           -0.92536019520805       -1.32618269270595       -0.00002705971009
C           -1.50103274153635       -2.68457754438031       -0.00198336853382
H            3.71891038951250        1.22716664647251        1.06718999620446
H            4.01524930765047        1.05634238837923       -0.67525647397370
H            2.70091740335872        2.11424811101027       -0.08758711141219
H            3.58753448568623       -1.63189995922800        0.02596847410381
H           -1.65218066984469        3.09276025111970       -0.02149436884673
H           -2.82234637564253        2.10885285699755       -0.94656058724864
H           -2.86405740012714        2.08646472210900        0.82259584922587
H           -1.38767803716338       -3.35367379390258        0.87277256353548
H           -1.07416028088683       -3.22897342047949       -0.85523167525854
H           -2.56338223481320       -2.53627109399232       -0.16523792031796
H            1.38904709842066       -2.93253633798880       -0.04115078309400
25
 energy: -43.834882558645 gnorm: 0.034854092604 xtb: 6.6.1 (8d0f1dd)
C            3.24567873837746        1.18597972640147        0.08534103530775
N            2.31266402948311        0.10508232578854        0.02945724995493
C            2.61386340105985       -1.22976424806377        0.01452578626306
N            1.43701982766094       -1.93596385032553       -0.01326121266192
C            0.40737587441427       -1.06105098109635       -0.00130874329744
C            0.92894472551978        0.22586594561154        0.01291835331662
C            0.11130688648151        1.39042943858099       -0.00483577243539
O            0.49500875544529        2.56228552059764       -0.00599128390091
N           -1.26044237855360        1.03838657351119       -0.03336874675397
C           -2.21186508407233        2.14429131633148       -0.04732136422429
C           -1.81224778142398       -0.20853941969456       -0.03744515170540
O           -3.01299805152526       -0.38922057499531       -0.08352121446711
N           -0.93182510171082       -1.32450118606822        0.00396351720685
C           -1.49789582946809       -2.66529372099443       -0.03305436462115
H            3.72648423165173        1.23206996621878        1.06750142985580
H            4.01645989322767        1.06271851460797       -0.67814628516188
H            2.69903460042040        2.11343702102558       -0.08440788654909
H            3.59229207164101       -1.65060913034339        0.02254342115364
H           -1.63908532141532        3.06944670042662       -0.02382608312656
H           -2.82351528567372        2.10115075775258       -0.94865298029105
H           -2.86536016539310        2.08126101854648        0.82248549746765
H           -1.34217646593356       -3.25621663559840        0.88372035311697
H           -1.07789487638211       -3.22360567217018       -0.87619569103327
H           -2.56858198546737       -2.53016635733236       -0.17500344858741
H            1.37416273693214       -2.93871387362596       -0.03270429311623
25
 energy: -43.836427369914 gnorm: 0.013683480510 xtb: 6.6.1 (8d0f1dd)
C            3.24481950633884        1.19025505432451        0.08585347520020
N            2.31173399012247        0.11325149617934        0.02443514030286
C            2.61822203493452       -1.22781000417558        0.01218390693091
N            1.43827268468114       -1.93397341109170       -0.01792896814836
C            0.40651428535758       -1.06430886101452        0.00016338753435
C            0.92500473507197        0.22685328508489        0.00784048472950
C            0.11753571636997        1.38857648238823       -0.01036275595674
O            0.50031268459513        2.56573062764078       -0.00716426593047
N           -1.25965322876409        1.04141797707296       -0.04033165140552
C           -2.20837360388325        2.15081796253732       -0.04749943673540
C           -1.80803287578025       -0.20744219991476       -0.04373626508058
O           -3.00843058091890       -0.38492201919964       -0.08632467897346
N           -0.93413835452132       -1.32929706323814        0.01907441041074
C           -1.49872007122296       -2.67456459206802       -0.02070683324047
H            3.72029925923266        1.23196076222868        1.07092960389274
H            4.01829226549814        1.06035848665157       -0.67397990888059
H            2.70032166326735        2.11674941751833       -0.08780314635442
H            3.59666157791307       -1.64079569033679        0.02526839581164
H           -1.64390895614673        3.08236273552766       -0.02016410176214
H           -2.82208931473947        2.11322048975258       -0.94677531703092
H           -2.86157702532475        2.08570853297679        0.82218128128069
H           -1.37283757483028       -3.30190179373938        0.87170917326293
H           -1.07765365946362       -3.22798387981779       -0.86151280337597
H           -2.56809812738923       -2.53939568537146       -0.17066356994577
H            1.38193041489794       -2.93610893482349       -0.04127343482554
25
 energy: -43.836445308474 gnorm: 0.008913596567 xtb: 6.6.1 (8d0f1dd)
C            3.24679535018630        1.18424854717985        0.08492788084415
N            2.31036822876117        0.11245487965911        0.02584623070081
C            2.61496612256279       -1.22865040812568        0.01448571225409
N            1.43580604775685       -1.93128394633467       -0.01675389114186
C            0.40667536769017       -1.06159503862923       -0.00871270420180
C            0.92420807508601        0.22970488275510        0.00923355072479
C            0.11969111989372        1.39023413091221       -0.00553151306823
O            0.49875342700816        2.56625927771549        0.00303113653278
N           -1.26030706404830        1.04614604233047       -0.03919266928445
C           -2.21297547553233        2.15035726015885       -0.04744210013068
C           -1.80607084883268       -0.20294600892732       -0.05008519853982
O           -3.00669868255650       -0.37996478951895       -0.08664858677025
N           -0.93310360294760       -1.32533932798575        0.01064189502027
C           -1.49359966151084       -2.67253211958474       -0.01859198919070
H            3.72843562607896        1.22338569183610        1.06652719839691
H            4.01478411011444        1.05433758286196       -0.68031484046269
H            2.70310089571825        2.11198632067996       -0.08373462280872
H            3.59173004736805       -1.64052040213197        0.02840552428266
H           -1.65281155411542        3.08471709665270       -0.02427036816194
H           -2.82460067762905        2.10192049336977       -0.94786052328114
H           -2.86790313095275        2.08343435231010        0.82151571288564
H           -1.36316100373209       -3.30636808138446        0.87310469292604
H           -1.07590637899025       -3.22279065572742       -0.86373672175395
H           -2.56354594583970       -2.53453220838469       -0.16568931299300
H            1.38177705375854       -2.93390439659441       -0.03574237106872
25
 energy: -43.836570855512 gnorm: 0.004914514782 xtb: 6.6.1 (8d0f1dd)
C            3.24330348062005        1.18640036203804        0.08665967603748
N            2.30996183080497        0.11172301825647        0.02646757320721
C            2.61534442647047       -1.22919532996304        0.01455664660121
N            1.43698715590044       -1.93202813855298       -0.01675340681202
C            0.40739166134911       -1.06408386679775       -0.00886547235170
C            0.92394558055436        0.22777960046513        0.00905113480956
C            0.12071703741390        1.38717786697972       -0.00953325034997
O            0.49711677405423        2.56288042592507       -0.00718602131827
N           -1.26059874260480        1.04401394140680       -0.03896367279122
C           -2.20899411189815        2.15049850963569       -0.04618025297253
C           -1.80615034282891       -0.20501386991393       -0.04684623209992
O           -3.00701823967210       -0.38268617388198       -0.08285361902793
N           -0.93296492288840       -1.32716387286442        0.00972548242877
C           -1.49650999152965       -2.67283650844877       -0.01989607703968
H            3.72036798064724        1.23148291192168        1.06998616299437
H            4.01571522659200        1.06031055390808       -0.67466441295551
H            2.69766210036338        2.11275344963178       -0.08607235965694
H            3.59267548745211       -1.63933955970117        0.02468922462030
H           -1.64167649283024        3.08052365272957       -0.02215628056308
H           -2.82176134677140        2.10690092991548       -0.94628977119772