25
 energy: 0.000000000000 xtb: 6.6.1 (8d0f1dd)
C            3.23720163006194        1.16630919979326        0.08434469647475
N            2.29877817382611        0.07527477071623        0.03981603040599
C            2.58028210190900       -1.21425402444508        0.03006176031096
N            1.43813958087363       -1.93419271955128        0.00098261760884
C            0.39035688448383       -1.05887472636071       -0.00790371836672
C            0.93510056364412        0.21347819449412        0.01709077491437
C            0.09450143893243        1.40504303904423       -0.00410947031874
O            0.49712751527797        2.54126714362870       -0.00342325688240
N           -1.25076640035757        1.06271879480407       -0.03085478223738
C           -2.21907211982101        2.15522099834493       -0.05001256985998
C           -1.81739487048744       -0.20012725993278       -0.04692818574614
O           -2.99983886758376       -0.37846417018721       -0.07008878229737
N           -0.92618586207120       -1.30210215599479       -0.03682761578324
C           -1.46982264913417       -2.64643102187190       -0.06029820460571
H            3.71247264356769        1.21471455160235        1.06488849150277
H            4.00791497605742        1.03430808813993       -0.67357694370751
H            2.69910007168542        2.09770118228144       -0.09130154882931
H            3.56654120610678       -1.63682992603973        0.04233140067262
H           -1.67107961066214        3.09322851271934       -0.02552706933167
H           -2.82428953597071        2.09428624779827       -0.95318082946668
H           -2.87644029173232        2.07745725625962        0.81450067533302
H           -1.17061996399332       -3.19584890659852        0.83242232437030
H           -1.14560257411436       -3.17511610292205       -0.95688275822323
H           -2.55549792440841       -2.55659984320617       -0.07459039797972
H            1.38130855184625       -2.94313852034425       -0.01389874181052
25
 energy: -1.168463473766 xtb: 6.6.1 (8d0f1dd)
C            3.24673834106533        1.19424843067161        0.08497974927298
N            2.31279218733024        0.11072891274415        0.02805954399324
C            2.61080049688231       -1.21326313888623        0.01222272881900
N            1.44514995738841       -1.92914914574152       -0.01848599049591
C            0.40533957155877       -1.05571452793532       -0.00900666393386
C            0.93473349443975        0.22895220033818        0.00747385332970
C            0.10888219326017        1.40396656660611       -0.00866070560068
O            0.50571319274395        2.56935509351329       -0.00465101687675
N           -1.25081975311542        1.05724870803700       -0.03671820944032
C           -2.21030301116222        2.15783450385094       -0.04623613802586
C           -1.80970861671078       -0.19935537071767       -0.05515339229146
O           -3.00646639882732       -0.37631143603964       -0.07926930440074
N           -0.92597539774066       -1.31375884916086       -0.01789383450409
C           -1.48511618652798       -2.66696786135510       -0.02754514759924
H            3.72249767369121        1.23430469417200        1.06830578154160
H            4.01812193255678        1.06495436336359       -0.67550802736629
H            2.70180553360101        2.12047257361691       -0.08606774563029
H            3.59151576306385       -1.63046450542233        0.02247677250347
H           -1.65329044773089        3.09275536522890       -0.02170658417397
H           -2.82227080794026        2.10938558198652       -0.94631415511218
H           -2.86328934513203        2.08702494729178        0.82306758004652
H           -1.40422221378543       -3.36489157983471        0.87569541600082
H           -1.08788094733810       -3.21923444444787       -0.87368157512774
H           -2.56156236817554       -2.54053622140939       -0.14724321310304
H            1.38902982454107       -2.93255625829833       -0.04110582567763
25
 energy: 15.702847070106 xtb: 6.6.1 (8d0f1dd)
C            3.25699011357598        1.22604111164441        0.08528447749797
N            2.32583499818457        0.15047812183383        0.00744319291612
C            2.64322077913465       -1.20328688162957       -0.01715749834674
N            1.45784217022045       -1.91376251502762       -0.04848192065705
C            0.42287677895181       -1.05437516479335       -0.01486670176238
C            0.93224460300058        0.24651239523859       -0.00591598612657
C            0.12950494737358        1.39926137473749       -0.01387532740763
O            0.50919895847773        2.58795061902784       -0.00597928565656
N           -1.25030491899135        1.05113182472229       -0.04263874815797
C           -2.19670495638648        2.16372185663690       -0.04135725400993
C           -1.79449520488747       -0.20027836062550       -0.05257112721164
O           -3.00064621243095       -0.37100829514769       -0.09362069531136
N           -0.92493114375686       -1.33838370813426        0.01645211888605
C           -1.51359799448649       -2.69696274579802        0.01386518746002
H            3.73393349131053        1.25825786348636        1.07109235164567
H            4.03248013537246        1.10787022398242       -0.67569925606720
H            2.70881822391724        2.15107762502311       -0.07749825606621
H            3.61990895482917       -1.60958327669595       -0.00658139790978
H           -1.62799457808484        3.09449836438023       -0.01733481859740
H           -2.81884983328118        2.13169869081036       -0.93577703898094
H           -2.84260769582007        2.10213440850328        0.83492777183822
H           -1.73978533787665       -3.57530409589113        0.93164701834310
H           -0.98929499489987       -3.28759413206844       -0.74313729581963
H           -2.57212408392097       -2.51714193365274       -0.26208506296426
H            1.41069746841065       -2.91392476839088       -0.07910055138663
25
 energy: 39.353293747636 xtb: 6.6.1 (8d0f1dd)
C            3.26323636295063        1.25090866807305        0.08749758817162
N            2.33331332636241        0.17487965844566       -0.01426883173159
C            2.66180250923771       -1.18800011565349       -0.04826282909385
N            1.47379719272379       -1.89763535405147       -0.07802324637271
C            0.42981114532281       -1.05684320464060       -0.02241531613787
C            0.93136801773234        0.25575250226539       -0.01694977244417
C            0.14461381450239        1.40358304827351       -0.01731262838362
O            0.51187102878958        2.59935108098405       -0.00643033500356
N           -1.24757968656568        1.05316618200673       -0.04747096364643
C           -2.18229598189928        2.17465887261470       -0.03744427056072
C           -1.78425664761421       -0.19880719072751       -0.05011944195231
O           -2.99260477413844       -0.36242367838883       -0.10957614575976
N           -0.92941959162162       -1.36172344480183        0.04590031479426
C           -1.55160240777629       -2.72872686945197        0.04556613919256
H            3.73923215134349        1.27603976246238        1.07550502592739
H            4.04573533897649        1.14919564401137       -0.67030953679686
H            2.71770913888168        2.18021335189690       -0.06537983360814
H            3.64222457506288       -1.58357465373589       -0.03685104941409
H           -1.60118123647868        3.09928815466871       -0.01408776145934
H           -2.81183307295936        2.15666486259997       -0.92689598123574
H           -2.82049367595797        2.12017430168672        0.84507709646134
H           -2.02977469312399       -3.74818483898041        0.96895005329507
H           -0.90415449179580       -3.36024679221410       -0.59618565437514
H           -2.56862069012515       -2.52018797040877       -0.36464096400106
H            1.44131701610649       -2.89849337476229       -0.11883775971800
25
 energy: 62.252760450237 xtb: 6.6.1 (8d0f1dd)
C            3.26732805659326        1.26661870295962        0.08961864394082
N            2.33853577317148        0.18679656966747       -0.03312874142354
C            2.66809949599818       -1.16905447264336       -0.07256884586486
N            1.49046252734112       -1.87893152847307       -0.10017864943260
C            0.43229085549283       -1.05452257118610       -0.03425671242804
C            0.93444978173430        0.26308790122660       -0.02281031082187
C            0.15580745567060        1.41667544420962       -0.01959691825157
O            0.51557220334732        2.60615573851489       -0.00812164336426
N           -1.24248392050600        1.06412675090829       -0.04902250217949
C           -2.17181314330316        2.18790033668708       -0.03606279180329
C           -1.77652073717277       -0.19076262913992       -0.04745153497166
O           -2.98089210453780       -0.35136960479987       -0.12397004012453
N           -0.92996741168238       -1.37099540981949        0.05805911756360
C           -1.57107394203894       -2.74571501469274        0.05727710411206
H            3.73940273691078        1.28660745336448        1.07958983618661
H            4.05522111192310        1.17808696288191       -0.66412591704340
H            2.72508949776137        2.20046098252401       -0.05694279273989
H            3.65465376182169       -1.55707447825977       -0.05825374499805
H           -1.58367425992838        3.10820370722712       -0.01491160900137
H           -2.80525543358925        2.17659665282859       -0.92181862517554
H           -2.80396271879550        2.13715576145967        0.85045172219598
H           -2.28384664878254       -3.94179525896778        0.98139083782813
H           -0.86273557559508       -3.40509586238382       -0.45912252635547
H           -2.52527754648588       -2.54136568696706       -0.41751423584225
H            1.47280485258789       -2.88276184495441       -0.14949522385822
25
 energy: 80.625420078135 xtb: 6.6.1 (8d0f1dd)
C            3.27103507419216        1.27411864705144        0.08625865255948
N            2.34409535282700        0.18650400311372       -0.04752503528490
C            2.66187375415480       -1.14532020513934       -0.08828640436067
N            1.50729534152857       -1.85683042961677       -0.11338736517182
C            0.43252228608657       -1.04295469676865       -0.05119775134724
C            0.94389677328532        0.27256485794117       -0.02417600644113
C            0.16434102812142        1.43841480181423       -0.02229238996541
O            0.52025887276206        2.61055837680702       -0.01061429268267
N           -1.23218789400993        1.08374049184353       -0.04632412594280
C           -2.16637246453723        2.20018493581012       -0.03102628768888
C           -1.76779357856914       -0.17633487823573       -0.05151245031949
O           -2.96297725258066       -0.33918834655597       -0.13263515303134
N           -0.91745792013636       -1.35866182565175        0.04207719149096
C           -1.56100410269566       -2.73355804550376        0.05571424178320
H            3.73924979861847        1.29345335331778        1.07588643370430
H            4.05917459799281        1.19372124013325       -0.66575716290373
H            2.72945263586118        2.21076935882051       -0.05802949857264
H            3.65622827380621       -1.53138829265866       -0.07404739138815
H           -1.58047688981546        3.12022385282002       -0.01263776744357
H           -2.80269028170763        2.18684029890605       -0.91336909961000
H           -2.79342953898333        2.14571619583911        0.85784467655148
H           -2.56921431723588       -4.19524992086556        1.00008459252423
H           -0.81374230520327       -3.42616258307571       -0.30653614475386
H           -2.44903551549563       -2.55667916941433       -0.47201920206727
H            1.49917293966987       -2.86545341855977       -0.16945836349079
25
 energy: 87.393718591482 xtb: 6.6.1 (8d0f1dd)
C            3.27126821216866        1.27399720074534        0.08075198144667
N            2.34763094229618        0.17213361671284       -0.04901184886936
C            2.64529078824968       -1.12146890471479       -0.09251439625520
N            1.52032649130334       -1.84254876884515       -0.11955081146786
C            0.42783084188974       -1.02635422005775       -0.06828104660253
C            0.95876846713962        0.27913398199992       -0.02449203590332
C            0.16421672850664        1.45944295476435       -0.02679869622928
O            0.52372818220467        2.60990282512721       -0.01112127818188
N           -1.21731017997896        1.10344238677759       -0.04476161813932
C           -2.16330308321306        2.20850161080393       -0.02611574436137
C           -1.76342048235345       -0.16303087571102       -0.06063364874055
O           -2.94775600895024       -0.32970695038612       -0.13437194718184
N           -0.89389625540281       -1.32405452102644        0.00188729729898
C           -1.51792118047240       -2.68046915233543        0.04260675723853
H            3.73580033359350        1.29482048491196        1.06858289735981
H            4.05759124688411        1.19808398622705       -0.67038168831954
H            2.72802510036744        2.21156522064304       -0.06253572485246
H            3.64793155565391       -1.51270175018120       -0.08414139284959
H           -1.58533605096217        3.13113983856960       -0.00965943737878
H           -2.80221726907229        2.18784420927979       -0.90621197514300
H           -2.78804627601245        2.14647370670738        0.86323913723028
H           -2.78524066124303       -4.43734647204644        1.02488604812386
H           -0.78129292813924       -3.41635491115444       -0.17715006820723
H           -2.38041385814133       -2.57791592236014       -0.50703289648856
H            1.50996001162019       -2.85550097227914       -0.18015396737924
25
 energy: 86.085165649410 xtb: 6.6.1 (8d0f1dd)
C            3.27051000105055        1.27113319703242        0.07647749788760
N            2.34881511921379        0.15880701150433       -0.03770143063426
C            2.63259800874435       -1.10682668350460       -0.08933712665099
N            1.52715016860728       -1.84328353011488       -0.12404407524175
C            0.42217011207748       -1.01204889544296       -0.08572669955638
C            0.97140270070384        0.28540894190329       -0.02619038821485
C            0.15688184003803        1.46935599711604       -0.02931089080806
O            0.52737293076244        2.61317958118213       -0.00588538383351
N           -1.20435194820401        1.11279172931293       -0.04629022908988
C           -2.16196353630053        2.21130513761086       -0.02223616343025
C           -1.76596217662147       -0.15635220978107       -0.07455288052623
O           -2.94633220440718       -0.32237038261818       -0.13209570136765
N           -0.87530981464930       -1.28928363189471       -0.04926622018454
C           -1.46543263056058       -2.60168136281934        0.02047559592123
H            3.73300151657115        1.29127775954344        1.06310455572688
H            4.05374809047155        1.19154313084198       -0.67527397785670
H            2.72346973302509        2.20595450574094       -0.06747041946358
H            3.63813609426136       -1.50784375727318       -0.08613826859144
H           -1.59428127571998        3.13920475311383       -0.00532133551393
H           -2.80280759973711        2.18380579777970       -0.90187477534357
H           -2.78796620495431        2.14192616569008        0.86602271655189
H           -2.86952647649381       -4.58931741227659        1.05704095489418
H           -0.75751333699949       -3.39767182903069       -0.10002775126463
H           -2.36570133164396       -2.60383421568321       -0.51477901766606
H            1.50410688870105       -2.85615119576064       -0.18256468959621
25
 energy: 85.432484927751 xtb: 6.6.1 (8d0f1dd)
C            3.27132110605051        1.27330435659041        0.07791744213283
N            2.35049914764703        0.15506883391645       -0.01563806298064
C            2.63135757501729       -1.09660373688925       -0.07941179407936
N            1.53820633407320       -1.85229767972737       -0.12865834110172
C            0.42303074989999       -0.99983411076356       -0.10641432186504
C            0.98321191018253        0.29711778550344       -0.02991468017679
C            0.14722357739890        1.46991323545068       -0.03202094012744
O            0.53354834459092        2.62025002304928       -0.00230004726510
N           -1.19264123181574        1.11320059952534       -0.05346230439154
C           -2.16071855414560        2.21030826480704       -0.02684028078140
C           -1.76808301765043       -0.15705609747609       -0.08811081961043
O           -2.95036243750566       -0.31648898095584       -0.12855341343986
N           -0.86180720463815       -1.26825670486914       -0.10830339114759
C           -1.40793763337411       -2.50876995443356       -0.02902333638235
H            3.73134092303574        1.29280450379025        1.06486720856477
H            4.05279781657381        1.18539548346271       -0.67390878620004
H            2.71791344760841        2.20204227506885       -0.06870335341635
H            3.63478175877397       -1.50863428392659       -0.07487801964444
H           -1.60338201985932        3.14472082423392       -0.00930997696152
H           -2.80219668174306        2.17531061326035       -0.90750069691272
H           -2.79062247969095        2.13614957337624        0.85931608550622
H           -2.87342112851903       -4.75239089871392        1.07737338137914
H           -0.80345829690614       -3.34817797730032       -0.10178823875499
H           -2.38427359125115       -2.61704146932559       -0.41061913880008
H            1.49588625418328       -2.86100587548182       -0.17708027739625
25
 energy: 85.994935311943 xtb: 6.6.1 (8d0f1dd)
C            3.27605886897319        1.27420190035426        0.07621007121113
N            2.35094591742403        0.16970023519835       -0.00060372946718
C            2.64265015458807       -1.10382905129652       -0.06999782814210
N            1.53682530446416       -1.86097930636104       -0.13132842039370
C            0.43153223782480       -0.98400548651268       -0.12332322041133
C            0.98462005589226        0.31887399112233       -0.03548588580565
C            0.14605602684499        1.47004290152101       -0.02851569272552
O            0.54516270633684        2.64088225129272        0.00767856745872
N           -1.19311773698760        1.11871009249000       -0.06024265095028
C           -2.16748753275002        2.21443551173775       -0.02075851370996
C           -1.76779833218976       -0.14480761969388       -0.11351958728592
O           -2.96104934611759       -0.30033746726115       -0.12781212448912
N           -0.86637766335277       -1.25936299320464       -0.16627032356073
C           -1.38302875595415       -2.45681663678939       -0.09485046001392
H            3.73760253562808        1.29029174468703        1.06380884000096
H            4.05161167588773        1.17045766564533       -0.68053291833698
H            2.71577782640227        2.19550603815869       -0.07367428227574
H            3.63477723427217       -1.52243545834536       -0.06254891994029
H           -1.61828559700308        3.15430527088028        0.00157207378684
H           -2.80852301018197        2.17378860234948       -0.90228579154523
H           -2.79795625527940        2.12767303449008        0.86513858748317
H           -2.85857231026666       -4.82433687320632        1.12190710894690
H           -0.74752441457845       -3.40467292203657       -0.10328987201436
H           -2.44739069882711       -2.60579783330622       -0.34420454938720
H            1.47570577688621       -2.86245898974162       -0.17003658228521
25
 energy: 81.673393153549 xtb: 6.6.1 (8d0f1dd)
C            3.27854067137952        1.27684385633020        0.07679401748875
N            2.35145196442312        0.18413676292179       -0.00338431858208
C            2.65617278724574       -1.11267498647983       -0.06307787476297
N            1.53411186234727       -1.85963325114084       -0.12443663975216
C            0.44348047389521       -0.98216549855528       -0.10953993461555
C            0.97937770239980        0.32636133276221       -0.03859285634913
C            0.15274956814247        1.46569183100282       -0.02712898539958
O            0.54673802331510        2.64734463938190       -0.00119744475788
N           -1.20104311485730        1.11765349030049       -0.06326509556867
C           -2.17087628909001        2.21402539190864       -0.02791780469902
C           -1.75992738652441       -0.14006212717463       -0.10614945492489
O           -2.95934171877737       -0.30226721048903       -0.12162771169701
N           -0.87184914995439       -1.27504253223179       -0.14018599983485
C           -1.39986380238819       -2.50309057801105       -0.11001136689408
H            3.74177764826849        1.29654770489024        1.06510145297992
H            4.05438154899324        1.17091420767387       -0.68064943559349
H            2.71701985705405        2.19713446782365       -0.07503937686032
H            3.64200340486085       -1.52517398405111       -0.05180125492688
H           -1.61727859966243        3.15150795548826       -0.00715230986258
H           -2.80960091593325        2.17022464457174       -0.90994386382349
H           -2.80018470574612        2.12849801117949        0.85860689762108
H           -2.81046561121522       -4.86545421423261        1.13467640870719
H           -0.77510621863359       -3.36616443010403       -0.19868830969452
H           -2.48281475818100       -2.56657024601494       -0.28984803302246
H            1.47276142657467       -2.85955663557826       -0.15850680902800
25
 energy: 80.775757795590 xtb: 6.6.1 (8d0f1dd)
C            3.27746545372998        1.27460358637822        0.08264727322287
N            2.35104963189289        0.17961300866059       -0.00947898125302
C            2.65177318858261       -1.11448952495617       -0.06144639581392
N            1.52949663167412       -1.85342838433048       -0.12725447825098
C            0.44378465711684       -0.98321925262287       -0.11640241921480
C            0.97721034369830        0.32225330168811       -0.04570780247700
C            0.15373604089326        1.46572936896074       -0.02955550603798
O            0.54142771340417        2.64317004120874       -0.00211549502048
N           -1.20624842221000        1.11934892934008       -0.06512455986560
C           -2.17122575621759        2.21431500471689       -0.02844088498951
C           -1.75824383435297       -0.13431683520516       -0.11423650412454
O           -2.95568860530381       -0.30990365620029       -0.12660727777200
N           -0.86984981462449       -1.27095702838343       -0.15423769045097
C           -1.40190793398203       -2.51140728638299       -0.13179501831106
H            3.74088464957894        1.29733215515673        1.07068595081244
H            4.05674752410010        1.17984747863249       -0.67277832914308
H            2.71866443352436        2.19951072156645       -0.06532049698100
H            3.64060521608041       -1.52372963173194       -0.05157720180570
H           -1.60879994839315        3.14550497273414       -0.00592038857027
H           -2.80941223232102        2.17552094053665       -0.91050395908160
H           -2.79929994428752        2.12923566428631        0.85813220976575
H           -2.79299357979327       -4.87243668137102        1.17945226924016
H           -0.79554637025105       -3.37949037482587       -0.22771530922689
H           -2.47431865654821       -2.54654001436099       -0.25276234827985
H            1.47290428194540       -2.85703790132301       -0.16490276022367
25
 energy: 80.359958739585 xtb: 6.6.1 (8d0f1dd)
C            3.27684943143930        1.27032311592643        0.08034625447905
N            2.35217415828091        0.17291836188954       -0.01355710286615
C            2.64547225674863       -1.11771205028541       -0.05453563227419
N            1.52347950634164       -1.84600576567820       -0.11815881369902
C            0.44269284207816       -0.98690219863995       -0.10479211882564
C            0.97457195078265        0.31624040695843       -0.04285047596616
C            0.15818306280202        1.46718926680476       -0.02585572169856
O            0.53738213339309        2.63891054423773       -0.00445220248550
N           -1.21168639456908        1.12223301990566       -0.05725911808043
C           -2.17153117045342        2.21547053905755       -0.02979223310439
C           -1.75912377265131       -0.12369084869056       -0.10591734936493
O           -2.95407122564392       -0.31580807660968       -0.12115679595788
N           -0.87017349904529       -1.26308609203330       -0.15549288671476
C           -1.40788506475176       -2.50719688152156       -0.19041098606518
H            3.74333265276754        1.29820037301247        1.06648527632744
H            4.05503917756807        1.18013580102857       -0.67639232860020
H            2.72020822793418        2.19890950455159       -0.06820618340493
H            3.63944103245875       -1.52189491144364       -0.05293767830461
H           -1.60698358718276        3.14471296696421       -0.01157391565528
H           -2.80852129059913        2.17454578093948       -0.91193681261410
H           -2.80075426575008        2.13557303248763        0.85538034132274
H           -2.77733982006162       -4.89857277954429        1.25917437405158
H           -0.78666526957278       -3.36329740306712       -0.28437106710940
H           -2.47837143169735       -2.54780936799252       -0.24484912093497
H            1.47649502731980       -2.85435773608586       -0.15985380630723
25
 energy: 80.269711712485 xtb: 6.6.1 (8d0f1dd)
C            3.27670734534296        1.27084688848367        0.08365955758329
N            2.35414408140101        0.17220004377850       -0.01520480980507
C            2.64395988443108       -1.11756213873334       -0.05922830797526
N            1.52363198558573       -1.84539603801675       -0.12502791570613
C            0.44150315337218       -0.99118518500309       -0.10860748537966
C            0.97409403679739        0.31443364025713       -0.04553694328149
C            0.16308610686747        1.46895751583058       -0.03163976072793
O            0.53682154204625        2.63958313508665       -0.00356421906012
N           -1.21049131085523        1.12210569601225       -0.06051526376365
C           -2.17012994823575        2.21619473794520       -0.02780201791787
C           -1.76084423758337       -0.12119221750843       -0.11311236120708
O           -2.95410748272365       -0.31637358638498       -0.12420371276601
N           -0.87067655190284       -1.26082261520246       -0.16237283884735
C           -1.41537096399749       -2.49904114735508       -0.21927286228453
H            3.73911335201033        1.29511664570486        1.07177393740144
H            4.05655002432015        1.18033824609052       -0.67156095438477
H            2.72016420340618        2.19889900973716       -0.06594446347768
H            3.63980076099025       -1.51937694760340       -0.05499313140522
H           -1.61031842190368        3.14859960458985       -0.00677930731522
H           -2.80889155254589        2.17828711980185       -0.90967863887268
H           -2.79965666688709        2.13326679176619        0.85750423435337
H           -2.77001630129422       -4.90490078531120        1.33026621557104
H           -0.78943439352199       -3.36640802590800       -0.29101802326564
H           -2.48108617243223       -2.55287267820012       -0.25329278234353
H            1.48366219524866       -2.85466910768562       -0.16681424897494
25
 energy: 80.163671742600 xtb: 6.6.1 (8d0f1dd)
C            3.27701438641963        1.27226538868052        0.08109787803072
N            2.35430280374344        0.17366800850827       -0.01258029616390
C            2.64362973641005       -1.11710496221195       -0.06098604837088
N            1.52390100513986       -1.84753777711523       -0.12546314075729
C            0.43914594192410       -0.99267724446126       -0.10729604010026
C            0.97329941799220        0.31553548158952       -0.03943444404898
C            0.16398236948998        1.46954583303826       -0.02772746885087
O            0.53605706499374        2.64142939352866       -0.00045347753902
N           -1.20940612159871        1.12096105120319       -0.05712405565344
C           -2.16922782322023        2.21668765335158       -0.02803509542700
C           -1.76432453555807       -0.12261098963112       -0.10906058027393
O           -2.95682700510713       -0.31376492994868       -0.12396049163368
N           -0.87275070587704       -1.26160727739073       -0.16068021597271
C           -1.41824877328668       -2.49171470049805       -0.24033320121857
H            3.74123994454429        1.29590945209221        1.06808248418325
H            4.05528400154219        1.17890392713176       -0.67553976005456
H            2.71994312633373        2.19871179297408       -0.06847316871160
H            3.63876008489316       -1.52022143784666       -0.05493666772103
H           -1.60878654115602        3.14914635981554       -0.00812667702999
H           -2.80699527528966        2.17753551577725       -0.91099307082622
H           -2.80023598518422        2.13623672276187        0.85697964044274
H           -2.75904703758125       -4.91538998879554        1.36205122482455
H           -0.79054078050802       -3.36173287902248       -0.28899302270452
H           -2.48303382086022       -2.55751014164309       -0.27628644706045
H            1.48507918973718       -2.85563564971596       -0.16469396121507
25