72
 energy: 0.000000000000 xtb: 6.6.1 (8d0f1dd)
N           -1.47310921155849        2.74401293103706        2.22063921685122
C           -1.55658879776851        2.16490285539332        1.13274273951491
C           -2.74549199786261        2.05621232186130        0.23826248438941
C           -3.31377553111525        0.64333411542669        0.32332512650568
C           -4.30230156009016        0.24487110156316       -0.58026161703006
C           -4.85238763031941       -1.02286490450319       -0.53363588718165
O           -5.81419972815119       -1.48606034185536       -1.36157882725342
C           -6.39655633239252       -0.60827000183299       -2.29568474302620
C           -4.39972501531283       -1.94646102182611        0.44396929121966
O           -4.98748311285188       -3.16145997157803        0.41085992006324
C           -4.66362127904578       -4.10093827755394        1.40909127743729
C           -3.42072513477031       -1.54561384810496        1.33436546260297
C           -2.88302799614223       -0.26315800396994        1.27400150770375
C           -2.19303798107274        2.30467000305896       -1.18742977106749
C           -1.26651538239283        1.17243369445008       -1.65249429687285
C            0.01082524939134        1.09745454476277       -0.89354803499847
N            0.61779393476578       -0.02034948052406       -0.57705522512502
C            2.00145210352228       -0.02376006389122       -0.15611399603240
C            2.92554934655222       -0.53865282675074       -1.27700088804721
C            4.35756843073516       -0.43050757231754       -0.83075544324989
C            5.07346135469827        0.73206409086248       -1.03980965825901
C            6.38627986649936        0.84224441421807       -0.60344822702769
C            7.00047264773336       -0.20824756335880        0.05722314418200
O            8.26703657141718       -0.21011313101264        0.52410943644933
C            9.06912227848686        0.92943601033931        0.31863058007678
C            6.27039964270142       -1.40439753960823        0.28033466008274
O            6.94829939911432       -2.38012925705718        0.92751999079483
C            6.31537317745639       -3.61583200086742        1.15217711710877
C            4.96302794628964       -1.49347471867959       -0.16064430359178
C           -0.05511211367372       -1.29906247805359       -0.62085686319744
C           -3.86758037025447        3.07992600430699        0.58498060215443
C           -4.49286159663096        2.77383493050346        1.94313289484366
C           -3.39165179876499        4.52917666589254        0.54797523472093
H           -4.66030026466202        0.94509067363451       -1.31640568823548
H           -6.85037928558380        0.25803162192116       -1.80468845313260
H           -7.17287442604349       -1.18600110843259       -2.79318157561361
H           -5.66836817451085       -0.26952966318766       -3.04040255244073
H           -4.88416720672258       -3.71589460520039        2.40913542187496
H           -5.29223570620378       -4.96637458756866        1.20969236903657
H           -3.61139813139015       -4.39919835331056        1.35529357841967
H           -3.07077796610445       -2.21868765711333        2.10002662693138
H           -2.14562754426994        0.02067850696302        2.01001344383370
H           -3.02188875377605        2.38238012313952       -1.88813545054866
H           -1.65198530896729        3.25146700677685       -1.20556284570283
H           -1.81103374245520        0.23006524641044       -1.62116301628650
H           -0.99335688527853        1.37490212198123       -2.69443256973690
H           -0.67628064361333        1.65183887049447        0.61785727145403
H            0.63525841192517        1.98466369793744       -0.92314021190751
H            2.11132552493482       -0.65949692842762        0.72532613231274
H            2.30680473056284        0.98978251704176        0.11078972794250
H            2.76694198818247        0.06750735147374       -2.17075252200790
H            2.67954581369920       -1.57455627803457       -1.51167743520200
H            4.62169998552446        1.56295612048703       -1.56123579000624
H            6.92357674630170        1.75715815945204       -0.79119596719031
H            8.65159112996149        1.81001823324363        0.81701555159939
H            9.20136171144928        1.14042857828877       -0.74698991949293
H           10.03428838009630        0.69003240176163        0.76064937965836
H            7.05567174969094       -4.23621171795340        1.65347565939075
H            5.43848001056755       -3.50813558175093        1.79970565785717
H            6.02060041905269       -4.09420497120334        0.21253282636366
H            4.40102758497114       -2.40127266373392       -0.00490198249042
H           -0.22071299714579       -1.61775583601871       -1.65116008982042
H           -1.01972258008625       -1.24102717432227       -0.10935206830928
H            0.55899954147532       -2.04486085926761       -0.12333730421426
H           -4.63991875734388        2.95501092798550       -0.18098088071825
H           -3.76095216473977        2.90314704960906        2.73380821053058
H           -4.87457614030224        1.75695641518947        1.97884603101694
H           -5.31925552549014        3.45579210326349        2.12325564252114
H           -2.60025590131176        4.69225046143352        1.27368918226171
H           -3.03987406413880        4.81897652321898       -0.43870975059559
H           -4.22191740670577        5.18069648090034        0.80616693961239
H           -0.59832433787845        2.77744694953323        2.72958984441332
72
 energy: -5.933967809426 xtb: 6.6.1 (8d0f1dd)
N           -1.50285302647079        2.78392554528716        2.24205815607222
C           -1.55190625565103        2.15486121295075        1.15619414602717
C           -2.74397727343625        2.06072286354438        0.24838920538679
C           -3.31234899994938        0.64927904113098        0.32845861608052
C           -4.29832929110662        0.24703177679692       -0.57503959425883
C           -4.84531526325815       -1.02053372508364       -0.52936361998549
O           -5.81492824815337       -1.48711695622855       -1.36471765540906
C           -6.38997090574318       -0.60638575030149       -2.29541944713712
C           -4.39777021508877       -1.94037236783863        0.44553446523197
O           -4.99301600836351       -3.16521429741017        0.41235801939163
C           -4.66546041407896       -4.09880415540082        1.40904219546257
C           -3.42359253935518       -1.54133206657781        1.33990648808679
C           -2.88762493472961       -0.25924012672892        1.28095450466507
C           -2.18921556602325        2.30416827055419       -1.17917497016138
C           -1.26270101642581        1.17936632326309       -1.66768504667795
C            0.00869216989733        1.12765341199884       -0.90258862145338
N            0.63666120447531       -0.04955998179358       -0.56687253487001
C            2.00477143255254       -0.03704728573646       -0.16309984684636
C            2.93961389442858       -0.54863430342295       -1.28052098706224
C            4.36323623398893       -0.43914790509413       -0.83891214114495
C            5.07696829432696        0.72703996236890       -1.04335165265127
C            6.38736290368466        0.85030162316662       -0.60520923135128
C            6.99763616162268       -0.20472302621337        0.05503664056822
O            8.27511700070852       -0.21188361232255        0.52887454938928
C            9.06491335274673        0.92830688058967        0.31973176861013
C            6.27331784378591       -1.40075766179389        0.27878249550173
O            6.95405569698370       -2.38585811244089        0.93129129168999
C            6.31755073912754       -3.61903323982912        1.15359806661126
C            4.96925601822115       -1.49834548956836       -0.16359270623425
C           -0.04890571344264       -1.30644235267863       -0.62747388273708
C           -3.86991809830007        3.07671436998861        0.58211916917344
C           -4.50182409122123        2.77536466463217        1.93969004003813
C           -3.39727041908794        4.52908721094270        0.54749374549485
H           -4.64959998657972        0.94519951748987       -1.31710740136872
H           -6.84251913968638        0.26224339398691       -1.80525605783701
H           -7.16832470991186       -1.18152245185218       -2.79464322372965
H           -5.66148215385445       -0.26690081462252       -3.03993603991644
H           -4.88559694107875       -3.71516327208581        2.41097576137097
H           -5.29334209422576       -4.96598850946921        1.21031034785086
H           -3.61249656719657       -4.39695787347809        1.35734024518982
H           -3.07313322011471       -2.21682112721567        2.10462067555278
H           -2.14743776664880        0.02434361300449        2.01374529344952
H           -3.01950255876999        2.39716321203875       -1.87935512754118
H           -1.63886865065926        3.24667775900083       -1.19066526791712
H           -1.80310649645438        0.23387310858057       -1.62360377633386
H           -1.01621240828311        1.38061485614026       -2.71853577318507
H           -0.68421131785358        1.64992690258291        0.66584915190197
H            0.65168441601682        1.98887806281171       -0.95211120434168
H            2.12183396089989       -0.66774238720265        0.72494004654563
H            2.30375660131345        0.98030822804453        0.10222699377728
H            2.77295317586636        0.05662937227012       -2.17286746431060
H            2.68399614298829       -1.58387110478179       -1.51181257724995
H            4.61846063577877        1.55433810869137       -1.56333792961753
H            6.90404835992157        1.78233026841664       -0.79589876415722
H            8.64099849492093        1.80848265994724        0.81467506020894
H            9.19391497695890        1.13712445728341       -0.74769361102167
H           10.03282115281747        0.69821656805985        0.76176673794309
H            7.05619936188561       -4.24202777903407        1.65624012389754
H            5.43885929100968       -3.51541373743552        1.79999365199453
H            6.02235283531777       -4.10147433784282        0.21518697320332
H            4.40692845172837       -2.40648999358187       -0.00571197521942
H           -0.22102345415186       -1.62656898403203       -1.66133046332745
H           -1.01454470208400       -1.24392721394407       -0.11718831182401
H            0.56028807933263       -2.05665129495554       -0.12876213570139
H           -4.64175163723839        2.95415568880583       -0.18716614750391
H           -3.76778267894427        2.90485095890068        2.72796629607809
H           -4.87956891151215        1.75628981172464        1.97465888040854
H           -5.33079538252792        3.45650527103037        2.11696025767039
H           -2.60687470404901        4.68781946415484        1.27472205980376
H           -3.03913281982306        4.81577985954215       -0.43826316658691
H           -4.22960044647800        5.18158443138081        0.80130244675557
H           -0.61225121647138        2.78145645788679        2.73619553028244
72
 energy: -6.165027242091 xtb: 6.6.1 (8d0f1dd)
N           -1.51394896247164        2.79698970832606        2.25079520677731
C           -1.55464710396162        2.15711568221082        1.17027077369215
C           -2.74113634531229        2.06145948214169        0.25398689874969
C           -3.30974569883667        0.65051507769251        0.33287115737611
C           -4.29351727089143        0.24811253886787       -0.57269186634593
C           -4.84169937795486       -1.01900950313755       -0.52779748203814
O           -5.81018641454119       -1.48503738444952       -1.36497276390268
C           -6.38317198026304       -0.60348075224142       -2.29603725218102
C           -4.39713453756237       -1.93891392076806        0.44819092422498
O           -4.99417891160822       -3.16332635737066        0.41422635702421
C           -4.66809213281774       -4.09782724259737        1.41041784676130
C           -3.42468741017283       -1.53989676398634        1.34455884673315
C           -2.88822299060355       -0.25790405048652        1.28669416861810
C           -2.18231960535749        2.30600493839176       -1.17232966506385
C           -1.26093310184511        1.18093414357480       -1.67090427033083
C            0.01456731185129        1.12691704389551       -0.91237736750019
N            0.63989770306824       -0.05298547317619       -0.57110091221777
C            2.00833993117999       -0.04289482141524       -0.16766231338318
C            2.94514112880227       -0.55726210674518       -1.28265593542198
C            4.36803881108276       -0.44524939118801       -0.84090369202779
C            5.07863604633563        0.72293889903919       -1.04477343892887
C            6.38841448639868        0.85805690573235       -0.60700334479075
C            6.99893087124268       -0.20084056341222        0.05316515081027
O            8.27576803972830       -0.21250614461182        0.52952293055590
C            9.06130058334250        0.92909165210580        0.31918665039455
C            6.27713512404989       -1.40109554345581        0.27786522714267
O            6.95562903661352       -2.38912526602102        0.93145109489551
C            6.31847387346233       -3.62375555748104        1.15371350398352
C            4.97381767194131       -1.50317301468784       -0.16433734413881
C           -0.04639701381420       -1.31020301282610       -0.63300884532976
C           -3.87139593222811        3.07569065341954        0.58033069902356
C           -4.51000323258708        2.77571340270624        1.93503603798062
C           -3.40121153545650        4.52861340531107        0.54618467954704
H           -4.64126606981982        0.94589562436190       -1.31663500876356
H           -6.83481908559560        0.26589970304547       -1.80631193529084
H           -7.16183708819969       -1.17738646485324       -2.79625208139796
H           -5.65331784862268       -0.26484718542675       -3.03953387340698
H           -4.88928515295757       -3.71489304541201        2.41243929666427
H           -5.29580097114719       -4.96490127530217        1.21021924319371
H           -3.61504366961895       -4.39590269728579        1.35991458100413
H           -3.07600841752486       -2.21549450590420        2.11011038030447
H           -2.14932527388726        0.02581472966700        2.02086190853061
H           -3.01184240612558        2.41030591322616       -1.87203524075928
H           -1.62524421380185        3.24440424089057       -1.17809546632443
H           -1.80115390144341        0.23588464660076       -1.62432747717876
H           -1.02560673448798        1.38327886820199       -2.72575082210657
H           -0.68421373617194        1.64764023681716        0.69544385010438
H            0.65652645063606        1.98896417994276       -0.96129038411851
H            2.12584678121192       -0.67082047792953        0.72268650238778
H            2.30581637022078        0.97535046787657        0.09379368631838
H            2.78051068833905        0.04507740371939       -2.17688038009371
H            2.69009809210303       -1.59341282504202       -1.51122247814546
H            4.61590160946839        1.54694124975481       -1.56506955613065
H            6.88477070232986        1.80551158413039       -0.80247733895203
H            8.63075825060099        1.80680903701017        0.81210428034776
H            9.18684789567201        1.13513048073115       -0.74912227141597
H           10.03075624141487        0.70635718249273        0.76129738655087
H            7.05579857535192       -4.24818298045814        1.65712720842462
H            5.43917157074022       -3.52280627265885        1.79990732583726
H            6.02333910771135       -4.10907461194548        0.21654252861943
H            4.41291677687217       -2.41246900640354       -0.00565110015856
H           -0.21871757800204       -1.63102056994397       -1.66706364610077
H           -1.01251361466375       -1.24562958604215       -0.12436448010606
H            0.56000992331867       -2.06218120984929       -0.13281124179538
H           -4.63957476287763        2.95125579383255       -0.19282543754409
H           -3.77930584389154        2.90768686731320        2.72565563781322
H           -4.88564362508260        1.75584338279513        1.96987735399728
H           -5.34123950469353        3.45566130647044        2.10747791518443
H           -2.61459042910974        4.68806596543413        1.27705997866339
H           -3.03802437684893        4.81369115899089       -0.43813556975207
H           -4.23579616773439        5.18057392658518        0.79464339065365
H           -0.62796322557756        2.79386825369856        2.75330156667643
72
 energy: -6.147789570116 xtb: 6.6.1 (8d0f1dd)
N           -1.52528313847893        2.81017368906428        2.25857041177889
C           -1.55691647511163        2.15971431986926        1.18346757358320
C           -2.73820947070000        2.06218508953551        0.25946856310989
C           -3.30698021382146        0.65156453161384        0.33681362193327
C           -4.28856660133872        0.24900192376355       -0.57090749133569
C           -4.83818636551280       -1.01754434293422       -0.52638571959500
O           -5.80569019563103       -1.48301616844964       -1.36524319097687
C           -6.37678783289998       -0.60060988856791       -2.29654170876672
C           -4.39671197421612       -1.93732098257375        0.45095381269462
O           -4.99534163563735       -3.16134297671163        0.41632039036696
C           -4.67029983453640       -4.09682012048710        1.41183968636400
C           -3.42597507567555       -1.53837420390639        1.34926769353325
C           -2.88885429563553       -0.25661622694540        1.29221480892653
C           -2.17545685153227        2.30838146360681       -1.16534608871850
C           -1.25937726877313        1.18254438933338       -1.67357256262809
C            0.02151637544801        1.12543519924246       -0.92409091844386
N            0.64341924168667       -0.05667988206794       -0.57630845617789
C            2.01195218407266       -0.04863029935207       -0.17276924568674
C            2.95037902646108       -0.56600533844307       -1.28526084563204
C            4.37258409672706       -0.45155137530953       -0.84310459799314
C            5.08006559283127        0.71880547751480       -1.04585804225199
C            6.38903405901926        0.86616284135097       -0.60827623295035
C            6.99966414225541       -0.19667120483419        0.05198015612843
O            8.27578319140022       -0.21302704600318        0.53099236345641
C            9.05748280199965        0.92968735358005        0.31906928484323
C            6.28062383492303       -1.40128578162502        0.27705722467069
O            6.95721508577867       -2.39198427772667        0.93185894185277
C            6.31991621836022       -3.62823744883015        1.15417363044450
C            4.97821612846217       -1.50823111517757       -0.16541430766288
C           -0.04421689356785       -1.31355572871537       -0.63977233369058
C           -3.87261110866648        3.07465236802297        0.57877085877858
C           -4.51750207401749        2.77576725452328        1.93072045549862
C           -3.40503966029956        4.52827352166916        0.54486222273524
H           -4.63257079848333        0.94613563659908       -1.31713093069322
H           -6.82724602879092        0.26954263631869       -1.80703913232300
H           -7.15609560591399       -1.17314502863207       -2.79738318956703
H           -5.64586349186287       -0.26297064579969       -3.03941311365907
H           -4.89237467502957       -3.71489754752652        2.41408484381972
H           -5.29784804873667       -4.96375701336609        1.21026815643068
H           -3.61720332492290       -4.39492908375406        1.36226930133214
H           -3.07903969720322       -2.21399637789098        2.11567623887288
H           -2.15099909174813        0.02697012013873        2.02750636106581
H           -3.00487693090131        2.42315055728676       -1.86390047565327
H           -1.61240946482080        3.24330354172505       -1.16540182191267
H           -1.79968595829628        0.23791010810691       -1.62493039140917
H           -1.03515478502978        1.38659286453096       -2.73167804164905
H           -0.68400452344522        1.64492897595578        0.72469388678947
H            0.66258655408915        1.98813665650147       -0.97175725703355
H            2.12966416883454       -0.67406285169198        0.71952310978796
H            2.30871199357453        0.97028314848953        0.08555744495964
H            2.78715415059944        0.03357799639816       -2.18121574124101
H            2.69542802851178       -1.60294135026540       -1.51103150299010
H            4.61320138218012        1.53939439204233       -1.56678781748750
H            6.86494933681137        1.82882342575988       -0.80870577311260
H            8.62070247187967        1.80528769652285        0.80965296647139
H            9.17957520923394        1.13256965181448       -0.75018044090645
H           10.02851582186901        0.71407639037863        0.76103362248489
H            7.05621485050565       -4.25366243215975        1.65846567418787
H            5.43995562256749       -3.53018722061180        1.80018261693209
H            6.02529205677603       -4.11645501519407        0.21812999459473
H            4.41881679753263       -2.41869602485025       -0.00592945370761
H           -0.21754772641451       -1.63462036118794       -1.67400304933581
H           -1.01033739814152       -1.24770515494551       -0.13152031825480
H            0.56030296959412       -2.06717657364301       -0.13925594231079
H           -4.63723708973188        2.94812719766618       -0.19785190798274
H           -3.79001595706964        2.91030853049385        2.72360401263292
H           -4.89136783032704        1.75522866189839        1.96554697064658
H           -5.35071654704161        3.45468508130950        2.09857423178449
H           -2.62209849082505        4.68865876102433        1.27924394189083
H           -3.03720242897654        4.81191300687739       -0.43810958534043
H           -4.24172222296657        5.17960443631607        0.78835362965230
H           -0.64398763584954        2.80686115009797        2.76910240152926
72
 energy: -5.899817745965 xtb: 6.6.1 (8d0f1dd)
N           -1.53701968462424        2.82415922638903        2.26509277403039
C           -1.55884980275086        2.16268803192157        1.19604906605831
C           -2.73492026611101        2.06285721104032        0.26471030102899
C           -3.30358769732460        0.65236051473855        0.34050362934453
C           -4.28329898780652        0.24979968889678       -0.56921777495481
C           -4.83460814788349       -1.01604770887478       -0.52490248718650
O           -5.80120469128693       -1.48093290598909       -1.36539714598828
C           -6.37042262978585       -0.59773436080333       -2.29699700458622
C           -4.39626077685043       -1.93569246416587        0.45379922891451
O           -4.99642644283726       -3.15926764977071        0.41844460455254
C           -4.67243561433386       -4.09573604728023        1.41325883104253
C           -3.42721745952054       -1.53697216232601        1.35408388249373
C           -2.88930362074091       -0.25552342320639        1.29777988254315
C           -2.16852244330820        2.31135739978449       -1.15848075908238
C           -1.25802845263607        1.18418002333759       -1.67586806237929
C            0.02841831415103        1.12284608964478       -0.93624941987787
N            0.64743037286296       -0.06094568252557       -0.58372750365279
C            2.01553000753026       -0.05412221228715       -0.17865563857337
C            2.95565373467048       -0.57481310031279       -1.28826370173227
C            4.37703941405774       -0.45796546960436       -0.84522535378499
C            5.08142218124263        0.71465459631741       -1.04647333061651
C            6.38936326365889        0.87452055390016       -0.60888801141636
C            7.00019389254538       -0.19238291715635        0.05127654262503
O            8.27572548090209       -0.21388035218690        0.53264801360789
C            9.05356998944949        0.93011732360471        0.31898616808225
C            6.28401778129535       -1.40137382376318        0.27631239280486
O            6.95895877256584       -2.39480905591475        0.93208251413728
C            6.32159080492310       -3.63269866969029        1.15450142980170
C            4.98260413016747       -1.51340318210723       -0.16659319059019
C           -0.04225144117018       -1.31681945763987       -0.64732506842433
C           -3.87333322678219        3.07345764823849        0.57735123390335
C           -4.52478620676577        2.77565757379994        1.92642294911696
C           -3.40871574214305        4.52795298214719        0.54345562581232
H           -4.62370602596484        0.94628775611997       -1.31767430507027
H           -6.81970700762168        0.27319979561560       -1.80775872833337
H           -7.15039986240168       -1.16892130471693       -2.79839822485259
H           -5.63849031775265       -0.26113644539429       -3.03934078097309
H           -4.89541171922723       -3.71488544651563        2.41573643365972
H           -5.29985165264004       -4.96248737783815        1.21027995229181
H           -3.61931248560975       -4.39395269446780        1.36460807893099
H           -3.08207793064814       -2.21264812417423        2.12131562981812
H           -2.15269454874837        0.02793001025925        2.03432700829425
H           -2.99801881380137        2.43621629051131       -1.85572409012282
H           -1.59956171044807        3.24273000281329       -1.15273080594001
H           -1.79830788288091        0.23984545429530       -1.62504242754454
H           -1.04498389470064        1.39022296771223       -2.73658634835347
H           -0.68394029230813        1.64064629047289        0.75425388385716
H            0.66911646472916        1.98609713290059       -0.98204217827109
H            2.13335766738655       -0.67694575120717        0.71564220362795
H            2.31207999413766        0.96542674331764        0.07679124210842
H            2.79376455545525        0.02200966400033       -2.18602836886308
H            2.70049555411205       -1.61244510117400       -1.51107102894639
H            4.61037646452100        1.53165001628113       -1.56840896478110
H            6.84461060332604        1.85190817439031       -0.81519918587892
H            8.61047734314307        1.80347528073553        0.80717682243209
H            9.17203788894647        1.12982455266992       -0.75119123823534
H           10.02625983440286        0.72176076808187        0.76057614733681
H            7.05680240512657       -4.25908251838330        1.65982138655666
H            5.44095415169342       -3.53748558729830        1.80032756923497
H            6.02764726112865       -4.12382974033726        0.21956889031540
H            4.42482622743669       -2.42506987525059       -0.00644291060002
H           -0.21674335982411       -1.63831948859254       -1.68149846887493
H           -1.00825549355323       -1.24970395954469       -0.13902104981164
H            0.56060612509999       -2.07178065328317       -0.14651698887171
H           -4.63404302202577        2.94459136124285       -0.20273514178286
H           -3.80085157183171        2.91289428164413        2.72187655092418
H           -4.89710462909129        1.75452011103486        1.96137610275578
H           -5.35995186032039        3.45350875080619        2.08936925571861
H           -2.62958608971276        4.68967089468921        1.28139547378852
H           -3.03631664999440        4.81023539161953       -0.43816826509946
H           -4.24762876693331        5.17837163186273        0.78197232033380
H           -0.66096815676599        2.82004529624858        2.78407810175036
72
 energy: -5.439301056688 xtb: 6.6.1 (8d0f1dd)
N           -1.54914133665938        2.83889930901541        2.27110988649528
C           -1.56077894500430        2.16675163494622        1.20831926901452
C           -2.73149499510640        2.06357773253850        0.26986470517132
C           -3.29983084083350        0.65303113573343        0.34411612510499
C           -4.27779513938690        0.25054658786071       -0.56760538491180
C           -4.83094031042307       -1.01453167500430       -0.52337361392354
O           -5.79672726274131       -1.47881191932508       -1.36540306410905
C           -6.36404328288261       -0.59487985692835       -2.29741229180740
C           -4.39571591523675       -1.93403928351204        0.45670834659602
O           -4.99725024609457       -3.15716045575905        0.42055310044560
C           -4.67449614092013       -4.09462164079311        1.41470771890642
C           -3.42834452648209       -1.53562671057201        1.35895610257554
C           -2.88953619428653       -0.25452484711740        1.30336239031427
C           -2.16156472554936        2.31451002658926       -1.15161285068734
C           -1.25680869117813        1.18581110086747       -1.67790426737439
C            0.03515158583688        1.11947692911109       -0.94881354507602
N            0.65134742922921       -0.06540311633138       -0.59216411043218
C            2.01890924896104       -0.05945665394227       -0.18511428654459
C            2.96081558990586       -0.58367914683646       -1.29160683071233
C            4.38137932552968       -0.46446691944348       -0.84738813670511