72
 energy: -99.096746137099 gnorm: 1.611622496972 xtb: 6.6.1 (8d0f1dd)
N           -2.61347160892016        2.93731134939125        2.47285351193853
C           -2.36252964293497        2.03502230493495        1.64537340446704
C           -3.11912652836480        1.84357122794366        0.35835210895024
C           -3.74658575797394        0.45649502680416        0.32930045619033
C           -4.26582950142899       -0.04811274244068       -0.82179544098460
C           -5.07050885177341       -1.32398243071579       -0.88732436070119
O           -6.48134343840238       -0.90607499909803       -0.71900911350101
C           -7.22387272617043       -0.90860695165378       -1.90994282642522
C           -4.83438682902873       -2.16725694123179        0.35730543922627
O           -5.27749147872463       -3.41348359872549        0.19274591155013
C           -5.29023524808908       -4.30582600925668        1.28999238454925
C           -4.31177544561152       -1.61903313360796        1.50227470231912
C           -3.82168344753014       -0.31584895862891        1.51057723933145
C           -2.02799268823925        1.96132831670357       -0.75403905393218
C           -1.10274253531886        0.79315231551007       -0.77303352855128
C            0.17729180690876        0.86541342589356       -0.36392739199335
N            1.05170783891603       -0.16933023230921       -0.27330667494739
C            2.44484377332430        0.06154516264016       -0.00410731722514
C            3.29960154819433        0.10744484888677       -1.28946516646254
C            4.75528010582188        0.21418604815755       -0.94349773406757
C            5.42954813708083        1.42334503855518       -1.02383495485983
C            6.76977152897019        1.51473438086027       -0.68174184865871
C            7.46448972338980        0.39686391731436       -0.23948527054825
O            8.75976496748037        0.36473044771365        0.11787714808657
C            9.52920739986641        1.54245752543403        0.03650263862596
C            6.77917058933786       -0.84845636946646       -0.14489545644686
O            7.52573448420443       -1.87895202482711        0.29572359304416
C            6.94328936440288       -3.15509945905597        0.41081870937703
C            5.44154624497669       -0.91505159859746       -0.50001952238382
C            0.65845892142984       -1.48853911506826       -0.69694345645390
C           -4.25048859646486        2.88220042069960        0.12848572721694
C           -5.33964117731544        2.75548854151111        1.19152352569399
C           -3.74895254257289        4.32147523762383        0.06362343359828
H           -4.23962052338620        0.51287164311943       -1.74317326595219
H           -6.90405200324445       -0.10885196014792       -2.58928757165502
H           -8.25514940427806       -0.72749612986773       -1.61025241066504
H           -7.16233210222485       -1.87001419905351       -2.42923746855274
H           -5.93096850847750       -3.93034103986173        2.09127671323301
H           -5.69413408084675       -5.24055720256511        0.90630621737915
H           -4.28009540707618       -4.47213198490111        1.67351458873140
H           -4.26796446242110       -2.19404074960470        2.41386883110378
H           -3.48165453587466        0.10164256877688        2.44391984410018
H           -2.53380201184696        2.04485351602866       -1.71747830059838
H           -1.46377666614006        2.87877801948419       -0.58402013089521
H           -5.00037325467023       -1.67526937761688       -1.46916904629732
H           -1.52595808416102       -0.14035010805357       -1.10741015951540
H           -1.53250721106537        1.31855120467138        1.75019930180535
H            0.58082659436650        1.81781217495734       -0.04411369171940
H            2.81658093583011       -0.73991450158881        0.64215880291638
H            2.55601153840516        1.00628616065503        0.53206666087851
H            2.98811814081599        0.96096241218914       -1.89260368689588
H            3.12216830981888       -0.80336917997987       -1.86416792785594
H            4.91275357445262        2.30629387966518       -1.36727690023994
H            7.26867634068400        2.46642352104430       -0.76467193842282
H            9.14208095256115        2.31999041069509        0.70202512664024
H            9.56917647363212        1.92427471021032       -0.98803113457070
H           10.53039484643194        1.25909829902483        0.35582800282617
H            7.73299605548458       -3.80431944824916        0.78423679178514
H            6.11075461398092       -3.15386531661974        1.12158234998117
H            6.59751260437138       -3.52684275077138       -0.55875115668031
H            4.91800841595274       -1.85695555102958       -0.44714952918621
H            0.45051284919861       -1.52188791904046       -1.77069996728792
H           -0.24221555396460       -1.79830485958901       -0.16276604355189
H            1.45429194478176       -2.19396667527311       -0.47149673618394
H           -4.70102862450769        2.63560653182840       -0.84025789509603
H           -4.93481460934201        2.99456359757461        2.17041844110048
H           -5.75265410123171        1.74956980659275        1.21126848035551
H           -6.14613240106264        3.45047372810672        0.97278354185927
H           -3.24603021028247        4.58650961983645        0.98877521627112
H           -3.07084563369449        4.47564018918950       -0.77165900983606
H           -4.59635023679203        4.98953661370215       -0.06756065442435
H           -2.02293735659365        3.00976889711913        3.29530974166894
72
 energy: -99.363037472608 gnorm: 0.048988878600 xtb: 6.6.1 (8d0f1dd)
N           -2.61344165207786        2.93732518877898        2.47299226316678
C           -2.36226803090828        2.03526856804882        1.64547660947082
C           -3.11822512503987        1.84489863832412        0.35872488430953
C           -3.74292681185541        0.46079275592448        0.33287626296790
C           -4.26404462902393       -0.03434060195780       -0.81015353398636
C           -5.08995158261381       -1.24773589278943       -0.76225294859781
O           -6.49597809114165       -0.89527057183693       -0.70537826125902
C           -7.22240067858558       -0.90848137607428       -1.90916841969809
C           -4.83530072391180       -2.16466198644385        0.37446114093328
O           -5.27735131327732       -3.41114859930979        0.19334030649709
C           -5.29023920542914       -4.30594014516097        1.28931859510552
C           -4.30972652931186       -1.61956162840079        1.50814590569798
C           -3.82143768895898       -0.31516523222899        1.51181125154043
C           -2.02788430865961        1.96138642221136       -0.75410202788098
C           -1.10271103534985        0.79311833987596       -0.77300750326927
C            0.17724870011466        0.86541595221193       -0.36389604358990
N            1.05174946991711       -0.16935983055238       -0.27336746532758
C            2.44482540954689        0.06153952221599       -0.00410725376998
C            3.29959341481984        0.10741887354810       -1.28947514984437
C            4.75528121638393        0.21415554803125       -0.94350068974160
C            5.42953959733446        1.42334019508537       -1.02379979814413
C            6.76975246203607        1.51472199474536       -0.68172089523264
C            7.46448647145266        0.39684501502610       -0.23947980578821
O            8.75978458533588        0.36478172900920        0.11785339462126
C            9.52920540049306        1.54250132330308        0.03649214332636
C            6.77923767286998       -0.84843782243984       -0.14489920670783
O            7.52572239791396       -1.87893684479910        0.29568729907678
C            6.94329597876584       -3.15513713172021        0.41080695390641
C            5.44156074575219       -0.91503737948320       -0.50006627506420
C            0.65843999738525       -1.48854174146635       -0.69694494101245
C           -4.25048816321054        2.88233724706110        0.12851970268229
C           -5.33962137968134        2.75550371561503        1.19154027530174
C           -3.74894033671272        4.32153304130513        0.06363562053093
H           -4.24005746506838        0.51189365087521       -1.74250364469179
H           -6.90371258875604       -0.10908380798994       -2.58905220157174
H           -8.25498016110160       -0.72764795844458       -1.61128981287858
H           -7.16166078587043       -1.87031782075891       -2.42857455695718
H           -5.93087846360643       -3.93048925163955        2.09116548630099
H           -5.69418980559378       -5.24055504537292        0.90610861477845
H           -4.28018532237781       -4.47218129694026        1.67345676183228
H           -4.26726464347707       -2.19457796322836        2.41583220310228
H           -3.48145385944384        0.10184038949952        2.44438755221279
H           -2.53381131514984        2.04480674912319       -1.71746512274337
H           -1.46373846247247        2.87878770607402       -0.58408462582512
H           -4.97771979400513       -1.78511072784894       -1.65132888638738
H           -1.52600253233190       -0.14033676024361       -1.10737960226185
H           -1.53247433161774        1.31858563485061        1.75021837365417
H            0.58082594924540        1.81778130910384       -0.04413669070189
H            2.81658394117285       -0.73990247309626        0.64216551510893
H            2.55600310207173        1.00629913560538        0.53203758893571
H            2.98812754979522        0.96093473777134       -1.89263719770019
H            3.12218119755188       -0.80340356130384       -1.86415481324827
H            4.91275408121427        2.30628542375021       -1.36723877934390
H            7.26866270005860        2.46641408160699       -0.76464211941137
H            9.14207782055359        2.31999909165384        0.70199497232819
H            9.56917468885478        1.92427791162391       -0.98801075563450
H           10.53036913484661        1.25915125913296        0.35583490120699
H            7.73300366656709       -3.80431478753425        0.78418885901721
H            6.11078102241748       -3.15386094645345        1.12159183669355
H            6.59749185684003       -3.52683337639459       -0.55874994690306
H            4.91804069913790       -1.85695513986250       -0.44717109983942
H            0.45053980980260       -1.52193332232976       -1.77066812409641
H           -0.24221946430686       -1.79829360540214       -0.16276911987380
H            1.45427740478336       -2.19398921556122       -0.47144850741913
H           -4.70100698848808        2.63563177212848       -0.84024511770081
H           -4.93480997459133        2.99457766367731        2.17041889744700
H           -5.75265127871231        1.74958411806611        1.21128550979241
H           -6.14614035262917        3.45046900590338        0.97278602341058
H           -3.24605742635771        4.58651848268083        0.98879873160712
H           -3.07082557362822        4.47564819572290       -0.77162020933294
H           -4.59634998225811        4.98954891241935       -0.06756408534389
H           -2.02297469041745        3.00976406603054        3.29536564479284
72
 energy: -99.366523449156 gnorm: 0.034888937068 xtb: 6.6.1 (8d0f1dd)
N           -2.60906233325979        2.94172384539892        2.47676667819357
C           -2.35509838080773        2.04170224658982        1.64780384459684
C           -3.11273485599476        1.84707663394801        0.36277969496173
C           -3.74449606384935        0.46351183499031        0.33871963121062
C           -4.27700007871124       -0.03756379125628       -0.80895266926897
C           -5.10531570354461       -1.26867655293222       -0.79727287068478
O           -6.50423631872339       -0.90406607975616       -0.70568075519719
C           -7.22557332653828       -0.90711823393333       -1.91002599055726
C           -4.84665679488760       -2.15811103528569        0.37627132221960
O           -5.28375808573389       -3.40433268471271        0.19559849749288
C           -5.29019782051803       -4.30197160129302        1.28918990791803
C           -4.30746900573571       -1.61614415103571        1.51731366329826
C           -3.82145773560401       -0.31000598113551        1.52025705339178
C           -2.02604451883888        1.96188699443060       -0.75375246675669
C           -1.10252704135991        0.79264296571863       -0.77236797568916
C            0.17762920094630        0.86479173676652       -0.36433291764836
N            1.05210359838735       -0.16992373143265       -0.27370708072797
C            2.44513446464207        0.06115402900760       -0.00446565649501
C            3.30008943951762        0.10638232798423       -1.28977364086011
C            4.75560679990639        0.21342108490241       -0.94337173253855
C            5.42912920125389        1.42310737811037       -1.02295296818672
C            6.76933286760021        1.51499949722305       -0.68088091462967
C            7.46478205045000        0.39724752647500       -0.23928915185205
O            8.76014349821933        0.36555492520623        0.11798693801696
C            9.52886964242239        1.54385585581749        0.03656686282171
C            6.78005534109138       -0.84825133695333       -0.14523608235558
O            7.52639645253209       -1.87882380155594        0.29492045708529
C            6.94388436904722       -3.15502635593001        0.41054572993290
C            5.44250288858059       -0.91538788842370       -0.50047616421056
C            0.65854899665634       -1.48941645607694       -0.69623475133318
C           -4.24701697725612        2.88288850976825        0.13093970724202
C           -5.33790746672575        2.75598501611350        1.19226828407923
C           -3.74774621334758        4.32277536536506        0.06478394757465
H           -4.25345236195280        0.51022301779420       -1.73738840963117
H           -6.89435265717298       -0.11220597482594       -2.58934482986121
H           -8.25955941210234       -0.72243586796804       -1.61990737682471
H           -7.15918803280459       -1.87226919191297       -2.42421850385246
H           -5.92993261068997       -3.93105862958332        2.09416712182370
H           -5.69395382425248       -5.23620124153351        0.90355018468273
H           -4.27893876599229       -4.46969072397948        1.67053608347440
H           -4.24406372239149       -2.19472979714566        2.42558615124194
H           -3.47765023755362        0.10737071098571        2.45197008684483
H           -2.53450396102017        2.04337591270473       -1.71581901969448
H           -1.46096461469954        2.87926297751554       -0.58722516877525
H           -4.99255314421935       -1.81341337179403       -1.69440577748666
H           -1.52709751235471       -0.14071387920257       -1.10523423472042
H           -1.52791221552319        1.32231406479022        1.75453911760922
H            0.58169167226036        1.81698328347934       -0.04522863237059
H            2.81689921461974       -0.73977464581410        0.64255413031418
H            2.55590996131867        1.00636233460432        0.53097871774949
H            2.98844562803000        0.95952443051426       -1.89351541179911
H            3.12288727485692       -0.80480100605248       -1.86381536360837
H            4.91222763719944        2.30631699959951       -1.36578918940757
H            7.26804370231095        2.46691031847628       -0.76320483385977
H            9.14115111189651        2.32155620675550        0.70177924036474
H            9.56906566897407        1.92547496907188       -0.98816833948761
H           10.53018033147011        1.26126893908164        0.35641918742029
H            7.73386528896322       -3.80443964305873        0.78300772035691
H            6.11212811056952       -3.15352450432565        1.12222216459482
H            6.59693284816641       -3.52648300130429       -0.55866647186299
H            4.91925217821842       -1.85730560397152       -0.44800639114037
H            0.45119872841662       -1.52392124228004       -1.77011893311022
H           -0.24264199922022       -1.79842039752311       -0.16231468707104
H            1.45403065245849       -2.19515444941686       -0.46954870127145
H           -4.69669698021985        2.63517618027329       -0.83807807858386
H           -4.93462909555533        2.99561891688770        2.17151779490616
H           -5.75110237530335        1.75019115262698        1.21203231648117
H           -6.14454986854912        3.45039365774769        0.97215399948023
H           -3.24606687069592        4.58899792721643        0.99021001009176
H           -3.06911552368374        4.47674482270828       -0.77010058089842
H           -4.59593432508586        4.98963803279208       -0.06784437722394
H           -2.02244439147921        3.01108974651614        3.30204569663638
72
 energy: -99.367591323511 gnorm: 0.026128367468 xtb: 6.6.1 (8d0f1dd)
N           -2.61104072159354        2.94036327879820        2.47964135797284
C           -2.35705410178189        2.04023512743680        1.65069688489605
C           -3.11346002356245        1.84784225326635        0.36422213686240
C           -3.74879021859134        0.46467840654671        0.34139182072269
C           -4.28670201353201       -0.03613859223694       -0.80686190311977
C           -5.11063212226730       -1.28330077389515       -0.81993685526995
O           -6.50499635362808       -0.91308524326781       -0.70806353169613
C           -7.22651319243290       -0.90481775689642       -1.91155628973964
C           -4.85068503976858       -2.15554607472240        0.37904310773146
O           -5.28648791150868       -3.40117566080008        0.20254112852043
C           -5.29087216604252       -4.30179197492833        1.29289823046535
C           -4.30627057695349       -1.61459376532388        1.52060931657235
C           -3.82060551215507       -0.30832373771641        1.52286849734632
C           -2.02678640574248        1.96026696552645       -0.75274884603617
C           -1.10338770849981        0.79077870732549       -0.77101076955116
C            0.17727587565118        0.86324977431825       -0.36436889893064
N            1.05224990919309       -0.17118955817322       -0.27394642292096
C            2.44520709073479        0.06054654847975       -0.00502451205314
C            3.30048108735723        0.10461729961503       -1.29018028340881
C            4.75591082509998        0.21263270389170       -0.94354862306633
C            5.42859572600113        1.42287582234994       -1.02181536303995
C            6.76871193014329        1.51530923401631       -0.67973061401655
C            7.46513266303613        0.39774278967286       -0.23923805405870
O            8.76063276170166        0.36709389067825        0.11777500159092
C            9.52837632758317        1.54598855031240        0.03641231806635
C            6.78125780111531       -0.84823973530080       -0.14600696013440
O            7.52785782579534       -1.87890119264249        0.29342233714534
C            6.94504373677485       -3.15498465123919        0.40965925574584
C            5.44365841284246       -0.91593217188859       -0.50143206805961
C            0.65861027904048       -1.49104140859974       -0.69497031442450
C           -4.24581648419193        2.88612139151865        0.13259706193878
C           -5.33663533886108        2.75874045658309        1.19392259738909
C           -3.74603493303228        4.32585582717413        0.06714520509415
H           -4.26268586560313        0.51678463379717       -1.73134426212254
H           -6.88359870112039       -0.11510052761327       -2.59013641597091
H           -8.26086793742658       -0.71196228313751       -1.63078653627794
H           -7.16305227522019       -1.87185589833669       -2.42320097114504
H           -5.92775851470310       -3.93287651398714        2.10058632212922
H           -5.69582580173972       -5.23466589997311        0.90505247479279
H           -4.27864997962612       -4.47065004527664        1.67015816888939
H           -4.23768466336874       -2.19246091147490        2.42973410122823
H           -3.47276612658312        0.10918969932391        2.45381848224722
H           -2.53646589078525        2.04017846212145       -1.71428953493236
H           -1.46076368681783        2.87771150507137       -0.58887467390015
H           -4.99266915319617       -1.83788588053577       -1.72799346699798
H           -1.52920446220343       -0.14252630704103       -1.10240268385204
H           -1.52348934101750        1.32741451459019        1.75290693912647
H            0.58191761113749        1.81590163067755       -0.04718492810115
H            2.81727273250896       -0.73951542805206        0.64283658202787
H            2.55580409402148        1.00638704659043        0.52936545980436
H            2.98884869377233        0.95703449986050       -1.89490284254968
H            3.12371101008903       -0.80724803704530       -1.86331358409392
H            4.91118006802893        2.30610787727449       -1.36361510586110
H            7.26676084275803        2.46759282681149       -0.76114206956089
H            9.13965920422235        2.32349716738185        0.70105726991106
H            9.56869527171135        1.92716253349652       -0.98834918389058
H           10.52970864288486        1.26449530516861        0.35691027812256
H            7.73542784045375       -3.80468127270016        0.78059281119718
H            6.11450926027388       -3.15326932634766        1.12277769651573
H            6.59626719969823       -3.52610453539543       -0.55900928318741
H            4.92104622176038       -1.85828643102057       -0.44964729301495
H            0.45223059703135       -1.52695931728264       -1.76890708098008
H           -0.24320712437752       -1.79884424241022       -0.16155198983527
H            1.45359338538413       -2.19671870983366       -0.46652909365140
H           -4.69436135125603        2.63813682809968       -0.83679934768731
H           -4.93362860839668        2.99793774588473        2.17348027687724
H           -5.75007461639047        1.75297689835111        1.21335560123329
H           -6.14311297292806        3.45321330891811        0.97337466978805
H           -3.24572974995863        4.59254008178203        0.99314035617062
H           -3.06621867357734        4.47918015243588       -0.76685171598985
H           -4.59411881774213        4.99246556154930       -0.06723154467876
H           -2.02041419259923        3.01396608095072        3.30177501226153
72
 energy: -99.367924047044 gnorm: 0.017883045475 xtb: 6.6.1 (8d0f1dd)
N           -2.61151479761867        2.94070885936033        2.47962211675428
C           -2.35531036282612        2.04296178108439        1.64867536340201
C           -3.11561502339385        1.84795827431899        0.36439805535601
C           -3.75144010284860        0.46426168856280        0.34126893496629
C           -4.29126488070631       -0.03459239909046       -0.80594198734862
C           -5.11058200181438       -1.28761919786673       -0.82448285250264
O           -6.50406426952595       -0.91986485520520       -0.71241800140128
C           -7.22514829387629       -0.90338819715424       -1.91647270388309
C           -4.85081665097474       -2.15663891098181        0.38021684458535
O           -5.28826020629859       -3.40182459634870        0.20769283640440
C           -5.29167272557012       -4.30295198631545        1.29733511785480
C           -4.30649080488825       -1.61473735954583        1.52005894956987
C           -3.81903558276834       -0.30913560435880        1.52234336174325
C           -2.02867580388952        1.95804251363388       -0.75241046408961
C           -1.10500718624897        0.78842799943925       -0.76933011448740
C            0.17632151720963        0.86158758935783       -0.36462980796234
N            1.05195272336656       -0.17244182934165       -0.27426497868964
C            2.44487136599891        0.05999275686794       -0.00569111432324
C            3.30059555387348        0.10264129244075       -1.29062362587340
C            4.75595922419865        0.21183727920414       -0.94369725003071
C            5.42777532565302        1.42264013878174       -1.02066156605265
C            6.76781274261636        1.51567749054373       -0.67858237058752
C            7.46525387733251        0.39828887439684       -0.23931828611985
O            8.76091206555209        0.36888492414013        0.11735071298871
C            9.52757944095724        1.54843426384786        0.03616028228234
C            6.78235860652004       -0.84829245396485       -0.14699215815814
O            7.52961556890288       -1.87895023929066        0.29155659443765
C            6.94670397568966       -3.15496254324220        0.40838215271669
C            5.44467292447153       -0.91654148625167       -0.50244839324324
C            0.65846259666492       -1.49287042220506       -0.69339111910368
C           -4.24583016010476        2.88874075725868        0.13388660687390
C           -5.33648680780305        2.76238496057078        1.19543694282247
C           -3.74404856550570        4.32784522527950        0.06969864844925
H           -4.27058297280783        0.52316846272583       -1.72802477221589
H           -6.87314316396225       -0.11687146239142       -2.59346293386880
H           -8.25841180618884       -0.70093420006964       -1.63986633318914
H           -7.16975457170705       -1.87093528708427       -2.42801786279233
H           -5.92556254297984       -3.93427116517758        2.10713211404889
H           -5.69883090172426       -5.23451828662629        0.90934700862817
H           -4.27874749949799       -4.47328750054405        1.67143008394586
H           -4.23993603956854       -2.19170521911844        2.42953151133604
H           -3.46848703699539        0.10762331428620        2.45286880386876
H           -2.53871965628007        2.03630258682920       -1.71393777583076
H           -1.46244841693277        2.87575811263424       -0.59023874770506
H           -4.98586532460487       -1.84980104064790       -1.74037723224235
H           -1.53166620933523       -0.14528851904066       -1.09868019318096
H           -1.52230855417593        1.32961806517201        1.75171668825577
H            0.58121148067513        1.81487981365360       -0.04939922652943
H            2.81721700282085       -0.73913322402902        0.64312780275948
H            2.55538533981370        1.00653567816795        0.52749327342620
H            2.98901046494357        0.95410877531680       -1.89663390145809
H            3.12449822399004       -0.81007423959432       -1.86267669218700
H            4.90953701006602        2.30571559136789       -1.36140959210508
H            7.26495373574648        2.46846624769054       -0.75904007672654
H            9.13784020549244        2.32563253937011        0.70033713078528
H            9.56801271636605        1.92925247234437       -0.98857801058141
H           10.52894740902708        1.26799372795524        0.35720937401260
H            7.73760014021444       -3.80490544215295        0.77765088041814
H            6.11748124286435       -3.15318945799002        1.12304259030641
H            6.59601033197325       -3.52575547035087       -0.55971652296913
H            4.92296934112370       -1.85952634499946       -0.45145540661973
H            0.45314790840563       -1.53051896174140       -1.76738557432389
H           -0.24387672152221       -1.79949245110849       -0.16036526082749
H            1.45304663982985       -2.19823133971722       -0.46295994325334
H           -4.69473477255227        2.64237804337392       -0.83566183608976
H           -4.93283402616278        3.00104154069037        2.17485964957563
H           -5.75042620327914        1.75680766729161        1.21501494805927
H           -6.14257737625094        3.45748203060787        0.97536801872005
H           -3.24503046185057        4.59404154851978        0.99652565002278
H           -3.06272478944133        4.48090375376662       -0.76308955302543
H           -4.59125731932546        4.99529712259786       -0.06586990891633
H           -2.02201051152848        3.01306745264799        3.30272994369370
72
 energy: -99.368199527465 gnorm: 0.006293427629 xtb: 6.6.1 (8d0f1dd)
N           -2.61546214539825        2.93676979707099        2.48175799848092
C           -2.35847496048865        2.04064132542251        1.64927851690887
C           -3.11894028259478        1.84778263838938        0.36441063954464
C           -3.75494382943593        0.46369678310724        0.34093356791814
C           -4.29721566137211       -0.03259596528395       -0.80439140686235
C           -5.11068772162658       -1.28859578499209       -0.82205292722588
O           -6.50461918729698       -0.92896778426797       -0.71967147623349
C           -7.22043257651828       -0.90123741028655       -1.92749301452525
C           -4.85142803413746       -2.15847502507062        0.38197030435851
O           -5.29221232430149       -3.40314788398481        0.21427750676902
C           -5.29308467267710       -4.30405987248369        1.30408137474865
C           -4.30667744548629       -1.61523827619383        1.51906687759754
C           -3.81607077630788       -0.31078883619329        1.52135918573542
C           -2.03167823870371        1.95445078535420       -0.75259171427867
C           -1.10795511287818        0.78445747073945       -0.76689833098366
C            0.17445178569443        0.85888716581100       -0.36560710883973
N            1.05109925632381       -0.17437739700609       -0.27490895899098
C            2.44396700324378        0.05919626964288       -0.00680492715880
C            3.30049819367292        0.09907640054128       -1.29134430411162