25
 energy: 23.082712723551 xtb: 6.6.1 (8d0f1dd)
C            3.25703622562612        1.33718425265672        0.08477102819750
N            2.40678807629112        0.17304219966374        0.03633799936959
C            2.76808236748845       -1.15944132988577        0.07618687191535
N            1.62849553234434       -1.92828576987032        0.04961633730279
C            0.50387168496247       -1.17797464662230       -0.00196783312802
C            1.00176146458032        0.16856542392267       -0.00050176513713
C            0.20292226705936        1.31520505011025       -0.02530649071790
O            0.54025719843866        2.50523504957806       -0.04675650087121
N           -1.16784937337855        0.94215518234710       -0.02732839638109
C           -2.13617862254367        2.03931407917684       -0.04602596267309
C           -1.68570438807777       -0.31380933222139       -0.00399860950621
O           -2.90184052879589       -0.39396356195252        0.04961193713854
N           -0.90048468806671       -1.50495205010917       -0.03110535702797
C           -1.95077662038696       -2.72097100594556       -0.11410152567406
H            3.79841107621415        1.38653430114928        1.03812676790875
H            4.00661109639293        1.31132039282919       -0.71644780683856
H            2.63862155715511        2.24242169713253       -0.01086596148662
H            3.77033790934470       -1.52453805355437        0.08017870155224
H           -1.57169597455606        2.97082266589479       -0.03111015093034
H           -2.74061051903616        1.98480303391712       -0.94864241542397
H           -2.77977220469672        1.98628537568156        0.82784318374258
H           -1.86429562318810       -3.38194176349529        0.74924889560219
H           -1.84078330368158       -3.30258226933462       -1.02318718375849
H           -2.91176790383962       -2.20111197757907       -0.10330525581616
H            1.64956817592012       -2.93332775726347        0.05579661984748
