      -----------------------------------------------------------      
     |                   =====================                   |     
     |                           x T B                           |     
     |                   =====================                   |     
     |                         S. Grimme                         |     
     |          Mulliken Center for Theoretical Chemistry        |     
     |                    University of Bonn                     |     
      -----------------------------------------------------------      

   * xtb version 6.6.1 (8d0f1dd) compiled by 'conda@1efc2f54142f' on 2023-08-01

   xtb is free software: you can redistribute it and/or modify it under
   the terms of the GNU Lesser General Public License as published by
   the Free Software Foundation, either version 3 of the License, or
   (at your option) any later version.
   
   xtb is distributed in the hope that it will be useful,
   but WITHOUT ANY WARRANTY; without even the implied warranty of
   MERCHANTABILITY or FITNESS FOR A PARTICULAR PURPOSE.  See the
   GNU Lesser General Public License for more details.
   
   Cite this work as:
   * C. Bannwarth, E. Caldeweyher, S. Ehlert, A. Hansen, P. Pracht,
     J. Seibert, S. Spicher, S. Grimme, WIREs Comput. Mol. Sci., 2020, 11,
     e01493. DOI: 10.1002/wcms.1493
   
   for GFN2-xTB:
   * C. Bannwarth, S. Ehlert and S. Grimme., J. Chem. Theory Comput., 2019,
     15, 1652-1671. DOI: 10.1021/acs.jctc.8b01176
   for GFN1-xTB:
   * S. Grimme, C. Bannwarth, P. Shushkov, J. Chem. Theory Comput., 2017,
     13, 1989-2009. DOI: 10.1021/acs.jctc.7b00118
   for GFN0-xTB:
   * P. Pracht, E. Caldeweyher, S. Ehlert, S. Grimme, ChemRxiv, 2019, preprint.
     DOI: 10.26434/chemrxiv.8326202.v1
   for GFN-FF:
   * S. Spicher and S. Grimme, Angew. Chem. Int. Ed., 2020, 59, 15665-15673.
     DOI: 10.1002/anie.202004239
   
   for ALPB and GBSA implicit solvation:
   * S. Ehlert, M. Stahn, S. Spicher, S. Grimme, J. Chem. Theory Comput.,
     2021, 17, 4250-4261. DOI: 10.1021/acs.jctc.1c00471
   
   for DFT-D4:
   * E. Caldeweyher, C. Bannwarth and S. Grimme, J. Chem. Phys., 2017,
     147, 034112. DOI: 10.1063/1.4993215
   * E. Caldeweyher, S. Ehlert, A. Hansen, H. Neugebauer, S. Spicher,
     C. Bannwarth and S. Grimme, J. Chem. Phys., 2019, 150, 154122.
     DOI: 10.1063/1.5090222
   * E. Caldeweyher, J.-M. Mewes, S. Ehlert and S. Grimme, Phys. Chem. Chem. Phys.
     2020, 22, 8499-8512. DOI: 10.1039/D0CP00502A
   
   for sTDA-xTB:
   * S. Grimme and C. Bannwarth, J. Chem. Phys., 2016, 145, 054103.
     DOI: 10.1063/1.4959605
   
   in the mass-spec context:
   * V. Asgeirsson, C. Bauer and S. Grimme, Chem. Sci., 2017, 8, 4879.
     DOI: 10.1039/c7sc00601b
   * J. Koopman and S. Grimme, ACS Omega 2019, 4, 12, 15120-15133.
     DOI: 10.1021/acsomega.9b02011
   
   for metadynamics refer to:
   * S. Grimme, J. Chem. Theory Comput., 2019, 155, 2847-2862
     DOI: 10.1021/acs.jctc.9b00143
   
   for SPH calculations refer to:
   * S. Spicher and S. Grimme, J. Chem. Theory Comput., 2021, 17, 1701-1714
     DOI: 10.1021/acs.jctc.0c01306
   
   with help from (in alphabetical order)
   P. Atkinson, C. Bannwarth, F. Bohle, G. Brandenburg, E. Caldeweyher
   M. Checinski, S. Dohm, S. Ehlert, S. Ehrlich, I. Gerasimov, C. Hölzer
   A. Katbashev, J. Koopman, C. Lavigne, S. Lehtola, F. März, M. Müller,
   F. Musil, H. Neugebauer, J. Pisarek, C. Plett, P. Pracht, F. Pultar,
   J. Seibert, P. Shushkov, S. Spicher, M. Stahn, M. Steiner, T. Strunk,
   J. Stückrath, T. Rose, and J. Unsleber
   
 * started run on 2024/06/05 at 20:00:07.729     

           -------------------------------------------------
          |                Calculation Setup                |
           -------------------------------------------------

          program call               : xtb struc.xyz --opt loose --input .xc1 --gfn2
          hostname                   : n-62-11-66
          coordinate file            : struc.xyz
          omp threads                :                     1

   ID    Z sym.   atoms
    1    6 C      1, 3, 5-7, 10, 11, 14
    2    7 N      2, 4, 9, 13
    3    8 O      8, 12
    4    1 H      15-25
constraining bond 3 17 to    5.1400000 Å, actual value:    3.3163079 Å

           -------------------------------------------------
          |                 G F N 2 - x T B                 |
           -------------------------------------------------

        Reference                      10.1021/acs.jctc.8b01176
      * Hamiltonian:
        H0-scaling (s, p, d)           1.850000    2.230000    2.230000
        zeta-weighting                 0.500000
      * Dispersion:
        s8                             2.700000
        a1                             0.520000
        a2                             5.000000
        s9                             5.000000
      * Repulsion:
        kExp                           1.500000    1.000000
        rExp                           1.000000
      * Coulomb:
        alpha                          2.000000
        third order                    shell-resolved
        anisotropic                    true
        a3                             3.000000
        a5                             4.000000
        cn-shift                       1.200000
        cn-exp                         4.000000
        max-rad                        5.000000


          ...................................................
          :                      SETUP                      :
          :.................................................:
          :  # basis functions                  67          :
          :  # atomic orbitals                  67          :
          :  # shells                           39          :
          :  # electrons                        74          :
          :  max. iterations                   250          :
          :  Hamiltonian                  GFN2-xTB          :
          :  restarted?                      false          :
          :  GBSA solvation                  false          :
          :  PC potential                    false          :
          :  electronic temp.         5000.0000000     K    :
          :  accuracy                    1.0000000          :
          :  -> integral cutoff          0.2500000E+02      :
          :  -> integral neglect         0.1000000E-07      :
          :  -> SCF convergence          0.1000000E-05 Eh   :
          :  -> wf. convergence          0.1000000E-03 e    :
          :  Broyden damping             0.4000000          :
          ...................................................

 iter      E             dE          RMSdq      gap      omega  full diag
   1    -42.5894031 -0.425894E+02  0.445E+00    3.52       0.0  T
   2    -42.7683054 -0.178902E+00  0.251E+00    3.36       1.0  T
   3    -42.7759211 -0.761567E-02  0.147E+00    3.35       1.0  T
   4    -42.7728404  0.308066E-02  0.553E-01    3.33       1.0  T
   5    -42.7789548 -0.611444E-02  0.112E-01    3.35       1.0  T
   6    -42.7790473 -0.924914E-04  0.614E-02    3.33       1.0  T
   7    -42.7790721 -0.247928E-04  0.258E-02    3.34       1.0  T
   8    -42.7790772 -0.508996E-05  0.938E-03    3.34       2.1  T
   9    -42.7790779 -0.669422E-06  0.448E-03    3.34       4.5  T
  10    -42.7790780 -0.821510E-07  0.115E-03    3.34      17.4  T
  11    -42.7790780 -0.322663E-08  0.553E-04    3.34      36.2  T
  12    -42.7790780 -0.287051E-08  0.180E-04    3.34     111.1  T

   *** convergence criteria satisfied after 12 iterations ***

         #    Occupation            Energy/Eh            Energy/eV
      -------------------------------------------------------------
         1        2.0000           -0.9185990             -24.9964
       ...           ...                  ...                  ...
        31        1.9996           -0.6230278             -16.9534
        32        1.9995           -0.6194601             -16.8564
        33        1.9979           -0.5974976             -16.2587
        34        1.9932           -0.5789629             -15.7544
        35        1.9817           -0.5631863             -15.3251
        36        1.9779           -0.5602245             -15.2445
        37        1.9748           -0.5581234             -15.1873 (HOMO)
        38        0.0652           -0.4353579             -11.8467 (LUMO)
        39        0.0099           -0.4050467             -11.0219
        40        0.0013           -0.3732218             -10.1559
        41        0.0000           -0.2886859              -7.8555
        42                         -0.2065804              -5.6213
       ...                                ...                  ...
        67                          0.5625656              15.3082
      -------------------------------------------------------------
                  HL-Gap            0.1227656 Eh            3.3406 eV
             Fermi-level           -0.4890455 Eh          -13.3076 eV

 SCC (total)                   0 d,  0 h,  0 min,  0.032 sec
 SCC setup                      ...        0 min,  0.000 sec (  0.687%)
 Dispersion                     ...        0 min,  0.000 sec (  0.835%)
 classical contributions        ...        0 min,  0.000 sec (  0.215%)
 integral evaluation            ...        0 min,  0.004 sec ( 13.834%)
 iterations                     ...        0 min,  0.015 sec ( 48.009%)
 molecular gradient             ...        0 min,  0.011 sec ( 35.957%)
 printout                       ...        0 min,  0.000 sec (  0.445%)

         :::::::::::::::::::::::::::::::::::::::::::::::::::::
         ::                     SUMMARY                     ::
         :::::::::::::::::::::::::::::::::::::::::::::::::::::
         :: total energy             -18.494190694671 Eh    ::
         :: gradient norm             19.497481145004 Eh/a0 ::
         :: HOMO-LUMO gap              3.340621582928 eV    ::
         ::.................................................::
         :: SCC energy               -42.779077977399 Eh    ::
         :: -> isotropic ES            0.141123876439 Eh    ::
         :: -> anisotropic ES         -0.005230418907 Eh    ::
         :: -> anisotropic XC          0.011966818540 Eh    ::
         :: -> dispersion             -0.022657731803 Eh    ::
         :: repulsion energy           0.531105277918 Eh    ::
         :: add. restraining          23.753667845801 Eh    ::
         :: total charge               1.000000000002 e     ::
         :::::::::::::::::::::::::::::::::::::::::::::::::::::

      ----------------------------------------------------------- 
     |                   =====================                   |
     |                        A N C O P T                        |
     |                   =====================                   |
     |               Approximate Normal Coordinate               |
     |                Rational Function Optimizer                |
      ----------------------------------------------------------- 

          ...................................................
          :                      SETUP                      :
          :.................................................:
          :   optimization level             loose          :
          :   max. optcycles                   200          :
          :   ANC micro-cycles                  20          :
          :   degrees of freedom                69          :
          :.................................................:
          :   RF solver                   davidson          :
          :   write xtbopt.log                true          :
          :   linear?                        false          :
          :   energy convergence         0.5000000E-04 Eh   :
          :   grad. convergence          0.4000000E-02 Eh/α :
          :   maxmium RF displ.          1.0000000          :
          :   Hlow (freq-cutoff)         0.1000000E-01      :
          :   Hmax (freq-cutoff)         5.0000000          :
          :   S6 in model hess.         20.0000000          :
          ...................................................

generating ANC from model Hessian ...
Using Lindh-Hessian (1995)
 Shifting diagonal of input Hessian by    4.0524821571719833     
 Lowest  eigenvalues of input Hessian
    0.010000    0.373547    0.000000    0.000000    0.000000    0.000000
    0.000000    0.000000    4.056622    4.058066    4.059242    4.063247
    4.063785    4.066383    4.069521    4.070847    4.076304    4.089192
 Highest eigenvalues
    6.108236    6.192248    6.307208    6.461913    6.594264   12.949810


........................................................................
.............................. CYCLE    1 ..............................
........................................................................

 iter      E             dE          RMSdq      gap      omega  full diag
   1    -42.7790780 -0.427791E+02  0.626E-05    3.34       0.0  T
   2    -42.7790780 -0.124416E-10  0.329E-05    3.34     607.4  T
   3    -42.7790780  0.127898E-12  0.193E-05    3.34    1034.2  T
     SCC iter.                  ...        0 min,  0.004 sec
     gradient                   ...        0 min,  0.012 sec
 * total energy  :   -18.4941907 Eh     change       -0.6650680E-10 Eh
   gradient norm :    19.4974815 Eh/α   predicted     0.0000000E+00 (-100.00%)
   displ. norm   :     0.8799909 α      lambda       -0.1715751E+02
   maximum displ.:     0.8746106 α      in ANC's #50, #63, #62, ...

........................................................................
.............................. CYCLE    2 ..............................
........................................................................

 iter      E             dE          RMSdq      gap      omega  full diag
   1    -42.6598606 -0.426599E+02  0.150E+00    2.57       0.0  T
   2    -42.6729954 -0.131349E-01  0.908E-01    2.52       1.0  T
   3    -42.6782709 -0.527552E-02  0.550E-01    2.58       1.0  T
   4    -42.6806117 -0.234075E-02  0.298E-01    2.51       1.0  T
   5    -42.6818736 -0.126192E-02  0.463E-02    2.54       1.0  T
   6    -42.6819137 -0.400934E-04  0.154E-02    2.54       1.3  T
   7    -42.6819148 -0.108384E-05  0.483E-03    2.54       4.1  T
   8    -42.6819150 -0.197737E-06  0.165E-03    2.54      12.2  T
   9    -42.6819150 -0.290708E-07  0.759E-04    2.54      26.4  T
  10    -42.6819150 -0.559916E-08  0.334E-04    2.54      59.9  T
     SCC iter.                  ...        0 min,  0.012 sec
     gradient                   ...        0 min,  0.011 sec
 * total energy  :   -32.4365256 Eh     change       -0.1394233E+02 Eh
   gradient norm :    12.2496737 Eh/α   predicted    -0.1522205E+02 (   9.18%)
   displ. norm   :     0.7195656 α      lambda       -0.8808578E+01
   maximum displ.:     0.7119211 α      in ANC's #50, #63, #62, ...

........................................................................
.............................. CYCLE    3 ..............................
........................................................................

 iter      E             dE          RMSdq      gap      omega  full diag
   1    -42.5561111 -0.425561E+02  0.966E-01    2.15       0.0  T
   2    -42.5566596 -0.548515E-03  0.771E-01    2.08       1.0  T
   3    -42.5636745 -0.701488E-02  0.465E-01    2.12       1.0  T
   4    -42.5661938 -0.251939E-02  0.237E-01    2.08       1.0  T
   5    -42.5674219 -0.122805E-02  0.798E-02    2.10       1.0  T
   6    -42.5675630 -0.141125E-03  0.156E-02    2.09       1.3  T
   7    -42.5675652 -0.218258E-05  0.770E-03    2.10       2.6  T
   8    -42.5675655 -0.268611E-06  0.341E-03    2.10       5.9  T
   9    -42.5675656 -0.149622E-06  0.132E-03    2.10      15.2  T
  10    -42.5675656 -0.162900E-07  0.432E-04    2.10      46.3  T
  11    -42.5675656 -0.243963E-08  0.128E-04    2.10     155.7  T
     SCC iter.                  ...        0 min,  0.013 sec
     gradient                   ...        0 min,  0.011 sec
 * total energy  :   -39.1853588 Eh     change       -0.6748833E+01 Eh
   gradient norm :     6.5366592 Eh/α   predicted    -0.6686981E+01 (  -0.92%)
   displ. norm   :     0.5676626 α      lambda       -0.3690329E+01
   maximum displ.:     0.5565640 α      in ANC's #50, #63, #2, ...

........................................................................
.............................. CYCLE    4 ..............................
........................................................................

 iter      E             dE          RMSdq      gap      omega  full diag
   1    -42.4442625 -0.424443E+02  0.107E+00    1.00       0.0  T
   2    -42.2889300  0.155332E+00  0.231E+00    1.91       1.0  T
   3    -42.4825692 -0.193639E+00  0.469E-01    1.26       1.0  T
   4    -42.4858229 -0.325374E-02  0.226E-01    1.21       1.0  T
   5    -42.4860075 -0.184542E-03  0.104E-01    1.20       1.0  T
   6    -42.4862122 -0.204751E-03  0.356E-02    1.19       1.0  T
   7    -42.4862502 -0.379698E-04  0.147E-02    1.20       1.4  T
   8    -42.4862521 -0.188395E-05  0.497E-03    1.20       4.0  T
   9    -42.4862524 -0.268342E-06  0.162E-03    1.20      12.3  T
  10    -42.4862524 -0.102087E-07  0.111E-03    1.20      18.1  T
  11    -42.4862524 -0.266957E-07  0.247E-04    1.20      81.0  T
  12    -42.4862524 -0.667093E-09  0.111E-04    1.20     180.1  T
     SCC iter.                  ...        0 min,  0.015 sec
     gradient                   ...        0 min,  0.011 sec
 * total energy  :   -41.6384697 Eh     change       -0.2453111E+01 Eh
   gradient norm :     2.1271357 Eh/α   predicted    -0.2443303E+01 (  -0.40%)
   displ. norm   :     0.2848148 α      lambda       -0.5611430E+00
   maximum displ.:     0.2516151 α      in ANC's #50, #2, #61, ...

........................................................................
.............................. CYCLE    5 ..............................
........................................................................

 iter      E             dE          RMSdq      gap      omega  full diag
   1    -42.4032601 -0.424033E+02  0.118E+00    0.68       0.0  T
   2    -42.0689200  0.334340E+00  0.307E+00    1.75       1.0  T
   3    -42.4516457 -0.382726E+00  0.329E-01    0.84       1.0  T
   4    -42.4540621 -0.241641E-02  0.146E-01    0.81       1.0  T
   5    -42.4541256 -0.634409E-04  0.729E-02    0.81       1.0  T
   6    -42.4541851 -0.595332E-04  0.183E-02    0.81       1.1  T
   7    -42.4541917 -0.656624E-05  0.130E-02    0.81       1.5  T
   8    -42.4541934 -0.176389E-05  0.839E-03    0.81       2.4  T
   9    -42.4541950 -0.155187E-05  0.304E-03    0.81       6.6  T
  10    -42.4541952 -0.231288E-06  0.136E-03    0.81      14.7  T
  11    -42.4541953 -0.469818E-07  0.412E-04    0.81      48.5  T
  12    -42.4541953 -0.393668E-08  0.713E-05    0.81     280.6  T
     SCC iter.                  ...        0 min,  0.015 sec
     gradient                   ...        0 min,  0.011 sec
 * total energy  :   -41.9376931 Eh     change       -0.2992234E+00 Eh
   gradient norm :     0.1813044 Eh/α   predicted    -0.3033315E+00 (   1.37%)
   displ. norm   :     0.0657268 α      lambda       -0.7680117E-02
   maximum displ.:     0.0479622 α      in ANC's #2, #1, #40, ...

........................................................................
.............................. CYCLE    6 ..............................
........................................................................

 iter      E             dE          RMSdq      gap      omega  full diag
   1    -42.4513170 -0.424513E+02  0.291E-01    0.72       0.0  T
   2    -42.4218171  0.294999E-01  0.908E-01    0.92       1.0  T
   3    -42.4543253 -0.325082E-01  0.549E-02    0.75       1.0  T
   4    -42.4543075  0.178309E-04  0.442E-02    0.76       1.0  T
   5    -42.4543320 -0.245214E-04  0.263E-02    0.76       1.0  T
   6    -42.4543466 -0.146337E-04  0.610E-03    0.76       3.3  T
   7    -42.4543468 -0.199337E-06  0.447E-03    0.76       4.5  T
   8    -42.4543472 -0.388513E-06  0.194E-03    0.76      10.3  T
   9    -42.4543473 -0.109722E-06  0.354E-04    0.76      56.5  T
  10    -42.4543473 -0.185955E-08  0.127E-04    0.76     156.9  T
     SCC iter.                  ...        0 min,  0.012 sec
     gradient                   ...        0 min,  0.011 sec
 * total energy  :   -41.9435254 Eh     change       -0.5832279E-02 Eh
   gradient norm :     0.1361312 Eh/α   predicted    -0.3856529E-02 ( -33.88%)
   displ. norm   :     0.1054156 α      lambda       -0.1197596E-01
   maximum displ.:     0.0466281 α      in ANC's #40, #61, #2, ...

........................................................................
.............................. CYCLE    7 ..............................
........................................................................

 iter      E             dE          RMSdq      gap      omega  full diag
   1    -42.4557859 -0.424558E+02  0.417E-01    0.63       0.0  T
   2    -42.3970074  0.587786E-01  0.128E+00    0.91       1.0  T
   3    -42.4615793 -0.645720E-01  0.113E-01    0.67       1.0  T
   4    -42.4616140 -0.347311E-04  0.863E-02    0.69       1.0  T
   5    -42.4617474 -0.133366E-03  0.376E-02    0.68       1.0  T
   6    -42.4617722 -0.247512E-04  0.745E-03    0.68       2.7  T
   7    -42.4617712  0.995576E-06  0.767E-03    0.68       2.6  T
   8    -42.4617725 -0.135919E-05  0.313E-03    0.68       6.4  T
   9    -42.4617727 -0.204580E-06  0.817E-04    0.68      24.5  T
  10    -42.4617727 -0.161148E-07  0.226E-04    0.68      88.6  T
     SCC iter.                  ...        0 min,  0.012 sec
     gradient                   ...        0 min,  0.011 sec
 * total energy  :   -41.9529092 Eh     change       -0.9383865E-02 Eh
   gradient norm :     0.1833574 Eh/α   predicted    -0.6054639E-02 ( -35.48%)
   displ. norm   :     0.1994961 α      lambda       -0.1930261E-01
   maximum displ.:     0.0996433 α      in ANC's #40, #61, #62, ...

........................................................................
.............................. CYCLE    8 ..............................
........................................................................

 iter      E             dE          RMSdq      gap      omega  full diag
   1    -42.4661047 -0.424661E+02  0.617E-01    0.53       0.0  T
   2    -42.3518671  0.114238E+00  0.179E+00    0.92       1.0  T
   3    -42.4774923 -0.125625E+00  0.238E-01    0.55       1.0  T
   4    -42.4783135 -0.821251E-03  0.154E-01    0.59       1.0  T
   5    -42.4786669 -0.353436E-03  0.565E-02    0.57       1.0  T
   6    -42.4787213 -0.543650E-04  0.128E-02    0.58       1.6  T
   7    -42.4787213  0.716594E-08  0.133E-02    0.58       1.5  T
   8    -42.4787249 -0.360854E-05  0.745E-03    0.58       2.7  T
   9    -42.4787261 -0.122112E-05  0.210E-03    0.58       9.5  T
  10    -42.4787262 -0.824013E-07  0.445E-04    0.58      44.9  T
  11    -42.4787262 -0.857320E-09  0.252E-04    0.58      79.4  T
     SCC iter.                  ...        0 min,  0.013 sec
     gradient                   ...        0 min,  0.011 sec
 * total energy  :   -41.9665166 Eh     change       -0.1360736E-01 Eh
   gradient norm :     0.2219505 Eh/α   predicted    -0.1003403E-01 ( -26.26%)
   displ. norm   :     0.1995044 α      lambda       -0.1268135E-01
   maximum displ.:     0.0978144 α      in ANC's #1, #40, #28, ...

........................................................................
.............................. CYCLE    9 ..............................
........................................................................

 iter      E             dE          RMSdq      gap      omega  full diag
   1    -42.4896395 -0.424896E+02  0.391E-01    0.50       0.0  T
   2    -42.4621410  0.274985E-01  0.913E-01    0.63       1.0  T
   3    -42.4918329 -0.296919E-01  0.244E-01    0.50       1.0  T
   4    -42.4933586 -0.152565E-02  0.124E-01    0.53       1.0  T
   5    -42.4935522 -0.193616E-03  0.466E-02    0.52       1.0  T
   6    -42.4936272 -0.750173E-04  0.111E-02    0.53       1.8  T
   7    -42.4936289 -0.167244E-05  0.727E-03    0.52       2.8  T
   8    -42.4936293 -0.439590E-06  0.449E-03    0.52       4.5  T
   9    -42.4936298 -0.523494E-06  0.103E-03    0.52      19.5  T
  10    -42.4936299 -0.270348E-07  0.228E-04    0.52      87.9  T
  11    -42.4936299 -0.318387E-09  0.110E-04    0.52     181.1  T
     SCC iter.                  ...        0 min,  0.013 sec
     gradient                   ...        0 min,  0.011 sec
 * total energy  :   -41.9752956 Eh     change       -0.8778997E-02 Eh
   gradient norm :     0.1727491 Eh/α   predicted    -0.6592404E-02 ( -24.91%)
   displ. norm   :     0.1729609 α      lambda       -0.8879968E-02
   maximum displ.:     0.1013335 α      in ANC's #1, #40, #2, ...

........................................................................
.............................. CYCLE   10 ..............................
........................................................................

 iter      E             dE          RMSdq      gap      omega  full diag
   1    -42.5037528 -0.425038E+02  0.206E-01    0.50       0.0  T
   2    -42.5037418  0.110330E-04  0.162E-01    0.48       1.0  T
   3    -42.5035233  0.218435E-03  0.156E-01    0.52       1.0  T
   4    -42.5036543 -0.130969E-03  0.128E-01    0.49       1.0  T
   5    -42.5042011 -0.546803E-03  0.347E-02    0.49       1.0  T
   6    -42.5042491 -0.479858E-04  0.708E-03    0.50       2.8  T
   7    -42.5042498 -0.698689E-06  0.348E-03    0.50       5.7  T
   8    -42.5042499 -0.158599E-06  0.112E-03    0.50      17.8  T
   9    -42.5042500 -0.213004E-07  0.215E-04    0.50      92.8  T
  10    -42.5042500 -0.179867E-09  0.139E-04    0.50     143.5  T
     SCC iter.                  ...        0 min,  0.012 sec
     gradient                   ...        0 min,  0.011 sec
 * total energy  :   -41.9813541 Eh     change       -0.6058550E-02 Eh
   gradient norm :     0.1226279 Eh/α   predicted    -0.4572636E-02 ( -24.53%)
   displ. norm   :     0.3022109 α      lambda       -0.9188443E-02
   maximum displ.:     0.2577057 α      in ANC's #1, #2, #40, ...

........................................................................
.............................. CYCLE   11 ..............................
........................................................................

 iter      E             dE          RMSdq      gap      omega  full diag
   1    -42.5128180 -0.425128E+02  0.329E-01    0.52       0.0  T
   2    -42.5048707  0.794737E-02  0.498E-01    0.46       1.0  T
   3    -42.5118838 -0.701312E-02  0.256E-01    0.51       1.0  T
   4    -42.5135810 -0.169727E-02  0.625E-02    0.51       1.0  T
   5    -42.5136575 -0.765057E-04  0.268E-02    0.49       1.0  T
   6    -42.5136838 -0.262856E-04  0.527E-03    0.50       3.8  T
   7    -42.5136839 -0.680611E-07  0.287E-03    0.49       7.0  T
   8    -42.5136840 -0.117651E-06  0.350E-04    0.50      57.2  T
   9    -42.5136840 -0.132374E-08  0.170E-04    0.50     117.6  T
     SCC iter.                  ...        0 min,  0.011 sec
     gradient                   ...        0 min,  0.011 sec
 * total energy  :   -41.9880500 Eh     change       -0.6695921E-02 Eh
   gradient norm :     0.1388074 Eh/α   predicted    -0.5013646E-02 ( -25.12%)
   displ. norm   :     0.2028650 α      lambda       -0.9563278E-02
   maximum displ.:     0.1059035 α      in ANC's #1, #40, #2, ...

........................................................................
.............................. CYCLE   12 ..............................
........................................................................

 iter      E             dE          RMSdq      gap      omega  full diag
   1    -42.5167573 -0.425168E+02  0.286E-01    0.51       0.0  T
   2    -42.5026903  0.140670E-01  0.642E-01    0.45       1.0  T
   3    -42.5178279 -0.151376E-01  0.147E-01    0.49       1.0  T
   4    -42.5182727 -0.444764E-03  0.633E-02    0.48       1.0  T
   5    -42.5183305 -0.578365E-04  0.149E-02    0.48       1.3  T
   6    -42.5183360 -0.548861E-05  0.747E-03    0.48       2.7  T
   7    -42.5183378 -0.183869E-05  0.287E-03    0.48       7.0  T
   8    -42.5183379 -0.927277E-07  0.871E-04    0.48      23.0  T
   9    -42.5183379 -0.642869E-08  0.227E-04    0.48      88.3  T
     SCC iter.                  ...        0 min,  0.011 sec
     gradient                   ...        0 min,  0.011 sec
 * total energy  :   -41.9954226 Eh     change       -0.7372584E-02 Eh
   gradient norm :     0.1633799 Eh/α   predicted    -0.4978193E-02 ( -32.48%)
   displ. norm   :     0.3111976 α      lambda       -0.1164976E-01
   maximum displ.:     0.2089725 α      in ANC's #1, #40, #58, ...

........................................................................
.............................. CYCLE   13 ..............................
........................................................................

 iter      E             dE          RMSdq      gap      omega  full diag
   1    -42.5122528 -0.425123E+02  0.350E-01    0.48       0.0  T
   2    -42.5064527  0.580014E-02  0.441E-01    0.44       1.0  T
   3    -42.5092393 -0.278667E-02  0.350E-01    0.49       1.0  T
   4    -42.5129306 -0.369130E-02  0.105E-01    0.45       1.0  T
   5    -42.5131788 -0.248144E-03  0.276E-02    0.47       1.0  T
   6    -42.5132029 -0.241018E-04  0.120E-02    0.46       1.7  T
   7    -42.5132061 -0.327804E-05  0.538E-03    0.46       3.7  T
   8    -42.5132066 -0.406936E-06  0.106E-03    0.46      18.9  T
   9    -42.5132066 -0.161065E-07  0.438E-04    0.46      45.7  T
  10    -42.5132066 -0.999478E-09  0.194E-04    0.46     102.9  T
     SCC iter.                  ...        0 min,  0.012 sec
     gradient                   ...        0 min,  0.011 sec
 * total energy  :   -42.0034855 Eh     change       -0.8062886E-02 Eh
   gradient norm :     0.1176654 Eh/α   predicted    -0.6388715E-02 ( -20.76%)
   displ. norm   :     0.3645332 α      lambda       -0.1143786E-01
   maximum displ.:     0.2664526 α      in ANC's #1, #40, #58, ...

........................................................................
.............................. CYCLE   14 ..............................
........................................................................

 iter      E             dE          RMSdq      gap      omega  full diag
   1    -42.5101404 -0.425101E+02  0.512E-01    0.35       0.0  T
   2    -42.4870578  0.230826E-01  0.878E-01    0.32       1.0  T
   3    -42.5108961 -0.238383E-01  0.313E-01    0.37       1.0  T
   4    -42.5121527 -0.125662E-02  0.209E-01    0.30       1.0  T
   5    -42.5133853 -0.123257E-02  0.420E-02    0.35       1.0  T
   6    -42.5134508 -0.654766E-04  0.953E-03    0.34       2.1  T
   7    -42.5134519 -0.111465E-05  0.489E-03    0.34       4.1  T
   8    -42.5134520 -0.112175E-06  0.133E-03    0.34      15.0  T
   9    -42.5134520 -0.188730E-07  0.509E-04    0.34      39.3  T
  10    -42.5134520 -0.282571E-08  0.248E-04    0.34      80.6  T
     SCC iter.                  ...        0 min,  0.012 sec
     gradient                   ...        0 min,  0.011 sec
 * total energy  :   -42.0087563 Eh     change       -0.5270744E-02 Eh
   gradient norm :     0.2561263 Eh/α   predicted    -0.6478492E-02 (  22.91%)
   displ. norm   :     0.1293798 α      lambda       -0.8898939E-02
   maximum displ.:     0.0527345 α      in ANC's #40, #58, #16, ...

........................................................................
.............................. CYCLE   15 ..............................
........................................................................

 iter      E             dE          RMSdq      gap      omega  full diag
   1    -42.5065689 -0.425066E+02  0.173E-01    0.27       0.0  T
   2    -42.5064689  0.100067E-03  0.125E-01    0.29       1.0  T
   3    -42.5063296  0.139256E-03  0.129E-01    0.28       1.0  T
   4    -42.5062754  0.542304E-04  0.123E-01    0.26       1.0  T
   5    -42.5068300 -0.554584E-03  0.161E-02    0.29       1.2  T
   6    -42.5068342 -0.418519E-05  0.898E-03    0.28       2.2  T
   7    -42.5068364 -0.218910E-05  0.373E-03    0.28       5.4  T
   8    -42.5068366 -0.251324E-06  0.681E-04    0.28      29.3  T
   9    -42.5068366 -0.606351E-08  0.292E-04    0.28      68.4  T
     SCC iter.                  ...        0 min,  0.011 sec
     gradient                   ...        0 min,  0.011 sec
 * total energy  :   -42.0156153 Eh     change       -0.6859061E-02 Eh
   gradient norm :     0.1444244 Eh/α   predicted    -0.4523992E-02 ( -34.04%)
   displ. norm   :     0.2099159 α      lambda       -0.1127150E-01
   maximum displ.:     0.1499767 α      in ANC's #1, #58, #16, ...

........................................................................
.............................. CYCLE   16 ..............................
........................................................................

 iter      E             dE          RMSdq      gap      omega  full diag
   1    -42.5019399 -0.425019E+02  0.279E-01    0.13       0.0  T
   2    -42.5013581  0.581797E-03  0.204E-01    0.20       1.0  T
   3    -42.4992030  0.215518E-02  0.301E-01    0.13       1.0  T
   4    -42.5016214 -0.241848E-02  0.150E-01    0.16       1.0  T
   5    -42.5023776 -0.756181E-03  0.185E-02    0.17       1.1  T
   6    -42.5023820 -0.436027E-05  0.908E-03    0.17       2.2  T
   7    -42.5023839 -0.194543E-05  0.394E-03    0.17       5.1  T
   8    -42.5023840 -0.114228E-06  0.100E-03    0.17      19.9  T
   9    -42.5023841 -0.184956E-07  0.394E-04    0.17      50.8  T
  10    -42.5023841 -0.133504E-08  0.120E-04    0.17     167.3  T
     SCC iter.                  ...        0 min,  0.012 sec
     gradient                   ...        0 min,  0.011 sec
 * total energy  :   -42.0232086 Eh     change       -0.7593252E-02 Eh
   gradient norm :     0.1556803 Eh/α   predicted    -0.5885256E-02 ( -22.49%)
   displ. norm   :     0.1277830 α      lambda       -0.6669277E-02
   maximum displ.:     0.0497680 α      in ANC's #58, #16, #57, ...

........................................................................
.............................. CYCLE   17 ..............................
........................................................................

 iter      E             dE          RMSdq      gap      omega  full diag
   1    -42.5019295 -0.425019E+02  0.173E-01    0.08       0.0  T
   2    -42.5004713  0.145821E-02  0.216E-01    0.13       1.0  T
   3    -42.5011699 -0.698640E-03  0.173E-01    0.09       1.0  T
   4    -42.5021232 -0.953243E-03  0.608E-02    0.09       1.0  T
   5    -42.5022112 -0.880620E-04  0.173E-02    0.10       1.2  T
   6    -42.5022165 -0.526882E-05  0.599E-03    0.10       3.3  T
   7    -42.5022172 -0.720710E-06  0.297E-03    0.10       6.7  T
   8    -42.5022173 -0.854689E-07  0.109E-03    0.10      18.4  T
   9    -42.5022173 -0.374857E-07  0.312E-04    0.10      64.1  T
  10    -42.5022173 -0.100069E-08  0.938E-05    0.10     213.2  T
     SCC iter.                  ...        0 min,  0.012 sec
     gradient                   ...        0 min,  0.011 sec
 * total energy  :   -42.0288210 Eh     change       -0.5612428E-02 Eh
   gradient norm :     0.2241238 Eh/α   predicted    -0.3389337E-02 ( -39.61%)
   displ. norm   :     0.3307545 α      lambda       -0.1901850E-01
   maximum displ.:     0.1261112 α      in ANC's #58, #57, #16, ...

........................................................................
.............................. CYCLE   18 ..............................
........................................................................

 iter      E             dE          RMSdq      gap      omega  full diag
   1    -42.5067209 -0.425067E+02  0.414E-01    0.17       0.0  T
   2    -42.4981186  0.860229E-02  0.514E-01    0.06       1.0  T
   3    -42.5024701 -0.435154E-02  0.410E-01    0.15       1.0  T
   4    -42.5079062 -0.543610E-02  0.139E-01    0.13       1.0  T
   5    -42.5083421 -0.435886E-03  0.454E-02    0.10       1.0  T
   6    -42.5083799 -0.377434E-04  0.128E-02    0.11       1.6  T
   7    -42.5083828 -0.289633E-05  0.632E-03    0.11       3.2  T
   8    -42.5083829 -0.160097E-06  0.252E-03    0.11       7.9  T
   9    -42.5083831 -0.199923E-06  0.771E-04    0.11      25.9  T
  10    -42.5083831 -0.423355E-08  0.219E-04    0.11      91.5  T
     SCC iter.                  ...        0 min,  0.012 sec
     gradient                   ...        0 min,  0.011 sec
 * total energy  :   -42.0423496 Eh     change       -0.1352864E-01 Eh
   gradient norm :     0.3013158 Eh/α   predicted    -0.1055126E-01 ( -22.01%)
   displ. norm   :     0.2638320 α      lambda       -0.1418627E-01
   maximum displ.:     0.0986005 α      in ANC's #58, #2, #57, ...

........................................................................
.............................. CYCLE   19 ..............................
........................................................................

 iter      E             dE          RMSdq      gap      omega  full diag
   1    -42.5176146 -0.425176E+02  0.302E-01    0.25       0.0  T
   2    -42.5144329  0.318166E-02  0.324E-01    0.13       1.0  T
   3    -42.5147955 -0.362619E-03  0.314E-01    0.24       1.0  T
   4    -42.5179894 -0.319389E-02  0.103E-01    0.22       1.0  T
   5    -42.5182764 -0.286939E-03  0.304E-02    0.20       1.0  T
   6    -42.5182942 -0.177879E-04  0.897E-03    0.20       2.2  T
   7    -42.5182957 -0.158501E-05  0.425E-03    0.20       4.7  T
   8    -42.5182958 -0.824522E-07  0.153E-03    0.20      13.1  T
   9    -42.5182959 -0.639666E-07  0.488E-04    0.20      41.0  T
  10    -42.5182959 -0.105828E-08  0.157E-04    0.20     127.4  T
     SCC iter.                  ...        0 min,  0.012 sec
     gradient                   ...        0 min,  0.011 sec
 * total energy  :   -42.0516321 Eh     change       -0.9282446E-02 Eh
   gradient norm :     0.2336229 Eh/α   predicted    -0.7587371E-02 ( -18.26%)
   displ. norm   :     0.1386021 α      lambda       -0.9495208E-02
   maximum displ.:     0.0972029 α      in ANC's #1, #40, #2, ...

........................................................................
.............................. CYCLE   20 ..............................
........................................................................

 iter      E             dE          RMSdq      gap      omega  full diag
   1    -42.5325843 -0.425326E+02  0.171E-01    0.22       0.0  T
   2    -42.5322501  0.334257E-03  0.134E-01    0.20       1.0  T
   3    -42.5309574  0.129262E-02  0.212E-01    0.24       1.0  T
   4    -42.5326283 -0.167084E-02  0.265E-02    0.21       1.0  T
   5    -42.5326511 -0.227901E-04  0.708E-03    0.21       2.8  T
   6    -42.5326517 -0.663300E-06  0.460E-03    0.21       4.4  T
   7    -42.5326521 -0.389241E-06  0.190E-03    0.21      10.5  T
   8    -42.5326522 -0.839943E-07  0.309E-04    0.21      64.8  T
   9    -42.5326522 -0.725116E-09  0.134E-04    0.21     149.7  T
     SCC iter.                  ...        0 min,  0.011 sec
     gradient                   ...        0 min,  0.011 sec
 * total energy  :   -42.0578175 Eh     change       -0.6185386E-02 Eh
   gradient norm :     0.1134455 Eh/α   predicted    -0.4838957E-02 ( -21.77%)
   displ. norm   :     0.1008299 α      lambda       -0.6755001E-02
   maximum displ.:     0.0585111 α      in ANC's #1, #2, #63, ...
 * RMSD in coord.:     0.6374960 α      energy gain  -0.2356363E+02 Eh

generating ANC from model Hessian ...
Using Lindh-Hessian (1995)
 Shifting diagonal of input Hessian by    1.6043902875635944E-002
 Lowest  eigenvalues of input Hessian
    0.010000    0.000000    0.000000    0.000000    0.000000    0.000000
    0.000000    0.018343    0.018603    0.020002    0.020959    0.021449
    0.026280    0.027099    0.030809    0.033705    0.034264    0.042853
 Highest eigenvalues
    2.040858    2.131711    2.213195    2.366485    2.527430    8.436382


........................................................................
.............................. CYCLE   21 ..............................
........................................................................

 iter      E             dE          RMSdq      gap      omega  full diag
   1    -42.5429926 -0.425430E+02  0.175E-01    0.15       0.0  T
   2    -42.5404169  0.257571E-02  0.282E-01    0.22       1.0  T
   3    -42.5430584 -0.264159E-02  0.118E-01    0.16       1.0  T
   4    -42.5434820 -0.423539E-03  0.391E-02    0.18       1.0  T
   5    -42.5434770  0.497843E-05  0.242E-02    0.18       1.0  T
   6    -42.5434963 -0.192639E-04  0.525E-03    0.18       3.8  T
   7    -42.5434967 -0.474672E-06  0.253E-03    0.18       7.9  T
   8    -42.5434969 -0.113296E-06  0.730E-04    0.18      27.4  T
   9    -42.5434969 -0.550425E-08  0.231E-04    0.18      86.6  T
     SCC iter.                  ...        0 min,  0.011 sec
     gradient                   ...        0 min,  0.011 sec
 * total energy  :   -42.0619900 Eh     change       -0.4172529E-02 Eh
   gradient norm :     0.1255585 Eh/α   predicted     0.0000000E+00 (-100.00%)
   displ. norm   :     0.4296895 α      lambda       -0.2204891E-01
   maximum displ.:     0.2292559 α      in ANC's #11, #14, #3, ...

........................................................................
.............................. CYCLE   22 ..............................
........................................................................

 iter      E             dE          RMSdq      gap      omega  full diag
   1    -42.5707502 -0.425708E+02  0.331E-01    0.20       0.0  T
   2    -42.5678662  0.288401E-02  0.330E-01    0.14       1.0  T
   3    -42.5674693  0.396894E-03  0.330E-01    0.23       1.0  T
   4    -42.5711224 -0.365311E-02  0.486E-02    0.18       1.0  T
   5    -42.5711914 -0.690006E-04  0.957E-03    0.19       2.1  T
   6    -42.5711923 -0.813899E-06  0.514E-03    0.19       3.9  T
   7    -42.5711923 -0.637318E-08  0.267E-03    0.19       7.5  T
   8    -42.5711924 -0.171796E-06  0.103E-03    0.19      19.5  T
   9    -42.5711925 -0.231958E-07  0.382E-04    0.19      52.4  T
  10    -42.5711925 -0.198376E-08  0.137E-04    0.19     145.6  T
     SCC iter.                  ...        0 min,  0.012 sec
     gradient                   ...        0 min,  0.011 sec
 * total energy  :   -42.0777108 Eh     change       -0.1572077E-01 Eh
   gradient norm :     0.0757043 Eh/α   predicted    -0.1305996E-01 ( -16.93%)
   displ. norm   :     0.4565185 α      lambda       -0.1240190E-01
   maximum displ.:     0.2553385 α      in ANC's #11, #14, #12, ...

........................................................................
.............................. CYCLE   23 ..............................
........................................................................

 iter      E             dE          RMSdq      gap      omega  full diag
   1    -42.5911877 -0.425912E+02  0.345E-01    0.20       0.0  T
   2    -42.5864621  0.472559E-02  0.397E-01    0.13       1.0  T
   3    -42.5888307 -0.236856E-02  0.305E-01    0.22       1.0  T
   4    -42.5917540 -0.292333E-02  0.525E-02    0.18       1.0  T
   5    -42.5918279 -0.739355E-04  0.160E-02    0.19       1.3  T
   6    -42.5918347 -0.677002E-05  0.731E-03    0.19       2.7  T
   7    -42.5918351 -0.400535E-06  0.342E-03    0.19       5.8  T
   8    -42.5918353 -0.195439E-06  0.102E-03    0.19      19.7  T
   9    -42.5918353 -0.978275E-08  0.473E-04    0.19      42.3  T
  10    -42.5918353 -0.277448E-08  0.138E-04    0.19     145.0  T
     SCC iter.                  ...        0 min,  0.012 sec
     gradient                   ...        0 min,  0.011 sec
 * total energy  :   -42.0848652 Eh     change       -0.7154430E-02 Eh
   gradient norm :     0.0460432 Eh/α   predicted    -0.7493298E-02 (   4.74%)
   displ. norm   :     0.3382924 α      lambda       -0.3015806E-02
   maximum displ.:     0.2403333 α      in ANC's #3, #11, #12, ...

........................................................................
.............................. CYCLE   24 ..............................
........................................................................

 iter      E             dE          RMSdq      gap      omega  full diag
   1    -42.5912037 -0.425912E+02  0.167E-01    0.19       0.0  T
   2    -42.5908108  0.392928E-03  0.141E-01    0.17       1.0  T
   3    -42.5898102  0.100064E-02  0.193E-01    0.20       1.0  T
   4    -42.5912684 -0.145826E-02  0.177E-02    0.18       1.1  T
   5    -42.5912722 -0.377983E-05  0.538E-03    0.18       3.7  T
   6    -42.5912727 -0.461862E-06  0.366E-03    0.18       5.5  T
   7    -42.5912729 -0.236053E-06  0.118E-03    0.18      17.0  T
   8    -42.5912729 -0.121073E-07  0.435E-04    0.18      46.0  T
   9    -42.5912729 -0.139121E-08  0.205E-04    0.18      97.4  T
     SCC iter.                  ...        0 min,  0.011 sec
     gradient                   ...        0 min,  0.011 sec
 * total energy  :   -42.0865742 Eh     change       -0.1708996E-02 Eh
   gradient norm :     0.0491536 Eh/α   predicted    -0.1680471E-02 (  -1.67%)
   displ. norm   :     0.1849699 α      lambda       -0.1281040E-02
   maximum displ.:     0.1144430 α      in ANC's #3, #12, #11, ...

........................................................................
.............................. CYCLE   25 ..............................
........................................................................

 iter      E             dE          RMSdq      gap      omega  full diag
   1    -42.5946308 -0.425946E+02  0.787E-02    0.18       0.0  T
   2    -42.5941475  0.483243E-03  0.121E-01    0.19       1.0  T
   3    -42.5946459 -0.498354E-03  0.545E-02    0.18       1.0  T
   4    -42.5946878 -0.418785E-04  0.279E-02    0.19       1.0  T
   5    -42.5947142 -0.264286E-04  0.667E-03    0.18       3.0  T
   6    -42.5947151 -0.871823E-06  0.182E-03    0.18      11.0  T
   7    -42.5947151  0.165836E-08  0.120E-03    0.18      16.7  T
   8    -42.5947151 -0.358052E-07  0.186E-04    0.18     107.7  T
   9    -42.5947151 -0.114234E-09  0.991E-05    0.18     201.9  T
     SCC iter.                  ...        0 min,  0.011 sec
     gradient                   ...        0 min,  0.011 sec
 * total energy  :   -42.0873849 Eh     change       -0.8107428E-03 Eh
   gradient norm :     0.0226979 Eh/α   predicted    -0.6626085E-03 ( -18.27%)
   displ. norm   :     0.1821778 α      lambda       -0.6112421E-03
   maximum displ.:     0.1572625 α      in ANC's #3, #11, #2, ...

........................................................................
.............................. CYCLE   26 ..............................
........................................................................

 iter      E             dE          RMSdq      gap      omega  full diag
   1    -42.5954268 -0.425954E+02  0.890E-02    0.18       0.0  T
   2    -42.5945048  0.922028E-03  0.157E-01    0.19       1.0  T
   3    -42.5954611 -0.956307E-03  0.582E-02    0.17       1.0  T
   4    -42.5955390 -0.779306E-04  0.209E-02    0.19       1.0  T
   5    -42.5955502 -0.111346E-04  0.695E-03    0.18       2.9  T
   6    -42.5955514 -0.125403E-05  0.234E-03    0.18       8.6  T
   7    -42.5955515 -0.202953E-07  0.166E-03    0.18      12.1  T
   8    -42.5955515 -0.785203E-07  0.220E-04    0.18      90.8  T
   9    -42.5955515 -0.431427E-09  0.112E-04    0.18     177.9  T
     SCC iter.                  ...        0 min,  0.011 sec
     gradient                   ...        0 min,  0.011 sec
 * total energy  :   -42.0877576 Eh     change       -0.3726174E-03 Eh
   gradient norm :     0.0157842 Eh/α   predicted    -0.3157926E-03 ( -15.25%)
   displ. norm   :     0.0703377 α      lambda       -0.1516684E-03
   maximum displ.:     0.0509039 α      in ANC's #3, #2, #12, ...

........................................................................
.............................. CYCLE   27 ..............................
........................................................................

 iter      E             dE          RMSdq      gap      omega  full diag
   1    -42.5954869 -0.425955E+02  0.489E-02    0.18       0.0  T
   2    -42.5951857  0.301191E-03  0.878E-02    0.19       1.0  T
   3    -42.5954908 -0.305110E-03  0.340E-02    0.18       1.0  T
   4    -42.5955218 -0.309578E-04  0.564E-03    0.18       3.5  T
   5    -42.5955222 -0.424254E-06  0.229E-03    0.18       8.7  T
   6    -42.5955223 -0.113316E-06  0.145E-03    0.18      13.8  T
   7    -42.5955223 -0.311801E-07  0.699E-04    0.18      28.6  T
   8    -42.5955223 -0.148229E-07  0.132E-04    0.18     151.8  T
     SCC iter.                  ...        0 min,  0.010 sec
     gradient                   ...        0 min,  0.011 sec
 * total energy  :   -42.0878505 Eh     change       -0.9297880E-04 Eh
   gradient norm :     0.0032662 Eh/α   predicted    -0.7623689E-04 ( -18.01%)
   displ. norm   :     0.0546297 α      lambda       -0.4536080E-04
   maximum displ.:     0.0400451 α      in ANC's #3, #2, #12, ...

........................................................................
.............................. CYCLE   28 ..............................
........................................................................

 iter      E             dE          RMSdq      gap      omega  full diag
   1    -42.5950034 -0.425950E+02  0.250E-02    0.17       0.0  T
   2    -42.5949733  0.300980E-04  0.300E-02    0.18       1.0  T
   3    -42.5949892 -0.159660E-04  0.240E-02    0.17       1.0  T
   4    -42.5950060 -0.167894E-04  0.592E-03    0.18       3.4  T
   5    -42.5950073 -0.127226E-05  0.162E-03    0.18      12.4  T
   6    -42.5950074 -0.612428E-07  0.636E-04    0.18      31.4  T
   7    -42.5950074 -0.390527E-08  0.232E-04    0.18      86.0  T
     SCC iter.                  ...        0 min,  0.009 sec
     gradient                   ...        0 min,  0.011 sec
 * total energy  :   -42.0878777 Eh     change       -0.2717632E-04 Eh
   gradient norm :     0.0020832 Eh/α   predicted    -0.2274878E-04 ( -16.29%)
   displ. norm   :     0.0548735 α      lambda        0.1872102E-04
   maximum displ.:     0.0401829 α      in ANC's #3, #2, #12, ...

   *** GEOMETRY OPTIMIZATION CONVERGED AFTER 28 ITERATIONS ***

------------------------------------------------------------------------
 total energy gain   :       -23.5936870 Eh   -14805.2621 kcal/mol
 total RMSD          :         0.7335683 a0        0.3882 Å
 total power (kW/mol):     -2212.3291711 (step)********** (real)
------------------------------------------------------------------------

 ANCopt (total)                0 d,  0 h,  0 min,  0.799 sec
 optimizer setup                ...        0 min,  0.000 sec (  0.048%)
 model hessian                  ...        0 min,  0.011 sec (  1.365%)
 ANC generation                 ...        0 min,  0.001 sec (  0.180%)
 coordinate transformation      ...        0 min,  0.000 sec (  0.031%)
 single point calculation       ...        0 min,  0.779 sec ( 97.509%)
 optimization log               ...        0 min,  0.003 sec (  0.329%)
 hessian update                 ...        0 min,  0.000 sec (  0.045%)
 rational function              ...        0 min,  0.003 sec (  0.332%)

================
 final structure:
================
25
 xtb: 6.6.1 (8d0f1dd)
C            3.11986885353118        1.57066235455703        0.01741146957284
N            2.37025134462802        0.38823761422858       -0.01591908725896
C            2.51218285579864       -2.60170569663759       -0.00912465620552
N            1.26336771005510       -2.31025943214486       -0.00912075364915
C            0.52460384988293       -1.11780488043843       -0.00909292791142
C            1.09753397763963        0.18683250878830       -0.00660772076355
C            0.14122623113853        1.36046127712580       -0.00147348410229
O            0.53684310308973        2.50149449174022        0.00468080092146
N           -1.18928222146826        1.05289083451444       -0.00804216728059
C           -2.16045104375104        2.14146149732604       -0.00906718593450
C           -1.73639565139450       -0.21151799163974       -0.00453188725362
O           -2.92315621371753       -0.39261813471627       -0.00086089847444
N           -0.83049840177315       -1.28286917332493       -0.00401297470584
C           -1.44786461374577       -2.60059463496967        0.00501146648730
H            3.67408885075192        1.58336398285178        0.96357989715032
H            3.86450990414903        1.51115624640606       -0.78430344890045
H            2.56585825067397        2.53603880166573       -0.07208645155131
H            3.26553167047092       -1.82083179212631       -0.01020415391355
H           -1.62523993755211        3.08705757974087       -0.00257699445735
H           -2.78845420880760        2.06647746767665       -0.89657125450350
H           -2.79827733789782        2.05972328924579        0.87078309169361
H           -1.18753450340990       -3.15773216868419        0.90737600030954
H           -1.20135746578219       -3.16426746442549       -0.89713194597111
H           -2.52845343677354       -2.44307968440072        0.01246440079092
H            0.64152994836333       -3.12433835075918       -0.00940751618880

 Bond Distances (Angstroems)
 ---------------------------
C1-N2=1.4004         C1-H15=1.0966        C1-H16=1.0958        C1-H17=1.1166        N2-C1=1.4004         N2-C6=1.2886         
C3-N4=1.2824         C3-H18=1.0850        N4-C3=1.2824         N4-C5=1.4028         N4-H25=1.0244        C5-N4=1.4028         
C5-C6=1.4249         C5-N13=1.3651        C6-N2=1.2886         C6-C5=1.4249         C6-C7=1.5139         C7-C6=1.5139         
C7-O8=1.2077         C7-N9=1.3656         O8-C7=1.2077         N9-C7=1.3656         N9-C10=1.4588        N9-C11=1.3777        
C10-N9=1.4588        C10-H19=1.0866       C10-H20=1.0898       C10-H21=1.0898       C11-N9=1.3777        C11-O12=1.2005       
C11-N13=1.4030       O12-C11=1.2005       N13-C5=1.3651        N13-C11=1.4030       N13-C14=1.4552       C14-N13=1.4552       
C14-H22=1.0920       C14-H23=1.0920       C14-H24=1.0920       H15-C1=1.0966        H16-C1=1.0958        H17-C1=1.1166        
H18-C3=1.0850        H19-C10=1.0866       H20-C10=1.0898       H21-C10=1.0898       H22-C14=1.0920       H23-C14=1.0920       
H24-C14=1.0920       H25-N4=1.0244        
 C  H  Rav=1.0936 sigma=0.0084  Rmin=1.0850  Rmax=1.1166    10
 C  C  Rav=1.4694 sigma=0.0445  Rmin=1.4249  Rmax=1.5139     2
 N  H  Rav=1.0244 sigma=0.0000  Rmin=1.0244  Rmax=1.0244     1
 N  C  Rav=1.3800 sigma=0.0563  Rmin=1.2824  Rmax=1.4588    10
 O  C  Rav=1.2041 sigma=0.0036  Rmin=1.2005  Rmax=1.2077     2

 selected bond angles (degree)
 --------------------
H15-C1-N2=107.51               H16-C1-N2=107.49               H16-C1-H15=106.77              H17-C1-N2=117.55               
H17-C1-H15=108.05              H17-C1-H16=108.99              C6-N2-C1=131.34                H18-C3-N4=120.84               
C5-N4-C3=134.92                H25-N4-C3=114.24               H25-N4-C5=110.85               C6-C5-N4=124.51                
N13-C5-N4=114.83               N13-C5-C6=120.65               C5-C6-N2=122.70                C7-C6-N2=120.18                
C7-C6-C5=117.12                O8-C7-C6=121.70                N9-C7-C6=116.16                N9-C7-O8=122.14                
C10-N9-C7=118.72               C11-N9-C7=126.41               C11-N9-C10=114.86              H19-C10-N9=108.75              
H20-C10-N9=109.44              H20-C10-H19=110.40             H21-C10-N9=109.46              H21-C10-H19=110.41             
H21-C10-H20=108.36             

 selected dihedral angles (degree)
 ---------------------------------
C6-N2-C1-H15=114.42           C6-N2-C1-H16=229.03           C6-N2-C1-H17=352.35           C5-N4-C3-H18=359.93           
H25-N4-C3-H18=179.92          C6-C5-N4-C3=359.88            C6-C5-N4-H25=179.90           N13-C5-N4-C3=180.24           
N13-C5-N4-H25=  0.25          C5-C6-N2-C1=181.80            C7-C6-N2-C1=  2.20            N2-C6-C5-N4=  0.62            
N2-C6-C5-N13=180.25           C7-C6-C5-N4=180.23            C7-C6-C5-N13=359.86           O8-C7-C6-N2=359.41            
O8-C7-C6-C5=179.79            N9-C7-C6-N2=179.23            N9-C7-C6-C5=359.61            C10-N9-C7-C6=180.25           
C10-N9-C7-O8=  0.07           C11-N9-C7-C6=  0.74           C11-N9-C7-O8=180.56           H19-C10-N9-C7=359.92          
H19-C10-N9-C11=179.48         H20-C10-N9-C7=120.60          H20-C10-N9-C11=300.16         H21-C10-N9-C7=239.22          
H21-C10-N9-C11= 58.78         
           -------------------------------------------------
          |                Final Singlepoint                |
           -------------------------------------------------

          ...................................................
          :                      SETUP                      :
          :.................................................:
          :  # basis functions                  67          :
          :  # atomic orbitals                  67          :
          :  # shells                           39          :
          :  # electrons                        74          :
          :  max. iterations                   250          :
          :  Hamiltonian                  GFN2-xTB          :
          :  restarted?                      false          :
          :  GBSA solvation                  false          :
          :  PC potential                    false          :
          :  electronic temp.         5000.0000000     K    :
          :  accuracy                    1.0000000          :
          :  -> integral cutoff          0.2500000E+02      :
          :  -> integral neglect         0.1000000E-07      :
          :  -> SCF convergence          0.1000000E-05 Eh   :
          :  -> wf. convergence          0.1000000E-03 e    :
          :  Broyden damping             0.4000000          :
          ...................................................

 iter      E             dE          RMSdq      gap      omega  full diag
   1    -42.5950074 -0.425950E+02  0.677E-05    0.18       0.0  T
   2    -42.5950074  0.391935E-10  0.543E-05    0.18     368.5  T
   3    -42.5950074  0.160817E-09  0.763E-05    0.18     262.2  T

   *** convergence criteria satisfied after 3 iterations ***

         #    Occupation            Energy/Eh            Energy/eV
      -------------------------------------------------------------
         1        2.0000           -0.8962725             -24.3888
       ...           ...                  ...                  ...
        31        1.9969           -0.6203306             -16.8801
        32        1.9943           -0.6103878             -16.6095
        33        1.9910           -0.6031610             -16.4128
        34        1.9836           -0.5936802             -16.1549
        35        1.9669           -0.5824131             -15.8483
        36        1.7363           -0.5475691             -14.9001
        37        1.2483           -0.5257574             -14.3066 (HOMO)
        38        1.0488           -0.5192743             -14.1302 (LUMO)
        39        0.0362           -0.4544976             -12.3675
        40        0.0015           -0.4041896             -10.9986
        41        0.0005           -0.3853753             -10.4866
        42        0.0000           -0.3020665              -8.2196
       ...           ...                  ...                  ...
        67                          0.5388034              14.6616
      -------------------------------------------------------------
                  HL-Gap            0.0064831 Eh            0.1764 eV
             Fermi-level           -0.5177264 Eh          -14.0881 eV

 SCC (total)                   0 d,  0 h,  0 min,  0.020 sec
 SCC setup                      ...        0 min,  0.000 sec (  0.886%)
 Dispersion                     ...        0 min,  0.000 sec (  0.830%)
 classical contributions        ...        0 min,  0.000 sec (  0.338%)
 integral evaluation            ...        0 min,  0.004 sec ( 20.442%)
 iterations                     ...        0 min,  0.004 sec ( 21.096%)
 molecular gradient             ...        0 min,  0.011 sec ( 55.760%)
 printout                       ...        0 min,  0.000 sec (  0.615%)

         :::::::::::::::::::::::::::::::::::::::::::::::::::::
         ::                     SUMMARY                     ::
         :::::::::::::::::::::::::::::::::::::::::::::::::::::
         :: total energy             -42.087877717579 Eh    ::
         :: gradient norm              0.002085086495 Eh/a0 ::
         :: HOMO-LUMO gap              0.176414787656 eV    ::
         ::.................................................::
         :: SCC energy               -42.595007376248 Eh    ::
         :: -> isotropic ES            0.134003216640 Eh    ::
         :: -> anisotropic ES         -0.009698938712 Eh    ::
         :: -> anisotropic XC          0.017690183771 Eh    ::
         :: -> dispersion             -0.022098053285 Eh    ::
         :: repulsion energy           0.506982744228 Eh    ::
         :: add. restraining           0.000018030969 Eh    ::
         :: total charge               1.000000000022 e     ::
         :::::::::::::::::::::::::::::::::::::::::::::::::::::

           -------------------------------------------------
          |                Property Printout                |
           -------------------------------------------------

    * Orbital Energies and Occupations

         #    Occupation            Energy/Eh            Energy/eV
      -------------------------------------------------------------
         1        2.0000           -0.8962725             -24.3888
       ...           ...                  ...                  ...
        25        1.9999           -0.6768307             -18.4175
        26        1.9998           -0.6676832             -18.1686
        27        1.9994           -0.6473323             -17.6148
        28        1.9993           -0.6432451             -17.5036
        29        1.9988           -0.6356878             -17.2979
        30        1.9986           -0.6323892             -17.2082
        31        1.9969           -0.6203306             -16.8801
        32        1.9943           -0.6103878             -16.6095
        33        1.9910           -0.6031610             -16.4128
        34        1.9836           -0.5936802             -16.1549
        35        1.9669           -0.5824131             -15.8483
        36        1.7363           -0.5475691             -14.9001
        37        1.2483           -0.5257574             -14.3066 (HOMO)
        38        1.0488           -0.5192743             -14.1302 (LUMO)
        39        0.0362           -0.4544976             -12.3675
        40        0.0015           -0.4041896             -10.9986
        41        0.0005           -0.3853753             -10.4866
        42        0.0000           -0.3020665              -8.2196
        43                         -0.2115088              -5.7554
        44                         -0.1758796              -4.7859
        45                         -0.1517379              -4.1290
        46                         -0.1016430              -2.7658
        47                         -0.0889065              -2.4193
        48                         -0.0577984              -1.5728
       ...                                ...                  ...
        67                          0.5388034              14.6616
      -------------------------------------------------------------
                  HL-Gap            0.0064831 Eh            0.1764 eV
             Fermi-level           -0.5177264 Eh          -14.0881 eV

     #   Z          covCN         q      C6AA      α(0)
     1   6 C        3.685    -0.053    21.741     6.675
     2   7 N        1.831    -0.118    24.337     7.310
     3   6 C        1.841    -0.061    32.822     9.255
     4   7 N        2.687     0.005    21.180     6.835
     5   6 C        2.832     0.089    26.017     8.358
     6   6 C        2.883     0.054    26.786     8.485
     7   6 C        2.768     0.269    22.460     7.762
     8   8 O        0.859    -0.323    20.196     6.025
     9   7 N        2.738    -0.065    22.490     7.043
    10   6 C        3.711    -0.063    21.848     6.680
    11   6 C        2.727     0.318    21.591     7.607
    12   8 O        0.860    -0.347    20.655     6.093
    13   7 N        2.743    -0.044    22.100     6.982
    14   6 C        3.702    -0.084    22.268     6.748
    15   1 H        0.924     0.125     1.573     1.961
    16   1 H        0.924     0.122     1.595     1.975
    17   1 H        0.920     0.137     1.482     1.904
    18   1 H        0.925     0.130     1.535     1.938
    19   1 H        0.925     0.115     1.654     2.011
    20   1 H        0.925     0.107     1.722     2.052
    21   1 H        0.925     0.107     1.720     2.051
    22   1 H        0.924     0.094     1.838     2.120
    23   1 H        0.924     0.094     1.836     2.119
    24   1 H        0.924     0.141     1.451     1.884
    25   1 H        0.859     0.250     0.884     1.473

 Mol. C6AA /au·bohr⁶  :       6565.235299
 Mol. C8AA /au·bohr⁸  :     151201.378620
 Mol. α(0) /au        :        123.347788


Wiberg/Mayer (AO) data.
largest (>0.10) Wiberg bond orders for each atom

 ---------------------------------------------------------------------------
     #   Z sym  total        # sym  WBO       # sym  WBO       # sym  WBO
 ---------------------------------------------------------------------------
     1   6 C    3.863 --     2 N    1.108    16 H    0.916    15 H    0.905
                            17 H    0.879
     2   7 N    2.836 --     6 C    1.566     1 C    1.108
     3   6 C    2.674 --     4 N    1.626    18 H    0.907
     4   7 N    3.662 --     3 C    1.626     5 C    1.083    25 H    0.865
     5   6 C    3.666 --    13 N    1.215     6 C    1.207     4 N    1.083
     6   6 C    3.916 --     2 N    1.566     5 C    1.207     7 C    0.928
     7   6 C    3.893 --     8 O    1.702     9 N    1.165     6 C    0.928
     8   8 O    2.019 --     7 C    1.702     9 N    0.137
     9   7 N    3.549 --     7 C    1.165    11 C    1.106    10 C    0.960
                             8 O    0.137    12 O    0.119
    10   6 C    3.891 --    19 H    0.967     9 N    0.960    21 H    0.959
                            20 H    0.959
    11   6 C    3.939 --    12 O    1.695     9 N    1.106    13 N    1.054
    12   8 O    2.011 --    11 C    1.695     9 N    0.119    13 N    0.109
    13   7 N    3.482 --     5 C    1.215    11 C    1.054    14 C    0.978
                            12 O    0.109
    14   6 C    3.913 --    13 N    0.978    22 H    0.958    23 H    0.958
                            24 H    0.950
    15   1 H    0.944 --     1 C    0.905
    16   1 H    0.947 --     1 C    0.916
    17   1 H    0.914 --     1 C    0.879
    18   1 H    0.939 --     3 C    0.907
    19   1 H    0.984 --    10 C    0.967
    20   1 H    0.979 --    10 C    0.959
    21   1 H    0.979 --    10 C    0.959
    22   1 H    0.981 --    14 C    0.958
    23   1 H    0.981 --    14 C    0.958
    24   1 H    0.978 --    14 C    0.950
    25   1 H    0.917 --     4 N    0.865
 ---------------------------------------------------------------------------

Topologies differ in total number of bonds
Writing topology from bond orders to xtbtopo.mol

molecular dipole:
                 x           y           z       tot (Debye)
 q only:        1.341      -1.514       0.017
   full:        1.238      -1.322       0.024       4.605
molecular quadrupole (traceless):
                xx          xy          yy          xz          yz          zz
 q only:        5.686       0.831      12.106       0.242       0.079     -17.792
  q+dip:        2.512       4.359      10.018       0.322       0.090     -12.530
   full:        0.992       4.103       9.079       0.336       0.084     -10.071

           -------------------------------------------------
          |                Geometry Summary                 |
           -------------------------------------------------

      molecular mass/u    :      195.1988581
   center of mass at/Å    :        0.0561099      -0.0643195      -0.0030009
  moments of inertia/u·Å² :        0.5752228E+03   0.6794180E+03   0.1245065E+04
rotational constants/cm⁻¹ :        0.2930627E-01   0.2481187E-01   0.1353956E-01

 * 23 selected distances

     #   Z          #   Z                                           value/Å
     1   6 C        2   7 N                                       1.4004164
     3   6 C        4   7 N                                       1.2823730
     4   7 N        5   6 C                                       1.4027545
     2   7 N        6   6 C                                       1.2885886
     5   6 C        6   6 C                                       1.4248980
     7   6 C        8   8 O                                       1.2076869
     7   6 C        9   7 N                                       1.3656119
     9   7 N       10   6 C                                       1.4588202 (max)
     9   7 N       11   6 C                                       1.3777066
    11   6 C       12   8 O                                       1.2005047
     5   6 C       13   7 N                                       1.3651280
    11   6 C       13   7 N                                       1.4030124
    13   7 N       14   6 C                                       1.4552056
     1   6 C       15   1 H                                       1.0966112
     1   6 C       16   1 H                                       1.0958003
     1   6 C       17   1 H                                       1.1166421
    10   6 C       19   1 H                                       1.0865750
    10   6 C       20   1 H                                       1.0898047
    10   6 C       21   1 H                                       1.0897891
    14   6 C       22   1 H                                       1.0919872
    14   6 C       23   1 H                                       1.0919505
    14   6 C       24   1 H                                       1.0920343
     4   7 N       25   1 H                                       1.0244057 (min)

 * 5 distinct bonds (by element types)

   Z      Z             #   av. dist./Å        max./Å        min./Å
   1 H    6 C           9     1.0945771     1.1166421     1.0865750
   6 C    6 C           1     1.4248980     1.4248980     1.4248980
   1 H    7 N           1     1.0244057     1.0244057     1.0244057
   6 C    7 N          10     1.3799617     1.4588202     1.2823730
   6 C    8 O           2     1.2040958     1.2076869     1.2005047


optimized geometry written to: xtbopt.xyz


           -------------------------------------------------
          | TOTAL ENERGY              -42.087877717579 Eh   |
          | GRADIENT NORM               0.002085086495 Eh/α |
          | HOMO-LUMO GAP               0.176414787656 eV   |
           -------------------------------------------------

------------------------------------------------------------------------
 * finished run on 2024/06/05 at 20:00:08.618     
------------------------------------------------------------------------
 total:
 * wall-time:     0 d,  0 h,  0 min,  0.889 sec
 *  cpu-time:     0 d,  0 h,  0 min,  0.863 sec
 * ratio c/w:     0.970 speedup
 SCF:
 * wall-time:     0 d,  0 h,  0 min,  0.032 sec
 *  cpu-time:     0 d,  0 h,  0 min,  0.032 sec
 * ratio c/w:     1.000 speedup
 ANC optimizer:
 * wall-time:     0 d,  0 h,  0 min,  0.823 sec
 *  cpu-time:     0 d,  0 h,  0 min,  0.820 sec
 * ratio c/w:     0.996 speedup

