72
 energy: 0.000000000000 xtb: 6.6.1 (8d0f1dd)
N           -1.47310921155849        2.74401293103706        2.22063921685122
C           -1.55658879776851        2.16490285539332        1.13274273951491
C           -2.74549199786261        2.05621232186130        0.23826248438941
C           -3.31377553111525        0.64333411542669        0.32332512650568
C           -4.30230156009016        0.24487110156316       -0.58026161703006
C           -4.85238763031941       -1.02286490450319       -0.53363588718165
O           -5.81419972815119       -1.48606034185536       -1.36157882725342
C           -6.39655633239252       -0.60827000183299       -2.29568474302620
C           -4.39972501531283       -1.94646102182611        0.44396929121966
O           -4.98748311285188       -3.16145997157803        0.41085992006324
C           -4.66362127904578       -4.10093827755394        1.40909127743729
C           -3.42072513477031       -1.54561384810496        1.33436546260297
C           -2.88302799614223       -0.26315800396994        1.27400150770375
C           -2.19303798107274        2.30467000305896       -1.18742977106749
C           -1.26651538239283        1.17243369445008       -1.65249429687285
C            0.01082524939134        1.09745454476277       -0.89354803499847
N            0.61779393476578       -0.02034948052406       -0.57705522512502
C            2.00145210352228       -0.02376006389122       -0.15611399603240
C            2.92554934655222       -0.53865282675074       -1.27700088804721
C            4.35756843073516       -0.43050757231754       -0.83075544324989
C            5.07346135469827        0.73206409086248       -1.03980965825901
C            6.38627986649936        0.84224441421807       -0.60344822702769
C            7.00047264773336       -0.20824756335880        0.05722314418200
O            8.26703657141718       -0.21011313101264        0.52410943644933
C            9.06912227848686        0.92943601033931        0.31863058007678
C            6.27039964270142       -1.40439753960823        0.28033466008274
O            6.94829939911432       -2.38012925705718        0.92751999079483
C            6.31537317745639       -3.61583200086742        1.15217711710877
C            4.96302794628964       -1.49347471867959       -0.16064430359178
C           -0.05511211367372       -1.29906247805359       -0.62085686319744
C           -3.86758037025447        3.07992600430699        0.58498060215443
C           -4.49286159663096        2.77383493050346        1.94313289484366
C           -3.39165179876499        4.52917666589254        0.54797523472093
H           -4.66030026466202        0.94509067363451       -1.31640568823548
H           -6.85037928558380        0.25803162192116       -1.80468845313260
H           -7.17287442604349       -1.18600110843259       -2.79318157561361
H           -5.66836817451085       -0.26952966318766       -3.04040255244073
H           -4.88416720672258       -3.71589460520039        2.40913542187496
H           -5.29223570620378       -4.96637458756866        1.20969236903657
H           -3.61139813139015       -4.39919835331056        1.35529357841967
H           -3.07077796610445       -2.21868765711333        2.10002662693138
H           -2.14562754426994        0.02067850696302        2.01001344383370
H           -3.02188875377605        2.38238012313952       -1.88813545054866
H           -1.65198530896729        3.25146700677685       -1.20556284570283
H           -1.81103374245520        0.23006524641044       -1.62116301628650
H           -0.99335688527853        1.37490212198123       -2.69443256973690
H           -0.67628064361333        1.65183887049447        0.61785727145403
H            0.63525841192517        1.98466369793744       -0.92314021190751
H            2.11132552493482       -0.65949692842762        0.72532613231274
H            2.30680473056284        0.98978251704176        0.11078972794250
H            2.76694198818247        0.06750735147374       -2.17075252200790
H            2.67954581369920       -1.57455627803457       -1.51167743520200
H            4.62169998552446        1.56295612048703       -1.56123579000624
H            6.92357674630170        1.75715815945204       -0.79119596719031
H            8.65159112996149        1.81001823324363        0.81701555159939
H            9.20136171144928        1.14042857828877       -0.74698991949293
H           10.03428838009630        0.69003240176163        0.76064937965836
H            7.05567174969094       -4.23621171795340        1.65347565939075
H            5.43848001056755       -3.50813558175093        1.79970565785717
H            6.02060041905269       -4.09420497120334        0.21253282636366
H            4.40102758497114       -2.40127266373392       -0.00490198249042
H           -0.22071299714579       -1.61775583601871       -1.65116008982042
H           -1.01972258008625       -1.24102717432227       -0.10935206830928
H            0.55899954147532       -2.04486085926761       -0.12333730421426
H           -4.63991875734388        2.95501092798550       -0.18098088071825
H           -3.76095216473977        2.90314704960906        2.73380821053058
H           -4.87457614030224        1.75695641518947        1.97884603101694
H           -5.31925552549014        3.45579210326349        2.12325564252114
H           -2.60025590131176        4.69225046143352        1.27368918226171
H           -3.03987406413880        4.81897652321898       -0.43870975059559
H           -4.22191740670577        5.18069648090034        0.80616693961239
H           -0.59832433787845        2.77744694953323        2.72958984441332
72
 energy: -4.687873748386 xtb: 6.6.1 (8d0f1dd)
N           -1.46874726384254        2.73465655757857        2.24557875789417
C           -1.54699004456263        2.14430705806173        1.14781729140597
C           -2.74111535068880        2.05521922230649        0.24953126212506
C           -3.30275798800048        0.64086478454871        0.32296866531819
C           -4.28387773079334        0.23760750619699       -0.58567306185506
C           -4.84198892992183       -1.02517210702942       -0.53478601342622
O           -5.80654009902637       -1.49252383621424       -1.36782744801088
C           -6.36971729789227       -0.61781419786924       -2.31357191622217
C           -4.40708138170429       -1.94034006835724        0.45259342275293
O           -5.01054508615521       -3.15512270006126        0.42408380491677
C           -4.69771273796893       -4.08473338560391        1.43144991178784
C           -3.43390203483079       -1.53959532168430        1.34772174063448
C           -2.88604186362528       -0.26232888816733        1.28177214353707
C           -2.19051432939356        2.29657289176082       -1.18556593337129
C           -1.25704598211091        1.18732668251395       -1.70038767723288
C            0.02024252109205        1.12641919065962       -0.93407344785699
N            0.64039307969788       -0.03251545417089       -0.59289792993563
C            2.01426549496885       -0.02614219129077       -0.18087846159946
C            2.94497962261835       -0.54659135203176       -1.29296915395128
C            4.37106978645278       -0.43820031299872       -0.84918880632837
C            5.08646632411822        0.72642946481386       -1.05247930675582
C            6.39491460215677        0.83911318325223       -0.60667612115740
C            7.00569922329732       -0.21023333710408        0.05852916301373
O            8.27819643733751       -0.21181855715678        0.53230832938760
C            9.07373037920966        0.92939352745596        0.32594550994741
C            6.27614177258452       -1.40373385076600        0.28123335070488
O            6.95524091670529       -2.38216716004377        0.93513354457495
C            6.31809483243648       -3.61490006666457        1.15720115100602
C            4.97317449632799       -1.49644348152305       -0.16748956268907
C           -0.04438605238914       -1.29745598458759       -0.63229979729643
C           -3.88520911678882        3.06144688987574        0.61835319602844
C           -4.54279933125709        2.79157199262190        1.97334711963337
C           -3.41433378507014        4.51300709706125        0.57825456250762
H           -4.62537510469415        0.93072316695952       -1.33593003452829
H           -6.81634323332228        0.25897155024920       -1.83424096767000
H           -7.14848877136821       -1.19205909351204       -2.81224890374602
H           -5.63115113981536       -0.29308157355037       -3.05395355257483
H           -4.92017702053202       -3.68832696538891        2.42713946048401
H           -5.33120884267206       -4.94766574123489        1.23517448399718
H           -3.64667389889750       -4.38860667865049        1.38672077937479
H           -3.09333944998717       -2.21047698817803        2.11997064337053
H           -2.14655949622026        0.02084924500739        2.01463991238393
H           -3.02397332481308        2.38340591612886       -1.88243846310994
H           -1.64530216594089        3.24142771332889       -1.20359171781554
H           -1.79023317701124        0.23823275875934       -1.65981129960816
H           -1.02162837476830        1.39734076409555       -2.75338851718753
H           -0.66357469174082        1.68295505772187        0.62056843865092
H            0.66006851479870        1.99629543125595       -1.00317589090001
H            2.12536774063094       -0.64638399823511        0.71250188060891
H            2.30986226681489        0.99445587210075        0.07335540072173
H            2.78084409647774        0.05387736929209       -2.18891313187251
H            2.68959531407298       -1.58255234946521       -1.51635427897653
H            4.63358284367657        1.55671787757421       -1.57360257207508
H            6.93321036049844        1.75433689282400       -0.79358714142621
H            8.65101946504209        1.81065444935231        0.81979858644031
H            9.20855626261214        1.13945154694200       -0.74011470711794
H           10.03825936668154        0.69423152690726        0.77214746372097
H            7.05566447625072       -4.23639760988816        1.66205318319678
H            5.43786175822026       -3.50572793872730        1.80011511009470
H            6.02485272651381       -4.09385684945220        0.21694486327943
H            4.40794369607324       -2.40199851303493       -0.00862877512944
H           -0.21995243532833       -1.62189405015940       -1.66248460158560
H           -1.00779561846108       -1.22547574561200       -0.11925158324389
H            0.56533143040152       -2.04343040824274       -0.13030377541869
H           -4.65874378279974        2.93061480902911       -0.14260392021126
H           -3.82448905893076        2.94231634089375        2.77136125171080
H           -4.92498204970687        1.77574128062534        2.02791055075981
H           -5.37729456333477        3.47405149873336        2.12822073093322
H           -2.60943676099812        4.66246019257610        1.29109306731941
H           -3.07181109415108        4.79609334714341       -0.41307545034454
H           -4.23264925608013        5.17731608204339        0.84733338532457
H           -0.58024089730913        2.73860085535137        2.73607813080203
72
 energy: -2.710935920150 xtb: 6.6.1 (8d0f1dd)
N           -1.46465660592700        2.70143167526881        2.28163590184707
C           -1.52154424264059        2.12805915421918        1.15568392584243
C           -2.73347891292732        2.04903891381621        0.26738220036054
C           -3.28390686495210        0.63262698277871        0.32278783715464
C           -4.25211370747229        0.22384000271708       -0.59616703524364
C           -4.82479692633178       -1.02964063375393       -0.53673988050696
O           -5.79418968750288       -1.50231908227477       -1.37714992052561
C           -6.32582551009770       -0.63255855737943       -2.34126014159049
C           -4.41961274777271       -1.93088582709732        0.46712327242884
O           -5.05003020006918       -3.14343400156816        0.44637534891533
C           -4.75377706170803       -4.05768605381528        1.46684746771334
C           -3.45508882406110       -1.53287561959517        1.37039938022228
C           -2.89128009525262       -0.26477119963629        1.29624911070699
C           -2.19121201764464        2.29260388571519       -1.18358622362453
C           -1.24799900834200        1.20697998212816       -1.76028718795280
C            0.03900407973286        1.16716145983176       -1.00628950400221
N            0.67171527898898       -0.04259384163505       -0.62546318420283
C            2.03138550172284       -0.01991300644373       -0.22391222688450
C            2.97505368711335       -0.55967411539197       -1.31794844716242
C            4.39203508033565       -0.45031615907123       -0.87297947514424
C            5.10823107002229        0.71554814539704       -1.07078946336555
C            6.41119461589534        0.83242226629790       -0.61202091513776
C            7.01532042271497       -0.21440929647666        0.06054056534848
O            8.29570536679185       -0.21444134591291        0.54546388602935
C            9.08136561831373        0.92897770948704        0.33844069550159
C            6.28733810243892       -1.40341649245971        0.28256773685467
O            6.96720579431277       -2.38552970282548        0.94781970641397
C            6.32413794022693       -3.61377890838363        1.16578340154570
C            4.98997283922136       -1.50168231607458       -0.17717651933230
C           -0.03021049478589       -1.28708739646962       -0.65391154739458
C           -3.91391655201551        3.03284949414672        0.67176529649634
C           -4.62114766637530        2.81715661410257        2.02329241732366
C           -3.45050328478738        4.48760745846333        0.62693284902988
H           -4.56598902044333        0.90584976664692       -1.36934092408110
H           -6.76027879463884        0.26167509998131       -1.88140386130493
H           -7.10970028687922       -1.19981811536895       -2.84124043564543
H           -5.57129034009261       -0.33208458000539       -3.07606116905454
H           -4.97870844070133       -3.64433113335087        2.45606031217268
H           -5.39513929278603       -4.91649760924669        1.27626447667215
H           -3.70486972462397       -4.37144644798164        1.43581776256435
H           -3.13196509230761       -2.19856898566994        2.15495822747462
H           -2.14931373279944        0.01806008166957        2.02534547291779
H           -3.03221049108719        2.39004843374520       -1.87291830453964
H           -1.63659385688641        3.23309514016474       -1.20193851656597
H           -1.75767158169714        0.24353611432245       -1.72175966697232
H           -1.06838584861930        1.43862970327065       -2.82685560392988
H           -0.63944150694630        1.73166653644838        0.62221505680419
H            0.70712590336218        2.00514568261041       -1.13519537506248
H            2.14822357570798       -0.61626713770658        0.68913230515892
H            2.31848202789532        1.00961155301674        0.00927883372714
H            2.80715701057848        0.02753376056875       -2.22144240697632
H            2.70654697268983       -1.59690687910609       -1.52245559952538
H            4.65440562168143        1.54360614129889       -1.59443193766075
H            6.95014209070362        1.74857170180724       -0.79685772583340
H            8.65107048801406        1.81172674491509        0.82470842330003
H            9.22222064950318        1.13721378191719       -0.72810449920538
H           10.04485515051112        0.70144563834342        0.79187492089430
H            7.05720858056087       -4.23688086834742        1.67648437532001
H            5.43873094402558       -3.50320969774829        1.80166409926715
H            6.03465293882631       -4.09435053328580        0.22449659918577
H            4.41991866957863       -2.40386755050218       -0.01432038657705
H           -0.22024558897729       -1.62828052875284       -1.68086813097533
H           -0.99066902970006       -1.19817285113611       -0.13674374968442
H            0.57406393290398       -2.03304466663729       -0.14353273215075
H           -4.68765913790854        2.88326481254452       -0.08052855837130
H           -3.93703252910353        3.01433039898184        2.84235118332838
H           -5.01164088202080        1.80626850724516        2.11727871325521
H           -5.47020146970712        3.50294797887253        2.12238430388040
H           -2.62360827242492        4.61408387594536        1.31871998611115
H           -3.12818096462573        4.76097023619809       -0.37289015846656
H           -4.24868782526235        5.16969763048176        0.91870333013855
H           -0.54779664060629        2.66474891269139        2.73222836086485
72
 energy: 4.771369561937 xtb: 6.6.1 (8d0f1dd)
N           -1.45564354372205        2.65442011422954        2.31462411700413
C           -1.50114740703207        2.11189049795808        1.16184249380555
C           -2.72770222092947        2.04189822069382        0.28420297684703
C           -3.26572256304731        0.62279559514160        0.32315197710157
C           -4.21998851457755        0.20998024717326       -0.60836535935835
C           -4.80877845351387       -1.03442436505673       -0.53966541878380
O           -5.77972248776244       -1.51021307345579       -1.38584143637571
C           -6.28212710915862       -0.64645873365484       -2.36899230834737
C           -4.43335376927387       -1.92289687777377        0.48264029904546
O           -5.08771011883864       -3.12977355077655        0.46928119131810
C           -4.80995819107391       -4.03119860757783        1.50277584180273
C           -3.47558282839023       -1.52791244183875        1.39340404208570
C           -2.89475850225762       -0.26874258078834        1.31035351017966
C           -2.19296270059253        2.28973880117071       -1.18026704659048
C           -1.24229442425313        1.22605896771157       -1.81336873674366
C            0.05755925189105        1.19979859583884       -1.08011028915703
N            0.69787489850010       -0.04410171520559       -0.66672825143031
C            2.04858526707944       -0.00964190670081       -0.26699334321903
C            3.00221001834893       -0.57232537102930       -1.34323136430303
C            4.41273853625507       -0.46168366814377       -0.89341662042774
C            5.12989454702403        0.70486599578219       -1.08811882460261
C            6.42787391036872        0.82576803209074       -0.61762150565442
C            7.02650164765156       -0.21871564324651        0.06287487578057
O            8.31061020867175       -0.21648218142806        0.55766196617094
C            9.08942294720172        0.92882889416390        0.35099254967623
C            6.29912618437457       -1.40492177138239        0.28450773414212
O            6.97778944089208       -2.38821167852740        0.95961253257892
C            6.33064443620707       -3.61340306845435        1.17452225012271
C            5.00630752281723       -1.50766542250198       -0.18510865433909
C           -0.01738202046813       -1.27506479772223       -0.67615616172961
C           -3.94132165063201        3.00445941346839        0.72606106265148
C           -4.69768690981998        2.84175321875701        2.07239540609909
C           -3.48454496309345        4.46137435763582        0.67445129776345
H           -4.50733431806713        0.88142441551242       -1.40233701745608
H           -6.70443567356114        0.26450835131612       -1.92849572190638
H           -7.07104469331875       -1.20696067816953       -2.86949577600324
H           -5.51224132521592       -0.37111846899524       -3.09880111639448
H           -5.03763884918320       -3.60140645575434        2.48517819092960
H           -5.45938242329341       -4.88537918608717        1.31744329548335
H           -3.76353808287997       -4.35530742798181        1.48474120603784
H           -3.17106087768050       -2.18752004419596        2.19096663736300
H           -2.15320449142666        0.01454565326591        2.03881464132505
H           -3.03984453043266        2.39662532985261       -1.86226616272950
H           -1.63156939437620        3.22667386745078       -1.19895001679379
H           -1.72996327840662        0.25012530743409       -1.78052328604076
H           -1.10833302777127        1.47960789058638       -2.88837521620764
H           -0.61207082731146        1.78574928556945        0.61068392358963
H            0.74910499063368        2.01108302990637       -1.26106585805451
H            2.16821571200319       -0.58285978300363        0.66394044145041
H            2.33054550765394        1.02718734593523       -0.05586925620006
H            2.83579351134596       -0.00023098921154       -2.25656678950846
H            2.72407335755306       -1.61148438668211       -1.52791819086077
H            4.67630219149591        1.53042961186393       -1.61579484392757
H            6.96714579014198        1.74242211171336       -0.80082433777835
H            8.65182784979979        1.81268045409955        0.82997810125478
H            9.23679801454229        1.13468086880020       -0.71574342236873
H           10.05139375427421        0.70834186611149        0.81195573530546
H            7.05948791519190       -4.23734754460867        1.69106150054386
H            5.44047639092448       -3.50133330835563        1.80380394732148
H            6.04562634240812       -4.09554595351515        0.23225250743216
H            4.43263611540966       -2.40720462427812       -0.01954875994058
H           -0.21993080141662       -1.63303953152886       -1.69816750572365
H           -0.97447130498592       -1.16980716508708       -0.15431376513037
H            0.58270859330427       -2.01970663341997       -0.15730030088444
H           -4.71368193802988        2.83544432989779       -0.02014706085474
H           -4.05130128326544        3.08692546298000        2.91356913349315
H           -5.09602229025643        1.83674166399231        2.20665045698370
H           -5.55958605269437        3.52981323407826        2.11277123517572
H           -2.63755867440822        4.56969814553129        1.34574885280906
H           -3.18444318469001        4.72847449501841       -0.33348690006515
H           -4.26414840248176        5.15766656902869        0.98952316253840
H           -0.51618155751270        2.59490023132631        2.72802386079883
72
 energy: 14.367421718333 xtb: 6.6.1 (8d0f1dd)
N           -1.44049576333537        2.59902812468169        2.34229607084900
C           -1.48169206063879        2.09692333285424        1.16346243838242
C           -2.72194786787854        2.03269290008185        0.29928819368100
C           -3.24778707168724        0.61088937144145        0.32342462441077
C           -4.18775085541747        0.19516923114437       -0.62147388341996
C           -4.79354032360778       -1.03983293007800       -0.54319112257314
O           -5.76376351703092       -1.51708457150826       -1.39454581261677
C           -6.23838468690566       -0.66019873225268       -2.39693472781826
C           -4.44771651737147       -1.91592565871675        0.49844064062371
O           -5.12383353747129       -3.11495832638350        0.49230258220175
C           -4.86620366580846       -4.00487079854402        1.53911201460573
C           -3.49565746423003       -1.52414880538749        1.41605674161686
C           -2.89744551412904       -0.27416256924130        1.32402442798519
C           -2.19490757121493        2.28823135976364       -1.17711701263482
C           -1.23922664856280        1.24398391478333       -1.85953115324356
C            0.07421164806639        1.22778140352143       -1.15091891669822
N            0.72114842456457       -0.04086633636599       -0.71381967956255
C            2.06550209250108        0.00367271979095       -0.30988327004144
C            3.02683429738965       -0.58401068335313       -1.36801867623326
C            4.43238378053021       -0.47193187598195       -0.91103688450786
C            5.15061834513198        0.69480620353955       -1.10429943456685
C            6.44411457641495        0.81930049525932       -0.62350576313762
C            7.03787358938281       -0.22276920372381        0.06507296206367
O            8.32314459900456       -0.21802200204158        0.56869793163242
C            9.09733834475852        0.92890514640513        0.36332912357165
C            6.31046347326414       -1.40719815422866        0.28650177456911
O            6.98686984998207       -2.39020487454342        0.97024559263451
C            6.33696504127961       -3.61335308905777        1.18309097728544
C            5.02150505283300       -1.51358382423775       -0.19191454093605
C           -0.00567361966768       -1.26182693539817       -0.69893338833574
C           -3.96736656589610        2.97732628172182        0.78054213523408
C           -4.77124070139307        2.86472586443267        2.12026848144230
C           -3.51621181315008        4.43567294878752        0.72077221065345
H           -4.45014406100233        0.85655894714522       -1.43363929608084
H           -6.64872201657748        0.26649631157153       -1.97582295324590
H           -7.03194071704475       -1.21431371089450       -2.89760016895247
H           -5.45403424357736       -0.41031847174023       -3.12176904318215
H           -5.09711307368120       -3.55907287105623        2.51426822524228
H           -5.52394128998891       -4.85383372475779        1.35847586907581
H           -3.82274815791612       -4.34000326731390        1.53422907888838
H           -3.21045502499031       -2.17678496446214        2.22697080602343
H           -2.15833928492548        0.01009580574797        2.05406806719781
H           -3.04656958313415        2.40262648345243       -1.85192309127782
H           -1.62854814071551        3.22235754091268       -1.19530615969329
H           -1.70681557503793        0.25724992708601       -1.83632572773292
H           -1.14053530201307        1.51898605868286       -2.93774831227000
H           -0.58398333011366        1.84248272647706        0.59018221299251
H            0.78385180909913        2.01483843911052       -1.37617697998401
H            2.18426691364115       -0.54754052969441        0.63693422988003
H            2.34479503572653        1.04622483931851       -0.12046517014670
H            2.86547546386538       -0.02822137553098       -2.29246861510250
H            2.74125137073879       -1.62515807386314       -1.53283271720939
H            4.69835417344700        1.51768356174348       -1.63731196393997
H            6.98374851458218        1.73607548210854       -0.80570469258558
H            8.65296363992105        1.81354909367941        0.83547665888105
H            9.25173842307394        1.13214808643885       -0.70331562398524
H           10.05725198810006        0.71449732359348        0.83201876407681
H            7.06199842570205       -4.23737336700514        1.70537815344697
H            5.44251755234549       -3.49979564781415        1.80629899821396
H            6.05681104747944       -4.09729475337201        0.24002130130231
H            4.44520764754007       -2.41117698248860       -0.02467680386999
H           -0.21963835149978       -1.63578478135773       -1.71487381798296
H           -0.95878622490641       -1.14096593007222       -0.17171778329355
H            0.59173230086228       -2.00375559085133       -0.17205799143210
H           -4.73691860972856        2.78759810485368        0.03935753783601
H           -4.16411407547236        3.15735853889123        2.98113730441023
H           -5.17748616648062        1.86714577489405        2.29382021851655
H           -5.64344826417544        3.55258057652548        2.10347720881356
H           -2.65114198550406        4.52957778991906        1.37194920389899
H           -3.23940902842845        4.69862627958921       -0.29463714841238
H           -4.27818654835653        5.14338255287064        1.05850815056308
H           -0.48517340769860        2.52838470744479        2.72448374212240
72
 energy: 25.208872752842 xtb: 6.6.1 (8d0f1dd)
N           -1.41950209635159        2.53898074288886        2.36389244183761
C           -1.46121661779970        2.08268724516310        1.16079947910341
C           -2.71494463418868        2.02189300508092        0.31253774828821
C           -3.22941020086685        0.59758828795967        0.32329769202614
C           -4.15518608378327        0.17932230164375       -0.63491710261015
C           -4.77867032368560       -1.04583434333689       -0.54696983340852
O           -5.74679977590711       -1.52344307008273       -1.40338630462148
C           -6.19447808256681       -0.67415453216692       -2.42490532482788
C           -4.46231882236163       -1.90952434102039        0.51402497602696
O           -5.15893912684556       -3.09933818660361        0.51516678097526
C           -4.92258570566969       -3.97829919027603        1.57549688680560
C           -3.51558310677831       -1.52088931976395        1.43814311694843
C           -2.89969190955349       -0.28045073420632        1.33728083838430
C           -2.19616703441348        2.28692660855014       -1.17498456967631
C           -1.23701492598411        1.26054545818977       -1.90138836409135
C            0.08943969503197        1.25252150879017       -1.21837160065375
N            0.74283042048109       -0.03495601712668       -0.76474823185171
C            2.08174262385052        0.01896160249476       -0.35264687686441
C            3.04962339065172       -0.59469248661983       -1.39188691345942
C            4.45096131207146       -0.48120372906288       -0.92665388411975