25
 energy: 0.000000000000 xtb: 6.6.1 (8d0f1dd)
C            3.23720132972391        1.16630909158653        0.08434468864950
N            2.29877796055224        0.07527476373246        0.03981602671198
C            2.58028186251803       -1.21425391179017        0.03006175752192
N            1.43813944744728       -1.93419254010258        0.00098261751768
C            0.39035684826767       -1.05887462812143       -0.00790371763344
C            0.93510047688824        0.21347817468824        0.01709077332874
C            0.09450143016486        1.40504290868848       -0.00410946993748
O            0.49712746915594        2.54126690785742       -0.00342325656480
N           -1.25076628431515        1.06271869620815       -0.03085477937476
C           -2.21907191394203        2.15522079838987       -0.05001256521996
C           -1.81739470187490       -0.20012724136556       -0.04692818139228
O           -2.99983858926755       -0.37846413507442       -0.07008877579474
N           -0.92618577614240       -1.30210203518959       -0.03682761236648
C           -1.46982251276835       -2.64643077634382       -0.06029819901142
H            3.71247229913541        1.21471443890471        1.06488839270555
H            4.00791460421487        1.03430799217987       -0.67357688121503
H            2.69909982127087        2.09770098766290       -0.09130154035862
H            3.56654087521359       -1.63682977417947        0.04233139674524
H           -1.67107945562430        3.09322822573871       -0.02552706696334
H           -2.82428927394145        2.09428605349656       -0.95318074103337
H           -2.87644002486466        2.07745706351925        0.81450059976605
H           -1.17061985538665       -3.19584861009707        0.83242224714061
H           -1.14560246782873       -3.17511580834413       -0.95688266944647
H           -2.55549768731684       -2.55659960601237       -0.07459039105944
H            1.38130842369251       -2.94313824728853       -0.01389874052104
25
 energy: -5.834689095338 xtb: 6.6.1 (8d0f1dd)
C            3.28101441835892        1.16015443201488        0.09058308825517
N            2.31320859500674        0.11029792986868        0.03182855082451
C            2.60188940831057       -1.24358433789455        0.02857981147174
N            1.40815753460261       -1.93165092139453       -0.01075831781931
C            0.39431195811541       -1.04224967191398       -0.01107224745506
C            0.91570141970673        0.24362056258892        0.01649499747774
C            0.07652797585557        1.38260994481739        0.01267968655762
O            0.43856549191010        2.56355390505804        0.02686968496284
N           -1.32899259402189        1.04995041155110       -0.03093823135929
C           -2.27225305990197        2.16431559660861       -0.06021770204312
C           -1.87038324971405       -0.19884152261905       -0.02854998800135
O           -3.06117254264573       -0.41472749033054       -0.05349786047941
N           -0.95103110488040       -1.28099305542668       -0.02338000714120
C           -1.44684823585266       -2.63832684401546       -0.05531439067836
H            3.74180672789833        1.22809622171152        1.08561298441596
H            4.08186790334597        0.98595141758997       -0.63652167293960
H            2.78534107880882        2.09644436306775       -0.13914539030604
H            3.57832851449175       -1.67143048750422        0.03379182878050
H           -1.70052718303168        3.08826807661845       -0.03581610362849
H           -2.87455538560177        2.14063091103957       -0.96710877854477
H           -2.93523679800532        2.12165198090365        0.80261977194597
H           -1.11184750572290       -3.19998297350145        0.82058388878162
H           -1.12496767054642       -3.15696908408896       -0.96320531483720
H           -2.53239926345483       -2.57356098750477       -0.04161368901388
H            1.34347650719032       -2.93682587330162       -0.02716671080121
25
 energy: -3.137641665621 xtb: 6.6.1 (8d0f1dd)
C            3.31863843501708        1.14366702266032        0.09783406837597
N            2.31993480920609        0.11993450478823        0.02181292709330
C            2.59917222035220       -1.24737302268866        0.02078115187686
N            1.39177148250168       -1.91791049635279       -0.02623835932117
C            0.38596291050325       -1.01818518933593       -0.01309928247209
C            0.90777655621837        0.26638332173835        0.01884339635045
C            0.03190745237431        1.38374422970275        0.03196758429966
O            0.37611040860577        2.56895411719580        0.05883721355120
N           -1.39523862837804        1.05378369077486       -0.03051875087819
C           -2.32520013078517        2.18548134764422       -0.07192914333646
C           -1.92521358020006       -0.20104741573238       -0.00655365198972
O           -3.10445904936414       -0.45569327441383       -0.02380708525171
N           -0.96366108747359       -1.26022243651790       -0.00598100999797
C           -1.42296999323867       -2.63429517198582       -0.05140754487702
H            3.75437273501078        1.22921259500298        1.11119814851241
H            4.14525779621749        0.92223789261430       -0.59193882488685
H            2.87667408287183        2.08981544381027       -0.18799189771582
H            3.57118742883591       -1.69662015435352        0.01437501314592
H           -1.73931910220767        3.10077181010262       -0.04598651507534
H           -2.92280569957951        2.18831048433997       -0.98200024674871
H           -2.99361487321336        2.16770997922817        0.78668847898761
H           -1.05537005216039       -3.20524064227236        0.80606268259638
H           -1.10985744652264       -3.13573785572439       -0.97355626962821
H           -2.50881978393223       -2.59881721183744       -0.01057342243837
H            1.31717255510315       -2.92352733357319       -0.04803075206319
25
 energy: 1.640805250001 xtb: 6.6.1 (8d0f1dd)
C            3.35375372668270        1.12697068504669        0.10551115477557
N            2.32875440932274        0.12562010140833        0.00751635406683
C            2.59844117491260       -1.25271670039450        0.00534784117959
N            1.38503231728313       -1.90865796602729       -0.04635340154114
C            0.38199831510694       -1.00508972607182       -0.01841350960660
C            0.90139151385668        0.28159230695107        0.02732330397088
C           -0.00843713855467        1.38094264154625        0.05377429809198
O            0.31709558721101        2.56997835740547        0.09720969533834
N           -1.46144130286891        1.05923476136398       -0.03448408087776
C           -2.37612923699930        2.20997503548923       -0.08546828038348
C           -1.97866515263216       -0.19987651872257        0.00000029338387
O           -3.14371315774011       -0.49779706197545        0.00057986612271
N           -0.97017667136573       -1.24264485233914        0.01145618990891
C           -1.40008418559586       -2.63040402746514       -0.04531749087246
H            3.76058368763583        1.24083419859509        1.13728561072492
H            4.20484510250793        0.85943773935787       -0.54326650840953
H            2.96680081275507        2.07857017322916       -0.23826102790311
H            3.56490874139454       -1.71983851173148       -0.01329330490804
H           -1.77672662571255        3.11869662677942       -0.05295480515244
H           -2.96631430192903        2.23824184080988       -1.00021599371458
H           -3.05255121509530        2.21267155907170        0.76679321422489
H           -0.99994752335886       -3.20704052358122        0.79481080408254
H           -1.09568999825026       -3.11515837906726       -0.98097400002916
H           -2.48540746835237       -2.62428993667100        0.02214149836073
H            1.30195250621265       -2.91394824579311       -0.08072406263139
25
 energy: 8.093878931751 xtb: 6.6.1 (8d0f1dd)
C            3.38594334337154        1.10592420112242        0.10064114130686
N            2.33956544952654        0.12183783969344       -0.00561693003897
C            2.59802911249833       -1.25498659974388       -0.00353905772507
N            1.38720595946951       -1.90134252809043       -0.06393693651832
C            0.38381317166912       -0.99149518588045       -0.03237560537075
C            0.90701245128263        0.29547832757210        0.02274275657402
C           -0.02356084724601        1.38802299192246        0.06883613785372
O            0.26833990868669        2.57945565475280        0.13180430942158
N           -1.52283158248044        1.07279705292438       -0.04609676205567
C           -2.42438534300155        2.23959912132004       -0.09894213590131
C           -2.02857792917014       -0.18462835237085        0.00406907205146
O           -3.17480469987467       -0.53768010599683        0.02695774061438
N           -0.96955976865852       -1.22240165353717        0.01180597396751
C           -1.37459704686400       -2.62421925384481       -0.04416899247566
H            3.75652764853201        1.24024253165694        1.13832017513276
H            4.26110339501293        0.79354176690542       -0.50043360900713
H            3.05607755783805        2.06122981363813       -0.29201560933075
H            3.55873181734571       -1.73951719254366       -0.04289541195100
H           -1.81310790546558        3.14160697321753       -0.05660103793508
H           -3.00901859673405        2.29134476062252       -1.01699592437079
H           -3.10776081681544        2.25812089639112        0.74804666846316
H           -0.94271957982535       -3.20719907856322        0.77838299965913
H           -1.08222181168204       -3.09596359472451       -0.99208934529683
H           -2.45826169531741       -2.64697158212539        0.05230050497747
H            1.31107969272033       -2.90825702406891       -0.10181394427528
25
 energy: 17.614849766159 xtb: 6.6.1 (8d0f1dd)
C            3.42310658559354        1.08966990201831        0.09912645770592
N            2.36059143280454        0.12414908023993       -0.01283792768079
C            2.61224165728058       -1.24525389768704       -0.00911521220847
N            1.40685149591469       -1.89814121485821       -0.07915789386201
C            0.39777610635281       -0.99254228475615       -0.03612232357659
C            0.92230892979582        0.29986332134835        0.01819674963009
C           -0.01528283343512        1.38608155176510        0.08500968772781
O            0.22932332862704        2.57939115059074        0.17128790499028
N           -1.58428649872646        1.08615950900728       -0.06478647117475
C           -2.46947168831182        2.26968461407389       -0.11372705597413
C           -2.07715658922116       -0.15957497873759        0.01149380183409
O           -3.19524056151533       -0.58159607630190        0.05274130735809
N           -0.95439861785882       -1.21419548871696        0.01476339437381
C           -1.34793728111704       -2.62149620862981       -0.04161501805809
H            3.74600032268180        1.25891501348106        1.14378260801085
H            4.31845015818542        0.73230739956783       -0.45439796765476
H            3.14871328675696        2.03888526122645       -0.34674725253184
H            3.56057566966882       -1.75294283400891       -0.07790630914637
H           -1.84626643552138        3.15804520545294       -0.05903146948301
H           -3.04502266414859        2.34690693063563       -1.03628437216246
H           -3.16273818620180        2.30422167771590        0.72577115074951
H           -0.88699233628896       -3.20882774992411        0.76393135607647
H           -1.06782070142672       -3.07899139947998       -1.00133548012510
H           -2.42934343073270       -2.66934858521881        0.08172860321235
H            1.34597342745699       -2.90725557341396       -0.11122400911019
25
 energy: 31.307147104016 xtb: 6.6.1 (8d0f1dd)
C            3.45875937546904        1.06990831343819        0.09910534690878
N            2.38445927001238        0.11852125393776       -0.01204954535852
C            2.63041975275653       -1.24387814218157       -0.03131241542611
N            1.42951296294343       -1.90032843298446       -0.10089862078259
C            0.41526961708187       -1.00068533573407       -0.03641985277541
C            0.94265237211594        0.29808425573835        0.03221870415439
C            0.01496908830931        1.37569693603213        0.10777402441063
O            0.19575001430845        2.56698653829707        0.21452427773210
N           -1.65785734583498        1.09461579610857       -0.09364558104305
C           -2.51801991455861        2.29879715167703       -0.12863546131577
C           -2.13557104696775       -0.13012885740359        0.00447682395933
O           -3.20684434390444       -0.63922448596610        0.08087943378642
N           -0.92736925472359       -1.21742490642610        0.00845988174422
C           -1.32112259541456       -2.62180508338285       -0.04174078244241
H            3.75461176265035        1.29167757579066        1.13447306711063
H            4.37279122892975        0.66916685288201       -0.39563629060451
H            3.23259985635946        2.00355812908783       -0.39184335316071
H            3.57026746972486       -1.75368904402874       -0.11422629243246
H           -1.88157243870363        3.17344054891300       -0.06225898909798
H           -3.08230431487806        2.40450011069715       -1.05456414303270
H           -3.21579206392879        2.35376590437876        0.70656198823115
H           -0.83319172388039       -3.21145390017611        0.74823136436057
H           -1.05911946041395       -3.06578958624126       -1.01424653019609
H           -2.39989011276658       -2.68429220938164        0.11208269420821
H            1.37381527266828       -2.90777177102495       -0.13040185893583
25
 energy: 51.390589198783 xtb: 6.6.1 (8d0f1dd)
C            3.48966980524961        1.04993245233596        0.10297470226571
N            2.41137061580559        0.10755512020012       -0.00540835622819
C            2.65413459350757       -1.24855961933885       -0.05160967532454
N            1.45756288361202       -1.90950232115204       -0.10808129896977
C            0.43411793173990       -1.01561631048525       -0.02859702732051
C            0.97376295798502        0.29265723460445        0.05062485154601
C            0.09994267747498        1.37962977518738        0.13065327856518
O            0.16227388926199        2.56947637508165        0.27277591982878
N           -1.76625566682700        1.11206039272812       -0.12373192639388
C           -2.58051950507756        2.33214964701529       -0.14761809844040
C           -2.24877478973237       -0.06732698639947        0.00164237744096
O           -3.24432183753769       -0.69174629997239        0.10682291510198
N           -0.88572437719527       -1.22997818419398        0.00894210282930
C           -1.28964975701379       -2.62548016511925       -0.03857134202939
H            3.75024544683499        1.33120104318316        1.12788743698786
H            4.40293979217543        0.59903111715248       -0.33464701365395
H            3.31553323249106        1.96212878283964       -0.43928271950485
H            3.58699354307411       -1.75593006678824       -0.15655668151420
H           -1.92137916897216        3.18876046702062       -0.06882803481242
H           -3.13157472769694        2.47265164384861       -1.07395830423829
H           -3.26761564307839        2.41340536568490        0.68988366811333
H           -0.77759194737852       -3.22174039101991        0.73199389594830
H           -1.05453883137773       -3.05466552553383       -1.02260886163675
H           -2.36510954238358       -2.70461675286960        0.14121449231357
H            1.40721270916613       -2.91337035130994       -0.13434756314207
25
 energy: 69.235822252042 xtb: 6.6.1 (8d0f1dd)
C            3.52733750404525        1.02796059151149        0.10020878893001
N            2.44512134328808        0.09133263913188        0.01755533067989
C            2.68573415537641       -1.25540099896212       -0.06700645552022
N            1.49909727700085       -1.92634643996825       -0.10775708354760
C            0.46240233591618       -1.03857587527646       -0.02085020372791
C            1.02032755868772        0.28105446292551        0.07238295753677
C            0.22739115227354        1.38972524072253        0.12716607444400
O            0.13734414401555        2.55930607950410        0.33581137455336
N           -1.90754081292049        1.14443355414545       -0.16468624078506
C           -2.65581302007322        2.38169686463325       -0.16748176378342
C           -2.43350491050057        0.03869329144618        0.00067300677752
O           -3.28619668652737       -0.74190685530937        0.15221932399994
N           -0.82337826240992       -1.25330947851681        0.00805069876196
C           -1.25280474580698       -2.63191765928184       -0.03680159410643
H            3.74655640097474        1.37115720078264        1.11167650620197
H            4.44514933236756        0.52990224393109       -0.28204172494535
H            3.40144264101056        1.91527335309602       -0.49668243374312
H            3.62131467794336       -1.73484242042896       -0.17677245578115
H           -1.96376846837527        3.20849373033339       -0.07033504789504
H           -3.19410429951279        2.54534646306800       -1.09439329534503
H           -3.33210783370003        2.47737598794501        0.67277682894603
H           -0.72309821547536       -3.23152367665011        0.71418406887151
H           -1.04596324049543       -3.04255384743277       -1.03181619238613
H           -2.32416514239499       -2.72098633436006        0.16379671795180
H            1.44083375614961       -2.92488067060121       -0.15595175836562
25
 energy: 72.720484964346 xtb: 6.6.1 (8d0f1dd)
C            3.56105532520775        0.99719234308171        0.09972569939098
N            2.47947127192331        0.06373570421429        0.05145364918170
C            2.71383697184041       -1.26335848597137       -0.07972294592199
N            1.53956214308892       -1.94532071766170       -0.09774905136554
C            0.49052279518327       -1.05241385568881       -0.01190759717899
C            1.06051637849963        0.26934424638255        0.09180678247761
C            0.28931838435669        1.38798281582707        0.11507608050429
O            0.14862975163303        2.54093596484739        0.39701515282950
N           -2.03175949062671        1.18207724431271       -0.20190793716888
C           -2.72722150680699        2.43328858934004       -0.18594023635216
C           -2.57991882427624        0.11943853839032       -0.00459922257627
O           -3.32550419893506       -0.74972114499698        0.17235359531739
N           -0.77434559290959       -1.26769642823507        0.00823058519826
C           -1.22238996683920       -2.63670561810421       -0.03021021727124
H            3.73998941692604        1.40809189702727        1.08953353028085
H            4.47521491380932        0.45561798790734       -0.22761194688521
H            3.47087930123905        1.84683362392075       -0.54999955675480
H            3.64733902591312       -1.73344544761848       -0.22264248386184
H           -2.01177832133393        3.23416726393882       -0.07237596507057
H           -3.26177489985540        2.59693672384499       -1.11458313254883
H           -3.40411852935044        2.52547847024835        0.65252687325920
H           -0.66744281180216       -3.23438316398396        0.69832017326672
H           -1.05650741430432       -3.03677199769772       -1.03286471707284
H           -2.28858946848187       -2.73386372469286        0.19579764328767
H            1.47650294214067       -2.94074797955419       -0.17047198218371
25
 energy: 73.266736924518 xtb: 6.6.1 (8d0f1dd)
C            3.58861300043979        0.97022618164722        0.09353128001808
N            2.50571165612738        0.04325738221221        0.06305589897827
C            2.74151833917436       -1.27667979467280       -0.09304930146459
N            1.57224327303766       -1.96391068234147       -0.09535118823781
C            0.51789774640416       -1.06993866699971       -0.00427997749940
C            1.09253118187901        0.25131468975097        0.10355094891527
C            0.33386782141213        1.37051787489503        0.12523979085520
O            0.15861825960006        2.51167221465172        0.43309797948795
N           -2.12284476112491        1.21461871196689       -0.22896392024273
C           -2.79167041617011        2.47160585398267       -0.19975178815394
C           -2.68151231148702        0.17209481505931       -0.01124294828585
O           -3.37178071962106       -0.73505354360324        0.17500942873202
N           -0.74167969840515       -1.27664997098371        0.01250325576117
C           -1.20006155519499       -2.63932071557111       -0.02411562848739
H            3.73659090081481        1.43199697589298        1.06099997023583
H            4.49359221284115        0.38241527220004       -0.17182467758577
H            3.55300304017422        1.79078783161159       -0.60511280757592
H            3.68011568276678       -1.73498176809185       -0.24181838143529
H           -2.06026543321153        3.25560394463681       -0.06937295483782
H           -3.31746710537056        2.65079715822905       -1.13151544888678
H           -3.47797749910469        2.55193820719887        0.63112687511587
H           -0.61466223254311       -3.23499100029622        0.68273508625064
H           -1.06514359866841       -3.02717148045760       -1.03882647767233
H           -2.25928277408223       -2.74833683669744        0.23133532624761
H            1.50875008255368       -2.95853487695465       -0.17552047217172
25
 energy: 73.239711513728 xtb: 6.6.1 (8d0f1dd)
C            3.62382550830295        0.93797032519208        0.08707231019325
N            2.53614507354734        0.01926985795107        0.06827344157226
C            2.76998717229208       -1.29516435366396       -0.10485114286084
N            1.60330920564822       -1.98374273884612       -0.09335106680309
C            0.54580032796055       -1.08820363762650        0.00371638376455
C            1.12596983119178        0.22970115554937        0.11194093941086
C            0.37524651474258        1.34986859245131        0.11930426060992
O            0.21325689232007        2.49312789612436        0.42764607889930
N           -2.21242962426246        1.24137334681984       -0.24234855635167
C           -2.85424901505376        2.50686111659114       -0.20903394437670
C           -2.77783045187307        0.21029006648508       -0.01382478786271
O           -3.42010620510048       -0.72861216525290        0.18568534299588
N           -0.71113591795262       -1.28633332542660        0.01060919995583
C           -1.17784067093230       -2.64395520201041       -0.02063129754554
H            3.73871125138421        1.44677854485048        1.02524695838224
H            4.53070067392248        0.31932944623055       -0.11183860497164
H            3.63212704932695        1.72695119474408       -0.64835779875091
H            3.71396373881664       -1.74667155441712       -0.25062355666961
H           -2.10709178454101        3.27559256295151       -0.06979077218145
H           -3.38083748182516        2.68470533010984       -1.14282541040379
H           -3.54670822449164        2.59091742522225        0.61454967530130
H           -0.56449626335961       -3.22524549052718        0.66916267882129
H           -1.08116333410953       -3.04107777302152       -1.03665848013996
H           -2.22950936468658       -2.75733258970599        0.26969339237849
H            1.54001595312331       -2.97731592877271       -0.17995082709112
25
 energy: 73.044802890318 xtb: 6.6.1 (8d0f1dd)
C            3.64848149615626        0.91359293311449        0.09010580582999
N            2.56225844170917       -0.00329966280667        0.06822017708487
C            2.79841709959382       -1.31375307132716       -0.11615765390614
N            1.63369911128402       -2.00297467093163       -0.09057446890380
C            0.57288495140725       -1.10797586696166        0.01012918376929
C            1.15730104129122        0.20727619525914        0.11611982111639
C            0.41278053753162        1.32960024111286        0.11477068211111
O            0.26208850133126        2.46715632374793        0.45153740694843
N           -2.29769717864199        1.26696664559452       -0.25426183492776
C           -2.91708507139023        2.53960820094352       -0.21267663348062
C           -2.86775744512278        0.24443077682689       -0.01477791407963
O           -3.47365839827814       -0.71889052405115        0.18417206329586
N           -0.68232963594290       -1.30160933762459        0.01004061119621
C           -1.15535032990565       -2.65692066207222       -0.01698996682613
H            3.73141675884541        1.46652940516723        0.99939516555816
H            4.54772761835789        0.27796389701479       -0.02670649573577
H            3.70355773952192        1.65529496700362       -0.68881853856666
H            3.74734798975237       -1.75500758541919       -0.26639992994630
H           -2.15693511443289        3.29645983030303       -0.06539746508329
H           -3.44654955822426        2.72065234821071       -1.14469097649468
H           -3.61972861642670        2.60518772331254        0.60270563835138
H           -0.51216947170298       -3.23147563587219        0.64888656187599
H           -1.09470413766970       -3.05713871215550       -1.03393149773137
H           -2.19828730925215       -2.77226643409090        0.30625723051097
H            1.57244294964394       -2.99519516829523       -0.18335718551753
25
 energy: 72.399768540765 xtb: 6.6.1 (8d0f1dd)
C            3.67066139965379        0.89711140168365        0.09843813324235
N            2.58912023525097       -0.02411571246155        0.06781768429521
C            2.82810332952651       -1.33209961258955       -0.12811917997888
N            1.66456833498792       -2.02180293975371       -0.08662159145690
C            0.60124546647888       -1.12873198482056        0.01595285313848
C            1.18931163931592        0.18487206107845        0.11877419765468
C            0.45153105277932        1.30910946864877        0.11614732943882
O            0.30061987913396        2.43611628947061        0.48468540875194
N           -2.38569051097914        1.29235157961173       -0.26368667977519
C           -2.98081495009217        2.57367689994639       -0.21253114763319
C           -2.95758170971354        0.27710078555211       -0.00703157674671
O           -3.52734992929229       -0.71214953147567        0.17916044345522
N           -0.65248531955099       -1.31937045361421        0.01074950901211
C           -1.13749479984888       -2.66864435908889       -0.01993889919634
H            3.70648816830633        1.50850418418943        0.97751992999055
H            4.56209186508156        0.24851695479389        0.07044554034767
H            3.77354811454395        1.57990088333523       -0.73124377262514
H            3.78260127430736       -1.76648884729970       -0.26873325594371
H           -2.20582353928652        3.31745551891850       -0.06039896145665
H           -3.50871291762405        2.76407303643696       -1.14443722193842
H           -3.69137487113195        2.62323482818605        0.60013711037830
H           -0.48239917262391       -3.25676652498053        0.61431670865516
H           -1.11540253770704       -3.06624861998163       -1.03944846478910
H           -2.16933081263383       -2.77888380291380        0.33909817975388
H            1.60488175119933       -3.01279617982713       -0.18459932922242
25
 energy: 71.430623813055 xtb: 6.6.1 (8d0f1dd)
C            3.69503403655748        0.88007968085559        0.10769241261224
N            2.61656989773284       -0.04487991567678        0.06772429606514
C            2.85664112960495       -1.35116790221340       -0.14262765994482
N            1.69369312048768       -2.04008778681609       -0.08258263002788
C            0.62893473267641       -1.14892334675856        0.01765027960256
C            1.22164782212334        0.16361141901266        0.12043387702360
C            0.49285517530021        1.29110559848503        0.12226660701791
O            0.32444681185797        2.40124152027478        0.52788960101454
N           -2.47682204859117        1.31545058402219       -0.27022609087767
C           -3.04227872547325        2.60828685584810       -0.21232854559475
C           -3.04546183622405        0.30386573969441        0.00582124340481
O           -3.58891958308540       -0.70441932433308        0.17460607996759
N           -0.62411726517778       -1.33999321480976        0.01059138517066
C           -1.11753294760334       -2.68384283969944       -0.02041950833044
H            3.69086060784373        1.53508841497924        0.96227227703867
H            4.57971983782266        0.22799720244496        0.16737778698028
H            3.84242098174186        1.50134480333047       -0.76811369995247
H            3.81546346786093       -1.78459129675223       -0.25371417166488
H           -2.25121505593228        3.33711678400464       -0.05820070505816
H           -3.56638545651369        2.81272010936348       -1.14458448235961
H           -3.75679394954235        2.65668860952956        0.60037247539411
H           -0.45184818410044       -3.28921105109718        0.58302560941883
H           -1.12893502110004       -3.08161657933379       -1.04002948753010
H           -2.13832540280392       -2.77552322810845        0.37010732267423
H            1.63622237032430       -3.03014940309052       -0.18515799466372
25