      -----------------------------------------------------------      
     |                   =====================                   |     
     |                           x T B                           |     
     |                   =====================                   |     
     |                         S. Grimme                         |     
     |          Mulliken Center for Theoretical Chemistry        |     
     |                    University of Bonn                     |     
      -----------------------------------------------------------      

   * xtb version 6.6.1 (8d0f1dd) compiled by 'conda@1efc2f54142f' on 2023-08-01

   xtb is free software: you can redistribute it and/or modify it under
   the terms of the GNU Lesser General Public License as published by
   the Free Software Foundation, either version 3 of the License, or
   (at your option) any later version.
   
   xtb is distributed in the hope that it will be useful,
   but WITHOUT ANY WARRANTY; without even the implied warranty of
   MERCHANTABILITY or FITNESS FOR A PARTICULAR PURPOSE.  See the
   GNU Lesser General Public License for more details.
   
   Cite this work as:
   * C. Bannwarth, E. Caldeweyher, S. Ehlert, A. Hansen, P. Pracht,
     J. Seibert, S. Spicher, S. Grimme, WIREs Comput. Mol. Sci., 2020, 11,
     e01493. DOI: 10.1002/wcms.1493
   
   for GFN2-xTB:
   * C. Bannwarth, S. Ehlert and S. Grimme., J. Chem. Theory Comput., 2019,
     15, 1652-1671. DOI: 10.1021/acs.jctc.8b01176
   for GFN1-xTB:
   * S. Grimme, C. Bannwarth, P. Shushkov, J. Chem. Theory Comput., 2017,
     13, 1989-2009. DOI: 10.1021/acs.jctc.7b00118
   for GFN0-xTB:
   * P. Pracht, E. Caldeweyher, S. Ehlert, S. Grimme, ChemRxiv, 2019, preprint.
     DOI: 10.26434/chemrxiv.8326202.v1
   for GFN-FF:
   * S. Spicher and S. Grimme, Angew. Chem. Int. Ed., 2020, 59, 15665-15673.
     DOI: 10.1002/anie.202004239
   
   for ALPB and GBSA implicit solvation:
   * S. Ehlert, M. Stahn, S. Spicher, S. Grimme, J. Chem. Theory Comput.,
     2021, 17, 4250-4261. DOI: 10.1021/acs.jctc.1c00471
   
   for DFT-D4:
   * E. Caldeweyher, C. Bannwarth and S. Grimme, J. Chem. Phys., 2017,
     147, 034112. DOI: 10.1063/1.4993215
   * E. Caldeweyher, S. Ehlert, A. Hansen, H. Neugebauer, S. Spicher,
     C. Bannwarth and S. Grimme, J. Chem. Phys., 2019, 150, 154122.
     DOI: 10.1063/1.5090222
   * E. Caldeweyher, J.-M. Mewes, S. Ehlert and S. Grimme, Phys. Chem. Chem. Phys.
     2020, 22, 8499-8512. DOI: 10.1039/D0CP00502A
   
   for sTDA-xTB:
   * S. Grimme and C. Bannwarth, J. Chem. Phys., 2016, 145, 054103.
     DOI: 10.1063/1.4959605
   
   in the mass-spec context:
   * V. Asgeirsson, C. Bauer and S. Grimme, Chem. Sci., 2017, 8, 4879.
     DOI: 10.1039/c7sc00601b
   * J. Koopman and S. Grimme, ACS Omega 2019, 4, 12, 15120-15133.
     DOI: 10.1021/acsomega.9b02011
   
   for metadynamics refer to:
   * S. Grimme, J. Chem. Theory Comput., 2019, 155, 2847-2862
     DOI: 10.1021/acs.jctc.9b00143
   
   for SPH calculations refer to:
   * S. Spicher and S. Grimme, J. Chem. Theory Comput., 2021, 17, 1701-1714
     DOI: 10.1021/acs.jctc.0c01306
   
   with help from (in alphabetical order)
   P. Atkinson, C. Bannwarth, F. Bohle, G. Brandenburg, E. Caldeweyher
   M. Checinski, S. Dohm, S. Ehlert, S. Ehrlich, I. Gerasimov, C. Hölzer
   A. Katbashev, J. Koopman, C. Lavigne, S. Lehtola, F. März, M. Müller,
   F. Musil, H. Neugebauer, J. Pisarek, C. Plett, P. Pracht, F. Pultar,
   J. Seibert, P. Shushkov, S. Spicher, M. Stahn, M. Steiner, T. Strunk,
   J. Stückrath, T. Rose, and J. Unsleber
   
 * started run on 2024/06/05 at 20:00:21.750     

           -------------------------------------------------
          |                Calculation Setup                |
           -------------------------------------------------

          program call               : xtb xtbopt.xyz --opt crude --input .xc2 --gfn2
          hostname                   : n-62-21-68
          coordinate file            : xtbopt.xyz
          omp threads                :                     1

   ID    Z sym.   atoms
    1    6 C      1, 3, 5-7, 10, 11, 14
    2    7 N      2, 4, 9, 13
    3    8 O      8, 12
    4    1 H      15-25
########################################################################
[WARNING] Please study the warnings concerning your input carefully
-1- readin_getIntValue: could not parse ''
########################################################################

           -------------------------------------------------
          |                 G F N 2 - x T B                 |
           -------------------------------------------------

        Reference                      10.1021/acs.jctc.8b01176
      * Hamiltonian:
        H0-scaling (s, p, d)           1.850000    2.230000    2.230000
        zeta-weighting                 0.500000
      * Dispersion:
        s8                             2.700000
        a1                             0.520000
        a2                             5.000000
        s9                             5.000000
      * Repulsion:
        kExp                           1.500000    1.000000
        rExp                           1.000000
      * Coulomb:
        alpha                          2.000000
        third order                    shell-resolved
        anisotropic                    true
        a3                             3.000000
        a5                             4.000000
        cn-shift                       1.200000
        cn-exp                         4.000000
        max-rad                        5.000000

q/qsh data taken from xtbrestart
CAMM data taken from xtbrestart

          ...................................................
          :                      SETUP                      :
          :.................................................:
          :  # basis functions                  67          :
          :  # atomic orbitals                  67          :
          :  # shells                           39          :
          :  # electrons                        74          :
          :  max. iterations                   250          :
          :  Hamiltonian                  GFN2-xTB          :
          :  restarted?                       true          :
          :  GBSA solvation                  false          :
          :  PC potential                    false          :
          :  electronic temp.         5000.0000000     K    :
          :  accuracy                    1.0000000          :
          :  -> integral cutoff          0.2500000E+02      :
          :  -> integral neglect         0.1000000E-07      :
          :  -> SCF convergence          0.1000000E-05 Eh   :
          :  -> wf. convergence          0.1000000E-03 e    :
          :  Broyden damping             0.4000000          :
          ...................................................

 iter      E             dE          RMSdq      gap      omega  full diag
   1    -42.7605213 -0.427605E+02  0.903E-06    3.52       0.0  T
   2    -42.7605213 -0.568434E-12  0.548E-06    3.52    3647.1  T
   3    -42.7605213 -0.234479E-12  0.357E-06    3.52    5605.0  T

   *** convergence criteria satisfied after 3 iterations ***

         #    Occupation            Energy/Eh            Energy/eV
      -------------------------------------------------------------
         1        2.0000           -0.9362915             -25.4778
       ...           ...                  ...                  ...
        31        1.9996           -0.6211066             -16.9012
        32        1.9995           -0.6170099             -16.7897
        33        1.9979           -0.5936254             -16.1534
        34        1.9955           -0.5813981             -15.8206
        35        1.9930           -0.5744551             -15.6317
        36        1.9748           -0.5540631             -15.0768
        37        1.9738           -0.5534730             -15.0608 (HOMO)
        38        0.0415           -0.4240165             -11.5381 (LUMO)
        39        0.0246           -0.4155685             -11.3082
        40        0.0005           -0.3522355              -9.5848
        41        0.0000           -0.2849994              -7.7552
        42                         -0.2170587              -5.9065
       ...                                ...                  ...
        67                          0.5607528              15.2589
      -------------------------------------------------------------
                  HL-Gap            0.1294565 Eh            3.5227 eV
             Fermi-level           -0.4850282 Eh          -13.1983 eV

 SCC (total)                   0 d,  0 h,  0 min,  0.026 sec
 SCC setup                      ...        0 min,  0.000 sec (  1.351%)
 Dispersion                     ...        0 min,  0.000 sec (  1.687%)
 classical contributions        ...        0 min,  0.000 sec (  0.444%)
 integral evaluation            ...        0 min,  0.006 sec ( 22.751%)
 iterations                     ...        0 min,  0.006 sec ( 21.850%)
 molecular gradient             ...        0 min,  0.013 sec ( 51.200%)
 printout                       ...        0 min,  0.000 sec (  0.659%)

         :::::::::::::::::::::::::::::::::::::::::::::::::::::
         ::                     SUMMARY                     ::
         :::::::::::::::::::::::::::::::::::::::::::::::::::::
         :: total energy             -42.240154860422 Eh    ::
         :: gradient norm              0.002920081665 Eh/a0 ::
         :: HOMO-LUMO gap              3.522689581167 eV    ::
         ::.................................................::
         :: SCC energy               -42.760521313734 Eh    ::
         :: -> isotropic ES            0.129178325122 Eh    ::
         :: -> anisotropic ES         -0.003630022527 Eh    ::
         :: -> anisotropic XC          0.015076781655 Eh    ::
         :: -> dispersion             -0.022624586695 Eh    ::
         :: repulsion energy           0.520263567234 Eh    ::
         :: add. restraining           0.000000000000 Eh    ::
         :: total charge               1.000000000000 e     ::
         :::::::::::::::::::::::::::::::::::::::::::::::::::::

      ----------------------------------------------------------- 
     |                   =====================                   |
     |                        A N C O P T                        |
     |                   =====================                   |
     |               Approximate Normal Coordinate               |
     |                Rational Function Optimizer                |
      ----------------------------------------------------------- 

          ...................................................
          :                      SETUP                      :
          :.................................................:
          :   optimization level             crude          :
          :   max. optcycles                   200          :
          :   ANC micro-cycles                  20          :
          :   degrees of freedom                69          :
          :.................................................:
          :   RF solver                   davidson          :
          :   write xtbopt.log                true          :
          :   linear?                        false          :
          :   energy convergence         0.5000000E-03 Eh   :
          :   grad. convergence          0.1000000E-01 Eh/α :
          :   maxmium RF displ.          1.0000000          :
          :   Hlow (freq-cutoff)         0.1000000E-01      :
          :   Hmax (freq-cutoff)         5.0000000          :
          :   S6 in model hess.         20.0000000          :
          ...................................................

generating ANC from model Hessian ...
Using Lindh-Hessian (1995)
 Shifting diagonal of input Hessian by    6.9301051345614243E-003
 Lowest  eigenvalues of input Hessian
    0.000000    0.000000    0.000000    0.000000    0.000000    0.000000
    0.010000    0.010838    0.011915    0.016018    0.016618    0.018091
    0.018565    0.019072    0.025221    0.028521    0.035860    0.039517
 Highest eigenvalues
    2.004473    2.099415    2.176321    2.260826    2.392705    2.495958


........................................................................
.............................. CYCLE    1 ..............................
........................................................................

 iter      E             dE          RMSdq      gap      omega  full diag
   1    -42.7605213 -0.427605E+02  0.103E-06    3.52       0.0  T
   2    -42.7605213  0.852651E-13  0.712E-07    3.52   28094.7  T
   3    -42.7605213  0.923706E-13  0.384E-07    3.52   52077.7  T
     SCC iter.                  ...        0 min,  0.005 sec
     gradient                   ...        0 min,  0.013 sec
 * total energy  :   -42.2401549 Eh     change       -0.7105427E-14 Eh
   gradient norm :     0.0029201 Eh/α   predicted     0.0000000E+00 (-100.00%)
   displ. norm   :     0.0530529 α      lambda       -0.8501956E-04
   maximum displ.:     0.0366669 α      in ANC's #7, #4, #10, ...

   *** GEOMETRY OPTIMIZATION CONVERGED AFTER 1 ITERATIONS ***

------------------------------------------------------------------------
 total energy gain   :        -0.0000000 Eh       -0.0000 kcal/mol
 total RMSD          :         0.0000000 a0        0.0000 Å
 total power (kW/mol):        -0.0000000 (step)   -0.0000 (real)
------------------------------------------------------------------------

 ANCopt (total)                0 d,  0 h,  0 min,  0.034 sec
 optimizer setup                ...        0 min,  0.000 sec (  1.065%)
 model hessian                  ...        0 min,  0.008 sec ( 22.227%)
 ANC generation                 ...        0 min,  0.001 sec (  2.577%)
 coordinate transformation      ...        0 min,  0.000 sec (  0.027%)
 single point calculation       ...        0 min,  0.023 sec ( 68.740%)
 optimization log               ...        0 min,  0.002 sec (  4.518%)
 hessian update                 ...        0 min,  0.000 sec (  0.005%)
 rational function              ...        0 min,  0.000 sec (  0.286%)

================
 final structure:
================
25
 xtb: 6.6.1 (8d0f1dd)
C            3.34156038484694        1.30660019074051        0.01902680083371
N            2.42988805603162        0.19400314342546        0.00003731851707
C            2.73698123038207       -1.11639018030881       -0.00453138466034
N            1.67682848899454       -1.90014214863803       -0.00605272655735
C            0.63419149418525       -1.06206477976484       -0.00094878558160
C            1.06190900440941        0.26503871368309        0.00350096952609
C            0.15014335516548        1.36687783586396       -0.00241318364858
O            0.38103524990168        2.54491429174688       -0.01083526713345
N           -1.21161980508387        0.88866777263159       -0.00008186116157
C           -2.25998607890224        1.89814803941608       -0.00066733280132
C           -1.57933508294558       -0.39697791906550       -0.00074060315204
O           -2.87270427458071       -0.63154202388730       -0.00050952282663
N           -0.69668885278834       -1.40158202642112       -0.00230905285339
C           -1.06341425064975       -2.80671531533848       -0.00601728786313
H            3.84573599010526        1.36483457993792        0.98501002071840
H            4.09255399164916        1.18765879454923       -0.76138487334722
H            2.78364373086337        2.22660918484289       -0.14608937018018
H            3.73423125227820       -1.50469065601378       -0.00834460263236
H           -1.77493291541666        2.87254819198908        0.00685814291031
H           -2.87778579403285        1.79901574120356       -0.89171886650532
H           -2.88769375631853        1.78913367869022        0.88215832336646
H           -1.62609941098047       -3.06850512525020        0.89135611031602
H           -1.62981589929809       -3.06274223854921       -0.90285932788012
H           -3.10439576972021       -1.57468440389123       -0.00156816862324
H           -0.12379882399563       -3.35977479999197       -0.00970385088020

 Bond Distances (Angstroems)
 ---------------------------
C1-N2=1.4385         C1-H15=1.0912        C1-H16=1.0896        C1-H17=1.0886        N2-C1=1.4385         N2-C3=1.3459         
N2-C6=1.3698         C3-N2=1.3459         C3-N4=1.3184         C3-H18=1.0702        N4-C3=1.3184         N4-C5=1.3377         
C5-N4=1.3377         C5-C6=1.3943         C5-N13=1.3735        C6-N2=1.3698         C6-C5=1.3943         C6-C7=1.4302         
C7-C6=1.4302         C7-O8=1.2005         C7-N9=1.4433         O8-C7=1.2005         N9-C7=1.4433         N9-C10=1.4554        
N9-C11=1.3372        C10-N9=1.4554        C10-H19=1.0885       C10-H20=1.0888       C10-H21=1.0887       C11-N9=1.3372        
C11-O12=1.3145       C11-N13=1.3373       O12-C11=1.3145       O12-H24=0.9712       N13-C5=1.3735        N13-C11=1.3373       
N13-C14=1.4522       C14-N13=1.4522       C14-H22=1.0911       C14-H23=1.0912       C14-H25=1.0903       H15-C1=1.0912        
H16-C1=1.0896        H17-C1=1.0886        H18-C3=1.0702        H19-C10=1.0885       H20-C10=1.0888       H21-C10=1.0887       
H22-C14=1.0911       H23-C14=1.0912       H24-O12=0.9712       H25-C14=1.0903       
 C  H  Rav=1.0878 sigma=0.0060  Rmin=1.0702  Rmax=1.0912    10
 C  C  Rav=1.4123 sigma=0.0179  Rmin=1.3943  Rmax=1.4302     2
 N  C  Rav=1.3827 sigma=0.0512  Rmin=1.3184  Rmax=1.4554    11
 O  H  Rav=0.9712 sigma=0.0000  Rmin=0.9712  Rmax=0.9712     1
 O  C  Rav=1.2575 sigma=0.0570  Rmin=1.2005  Rmax=1.3145     2

 selected bond angles (degree)
 --------------------
H15-C1-N2=110.23               H16-C1-N2=110.06               H16-C1-H15=108.75              H17-C1-N2=109.08               
H17-C1-H15=109.03              H17-C1-H16=109.69              C3-N2-C1=127.48                C6-N2-C1=126.35                
C6-N2-C3=106.16                N4-C3-N2=113.29                H18-C3-N2=124.46               H18-C3-N4=122.25               
C5-N4-C3=104.73                C6-C5-N4=110.93                N13-C5-N4=126.90               N13-C5-C6=122.18               
C5-C6-N2=104.89                C7-C6-N2=132.58                C7-C6-C5=122.53                O8-C7-C6=129.30                
N9-C7-C6=110.26                N9-C7-O8=120.44                C10-N9-C7=116.73               C11-N9-C7=125.31               
C11-N9-C10=117.96              H19-C10-N9=107.45              H20-C10-N9=110.24              H20-C10-H19=109.88             
H21-C10-N9=110.21              H21-C10-H19=109.94             H21-C10-H20=109.11             

 selected dihedral angles (degree)
 ---------------------------------
C3-N2-C1-H15=290.51           C3-N2-C1-H16= 50.45           C3-N2-C1-H17=170.83           C6-N2-C1-H15=109.43           
C6-N2-C1-H16=229.38           C6-N2-C1-H17=349.76           N4-C3-N2-C1=179.18            N4-C3-N2-C6=  0.08            
H18-C3-N2-C1=359.08           H18-C3-N2-C6=179.98           C5-N4-C3-N2=359.94            C5-N4-C3-H18=180.04           
C6-C5-N4-C3=  0.00            N13-C5-N4-C3=179.89           C5-C6-N2-C1=180.82            C5-C6-N2-C3=359.93            
C7-C6-N2-C1=  1.50            C7-C6-N2-C3=180.62            N2-C6-C5-N4=  0.03            N2-C6-C5-N13=180.15           
C7-C6-C5-N4=179.44            C7-C6-C5-N13=359.55           O8-C7-C6-N2=359.91            O8-C7-C6-C5=180.69            
N9-C7-C6-N2=179.77            N9-C7-C6-C5=  0.55            C10-N9-C7-C6=179.79           C10-N9-C7-O8=359.66           
C11-N9-C7-C6=359.61           C11-N9-C7-O8=179.49           H19-C10-N9-C7=359.46          H19-C10-N9-C11=179.62         
H20-C10-N9-C7=119.18          H20-C10-N9-C11=299.34         H21-C10-N9-C7=239.68          H21-C10-N9-C11= 59.84         
           -------------------------------------------------
          |                Final Singlepoint                |
           -------------------------------------------------

          ...................................................
          :                      SETUP                      :
          :.................................................:
          :  # basis functions                  67          :
          :  # atomic orbitals                  67          :
          :  # shells                           39          :
          :  # electrons                        74          :
          :  max. iterations                   250          :
          :  Hamiltonian                  GFN2-xTB          :
          :  restarted?                      false          :
          :  GBSA solvation                  false          :
          :  PC potential                    false          :
          :  electronic temp.         5000.0000000     K    :
          :  accuracy                    1.0000000          :
          :  -> integral cutoff          0.2500000E+02      :
          :  -> integral neglect         0.1000000E-07      :
          :  -> SCF convergence          0.1000000E-05 Eh   :
          :  -> wf. convergence          0.1000000E-03 e    :
          :  Broyden damping             0.4000000          :
          ...................................................

 iter      E             dE          RMSdq      gap      omega  full diag
   1    -42.7605213 -0.427605E+02  0.107E-07    3.52       0.0  T
   2    -42.7605213 -0.781597E-13  0.637E-08    3.52  100000.0  T
   3    -42.7605213  0.710543E-13  0.423E-08    3.52  100000.0  T

   *** convergence criteria satisfied after 3 iterations ***

         #    Occupation            Energy/Eh            Energy/eV
      -------------------------------------------------------------
         1        2.0000           -0.9362916             -25.4778
       ...           ...                  ...                  ...
        31        1.9996           -0.6211066             -16.9012
        32        1.9995           -0.6170099             -16.7897
        33        1.9979           -0.5936254             -16.1534
        34        1.9955           -0.5813981             -15.8206
        35        1.9930           -0.5744551             -15.6317
        36        1.9748           -0.5540631             -15.0768
        37        1.9738           -0.5534730             -15.0608 (HOMO)
        38        0.0415           -0.4240165             -11.5381 (LUMO)
        39        0.0246           -0.4155685             -11.3082
        40        0.0005           -0.3522354              -9.5848
        41        0.0000           -0.2849994              -7.7552
        42                         -0.2170587              -5.9065
       ...                                ...                  ...
        67                          0.5607528              15.2589
      -------------------------------------------------------------
                  HL-Gap            0.1294564 Eh            3.5227 eV
             Fermi-level           -0.4850282 Eh          -13.1983 eV

 SCC (total)                   0 d,  0 h,  0 min,  0.023 sec
 SCC setup                      ...        0 min,  0.000 sec (  0.804%)
 Dispersion                     ...        0 min,  0.000 sec (  0.806%)
 classical contributions        ...        0 min,  0.000 sec (  0.308%)
 integral evaluation            ...        0 min,  0.005 sec ( 21.735%)
 iterations                     ...        0 min,  0.005 sec ( 20.565%)
 molecular gradient             ...        0 min,  0.013 sec ( 55.170%)
 printout                       ...        0 min,  0.000 sec (  0.551%)

         :::::::::::::::::::::::::::::::::::::::::::::::::::::
         ::                     SUMMARY                     ::
         :::::::::::::::::::::::::::::::::::::::::::::::::::::
         :: total energy             -42.240154860422 Eh    ::
         :: gradient norm              0.002920071252 Eh/a0 ::
         :: HOMO-LUMO gap              3.522689256877 eV    ::
         ::.................................................::
         :: SCC energy               -42.760521313734 Eh    ::
         :: -> isotropic ES            0.129178311507 Eh    ::
         :: -> anisotropic ES         -0.003630019333 Eh    ::
         :: -> anisotropic XC          0.015076781986 Eh    ::
         :: -> dispersion             -0.022624586622 Eh    ::
         :: repulsion energy           0.520263567234 Eh    ::
         :: add. restraining           0.000000000000 Eh    ::
         :: total charge               1.000000000000 e     ::
         :::::::::::::::::::::::::::::::::::::::::::::::::::::

           -------------------------------------------------
          |                Property Printout                |
           -------------------------------------------------

    * Orbital Energies and Occupations

         #    Occupation            Energy/Eh            Energy/eV
      -------------------------------------------------------------
         1        2.0000           -0.9362916             -25.4778
       ...           ...                  ...                  ...
        25        2.0000           -0.6586962             -17.9240
        26        2.0000           -0.6577931             -17.8995
        27        1.9999           -0.6501968             -17.6928
        28        1.9999           -0.6435670             -17.5123
        29        1.9999           -0.6422429             -17.4763
        30        1.9997           -0.6241572             -16.9842
        31        1.9996           -0.6211066             -16.9012
        32        1.9995           -0.6170099             -16.7897
        33        1.9979           -0.5936254             -16.1534
        34        1.9955           -0.5813981             -15.8206
        35        1.9930           -0.5744551             -15.6317
        36        1.9748           -0.5540631             -15.0768
        37        1.9738           -0.5534730             -15.0608 (HOMO)
        38        0.0415           -0.4240165             -11.5381 (LUMO)
        39        0.0246           -0.4155685             -11.3082
        40        0.0005           -0.3522354              -9.5848
        41        0.0000           -0.2849994              -7.7552
        42                         -0.2170587              -5.9065
        43                         -0.1706231              -4.6429
        44                         -0.1378720              -3.7517
        45                         -0.1266219              -3.4456
        46                         -0.0735603              -2.0017
        47                         -0.0547290              -1.4893
        48                         -0.0355729              -0.9680
       ...                                ...                  ...
        67                          0.5607528              15.2589
      -------------------------------------------------------------
                  HL-Gap            0.1294564 Eh            3.5227 eV
             Fermi-level           -0.4850282 Eh          -13.1983 eV

     #   Z          covCN         q      C6AA      α(0)
     1   6 C        3.689    -0.079    22.218     6.746
     2   7 N        2.842     0.040    20.539     6.731
     3   6 C        3.215     0.095    25.258     8.176
     4   7 N        1.897    -0.239    27.086     7.716
     5   6 C        3.234     0.116    24.664     8.060
     6   6 C        3.113    -0.023    28.414     8.732
     7   6 C        2.761     0.266    22.518     7.771
     8   8 O        0.857    -0.342    20.562     6.080
     9   7 N        2.746    -0.047    22.157     6.991
    10   6 C        3.706    -0.074    22.073     6.716
    11   6 C        2.754     0.275    22.350     7.742
    12   8 O        1.662    -0.309    19.172     5.911
    13   7 N        2.739    -0.026    21.742     6.925
    14   6 C        3.698    -0.083    22.254     6.747
    15   1 H        0.924     0.098     1.807     2.102
    16   1 H        0.925     0.097     1.814     2.106
    17   1 H        0.925     0.114     1.666     2.018
    18   1 H        0.927     0.102     1.770     2.080
    19   1 H        0.925     0.129     1.545     1.944
    20   1 H        0.925     0.101     1.778     2.085
    21   1 H        0.925     0.101     1.777     2.085
    22   1 H        0.924     0.093     1.847     2.125
    23   1 H        0.924     0.093     1.847     2.125
    24   1 H        0.804     0.365     0.554     1.170
    25   1 H        0.924     0.139     1.471     1.896

 Mol. C6AA /au·bohr⁶  :       6508.226189
 Mol. C8AA /au·bohr⁸  :     149517.280742
 Mol. α(0) /au        :        122.781530


Wiberg/Mayer (AO) data.
largest (>0.10) Wiberg bond orders for each atom

 ---------------------------------------------------------------------------
     #   Z sym  total        # sym  WBO       # sym  WBO       # sym  WBO
 ---------------------------------------------------------------------------
     1   6 C    3.930 --     2 N    0.990    17 H    0.970    16 H    0.966
                            15 H    0.960
     2   7 N    3.673 --     3 C    1.315     6 C    1.187     1 C    0.990
     3   6 C    3.930 --     4 N    1.461     2 N    1.315    18 H    0.957
     4   7 N    3.015 --     3 C    1.461     5 C    1.325
     5   6 C    3.937 --     4 N    1.325     6 C    1.313    13 N    1.088
     6   6 C    3.932 --     5 C    1.313     2 N    1.187     7 C    1.117
     7   6 C    3.937 --     8 O    1.732     6 C    1.117     9 N    0.984
     8   8 O    2.084 --     7 C    1.732     9 N    0.127
     9   7 N    3.592 --    11 C    1.303     7 C    0.984    10 C    0.967
                             8 O    0.127
    10   6 C    3.910 --     9 N    0.967    21 H    0.965    20 H    0.964
                            19 H    0.963
    11   6 C    3.922 --     9 N    1.303    13 N    1.280    12 O    1.185
    12   8 O    2.233 --    11 C    1.185    24 H    0.834
    13   7 N    3.601 --    11 C    1.280     5 C    1.088    14 C    0.967
    14   6 C    3.917 --    13 N    0.967    23 H    0.967    22 H    0.966
                            25 H    0.961
    15   1 H    0.987 --     1 C    0.960
    16   1 H    0.988 --     1 C    0.966
    17   1 H    0.986 --     1 C    0.970
    18   1 H    0.988 --     3 C    0.957
    19   1 H    0.983 --    10 C    0.963
    20   1 H    0.987 --    10 C    0.964
    21   1 H    0.987 --    10 C    0.965
    22   1 H    0.989 --    14 C    0.966
    23   1 H    0.989 --    14 C    0.967
    24   1 H    0.866 --    12 O    0.834
    25   1 H    0.980 --    14 C    0.961
 ---------------------------------------------------------------------------

Topologies differ in total number of bonds
Writing topology from bond orders to xtbtopo.mol

molecular dipole:
                 x           y           z       tot (Debye)
 q only:       -0.680      -1.414       0.009
   full:       -0.706      -1.516       0.016       4.250
molecular quadrupole (traceless):
                xx          xy          yy          xz          yz          zz
 q only:       22.958       8.997      -3.361       0.103       0.102     -19.597
  q+dip:       24.271      11.282      -8.650       0.152       0.110     -15.621
   full:       23.713      11.653      -9.411       0.152       0.115     -14.303

           -------------------------------------------------
          |                Geometry Summary                 |
           -------------------------------------------------

      molecular mass/u    :      195.1988581
   center of mass at/Å    :        0.1416983      -0.0428364      -0.0008638
  moments of inertia/u·Å² :        0.4724208E+03   0.7229472E+03   0.1185771E+04
rotational constants/cm⁻¹ :        0.3568351E-01   0.2331793E-01   0.1421660E-01

 * 25 selected distances

     #   Z          #   Z                                           value/Å
     1   6 C        2   7 N                                       1.4385338
     2   7 N        3   6 C                                       1.3459042
     3   6 C        4   7 N                                       1.3184057
     4   7 N        5   6 C                                       1.3377189
     2   7 N        6   6 C                                       1.3698267
     5   6 C        6   6 C                                       1.3943336
     6   6 C        7   6 C                                       1.4301753
     7   6 C        8   8 O                                       1.2004800
     9   7 N       10   6 C                                       1.4553773 (max)
     9   7 N       11   6 C                                       1.3371986
    11   6 C       12   8 O                                       1.3144674
     5   6 C       13   7 N                                       1.3735052
    11   6 C       13   7 N                                       1.3372721
    13   7 N       14   6 C                                       1.4522056
     1   6 C       15   1 H                                       1.0911957
     1   6 C       16   1 H                                       1.0895784
     1   6 C       17   1 H                                       1.0885546
     3   6 C       18   1 H                                       1.0701867
    10   6 C       19   1 H                                       1.0884802
    10   6 C       20   1 H                                       1.0887960
    10   6 C       21   1 H                                       1.0887068
    14   6 C       22   1 H                                       1.0910672
    14   6 C       23   1 H                                       1.0911858
    12   8 O       24   1 H                                       0.9711847 (min)
    14   6 C       25   1 H                                       1.0903053

 * 5 distinct bonds (by element types)

   Z      Z             #   av. dist./Å        max./Å        min./Å
   1 H    6 C          10     1.0878057     1.0911957     1.0701867
   6 C    6 C           2     1.4122544     1.4301753     1.3943336
   6 C    7 N          10     1.3765948     1.4553773     1.3184057
   1 H    8 O           1     0.9711847     0.9711847     0.9711847
   6 C    8 O           2     1.2574737     1.3144674     1.2004800


optimized geometry written to: xtbopt.xyz


           -------------------------------------------------
          | TOTAL ENERGY              -42.240154860422 Eh   |
          | GRADIENT NORM               0.002920071252 Eh/α |
          | HOMO-LUMO GAP               3.522689256877 eV   |
           -------------------------------------------------

------------------------------------------------------------------------
 * finished run on 2024/06/05 at 20:00:21.876     
------------------------------------------------------------------------
 total:
 * wall-time:     0 d,  0 h,  0 min,  0.126 sec
 *  cpu-time:     0 d,  0 h,  0 min,  0.097 sec
 * ratio c/w:     0.768 speedup
 SCF:
 * wall-time:     0 d,  0 h,  0 min,  0.026 sec
 *  cpu-time:     0 d,  0 h,  0 min,  0.026 sec
 * ratio c/w:     0.994 speedup
 ANC optimizer:
 * wall-time:     0 d,  0 h,  0 min,  0.064 sec
 *  cpu-time:     0 d,  0 h,  0 min,  0.057 sec
 * ratio c/w:     0.898 speedup

