25
 energy: -43.829572481654 gnorm: 0.160174642349 xtb: 6.6.1 (8d0f1dd)
C            3.28351037579879        1.17056374828670        0.08997304092885
N            2.32829487094340        0.10765984627414        0.03385884823980
C            2.61177356132552       -1.24657410805036        0.02900041718079
N            1.39801069145687       -1.93327385069047       -0.00446916183194
C            0.40966593783999       -1.02637989797251       -0.01145882746607
C            0.93528318583553        0.25982465476112        0.00819060875115
C            0.05387911888264        1.36583915609498        0.01028693208104
O            0.46167673567949        2.57915504626879        0.00554851335593
N           -1.34803807988552        1.02684794560761       -0.03356152095644
C           -2.29613949443240        2.12804075230699       -0.04969522796499
C           -1.91083898828917       -0.20866751006152       -0.05809000969793
O           -3.05080491064342       -0.40719576637528       -0.07435871907018
N           -0.94901227954320       -1.26571992345148       -0.03666565448832
C           -1.45523888696649       -2.62502184941067       -0.05721154615283
H            3.73821219418531        1.22456738829664        1.07247097758141
H            4.09217165928353        1.01147515293592       -0.65280774980448
H            2.79297466608236        2.09829653239038       -0.11700308459697
H            3.58503664431651       -1.69081241008285        0.03826698357847
H           -1.69727769570407        3.03575119794883       -0.02495653512973
H           -2.91132638746125        2.11079692230850       -0.94970299694446
H           -2.96029245793784        2.09238126090792        0.81273852402854
H           -1.14041928799447       -3.17365262890337        0.83485323363148
H           -1.11654335843273       -3.15781584218773       -0.95076829605779
H           -2.53221022222533       -2.53003800826723       -0.07221336083462
H            1.32553955809914       -2.93788764581692       -0.01838439479234
25
 energy: -43.837455588278 gnorm: 0.039773577100 xtb: 6.6.1 (8d0f1dd)
C            3.27824182464406        1.16926399709435        0.09003490631788
N            2.31689370087956        0.11163256383271        0.03090649985062
C            2.59945678378356       -1.24268506206139        0.02922486951526
N            1.39761872267577       -1.92805408911595       -0.00387872606299
C            0.39980823067487       -1.03047676824193       -0.01256211349678
C            0.92543938330332        0.25620687793833        0.00659886842350
C            0.06593625677582        1.37710171349060        0.00175910055833
O            0.44009402657363        2.57039359699224        0.00582736766484
N           -1.32541348951728        1.03586781837289       -0.03283168882087
C           -2.27597092404938        2.13583685214741       -0.04911883317129
C           -1.88166397710984       -0.20637262674986       -0.05180668099263
O           -3.06362836400211       -0.41647137911274       -0.07598536025046
N           -0.94456035515845       -1.27536532800562       -0.03735282175542
C           -1.45431070615977       -2.62926183897716       -0.05796776733031
H            3.73999731237423        1.22391528871013        1.07826291717199
H            4.07482125943527        1.00907801602934       -0.65078800854755
H            2.77348763863086        2.10449925799828       -0.11763568367864
H            3.56913549488413       -1.68417852015129        0.03793095723886
H           -1.68966630395047        3.05186474836701       -0.02547070425672
H           -2.89099411989269        2.10256811923187       -0.95021409885082
H           -2.93959950736077        2.08579777046390        0.81547221004067
H           -1.14003779532606       -3.17565808625988        0.83442355528709
H           -1.11625184978997       -3.15966079998046       -0.95162529053703
H           -2.53776629531832       -2.54634993728552       -0.07210538010529
H            1.32682020321318       -2.93133202160913       -0.01725710064389
25
 energy: -43.837377576142 gnorm: 0.023193964933 xtb: 6.6.1 (8d0f1dd)
C            3.29813453366347        1.15994909723514        0.08460383690503
N            2.32365650867593        0.11127966571186        0.02598405595293
C            2.60483830046256       -1.24688056794852        0.02949600232701
N            1.40346120863804       -1.92588723484263       -0.00313300025169
C            0.39926929759951       -1.03050847376494       -0.01121372869740
C            0.92686703511313        0.25428096310964        0.01052955036408
C            0.07213462264842        1.38537563497975        0.00715076563537
O            0.43737658708092        2.56591523668001        0.01004740180071
N           -1.32563807807933        1.04219336140188       -0.03168867745419
C           -2.30058139541367        2.12728432883801       -0.04961742120050
C           -1.86557935037170       -0.20359999626310       -0.05458429542344
O           -3.06059235546891       -0.42197263871785       -0.07999685661210
N           -0.94124059562558       -1.27330458027165       -0.03762669608695
C           -1.45563108328458       -2.61958735852590       -0.05654360283147
H            3.75128133374589        1.21832814918174        1.07879402857858
H            4.09886020312905        1.00077830978865       -0.64597672462210
H            2.80161892755903        2.10342553344879       -0.12364849845738
H            3.57563640231665       -1.68993538155210        0.03631356275027
H           -1.72134287354653        3.04411400060910       -0.02199938554125
H           -2.91969043592678        2.09794458469932       -0.94956617689513
H           -2.97303726763989        2.07665770329106        0.80999246901162
H           -1.14782908315580       -3.16627117092284        0.83775724359759
H           -1.12155307563318       -3.15185549133344       -0.95001558630537
H           -2.53935229267353       -2.52006067398593       -0.07246675232795
H            1.32682007640003       -2.92950283772790       -0.01875052064791
25
 energy: -43.838227596258 gnorm: 0.011335661662 xtb: 6.6.1 (8d0f1dd)
C            3.28429573724448        1.16599782590413        0.08589132847850
N            2.31890681120286        0.11053872094509        0.02688700005636
C            2.60363912283217       -1.24820359068321        0.03043451658651
N            1.40187367249341       -1.92855396885826       -0.00327436840782
C            0.39449026120362       -1.03465172329374       -0.01160012473788
C            0.92218189066899        0.24916378536410        0.01067508549488
C            0.07241275735740        1.38320707462761        0.00473536189516
O            0.44035142128128        2.56343977829600        0.00466664494324
N           -1.32752975776513        1.03831736083182       -0.03249334585994
C           -2.28726283222532        2.13396724251268       -0.04984338121638
C           -1.86824253403787       -0.20549430066673       -0.05339942199397
O           -3.06160511306383       -0.41859938062622       -0.07461374830633
N           -0.94778427285963       -1.27768309552518       -0.03776944925920
C           -1.45383517416820       -2.62737877170177       -0.05763962991785
H            3.73695076954647        1.22739534026014        1.07921874661800
H            4.08185111147864        1.01604605325996       -0.64969805790108
H            2.77927794728487        2.10532669243287       -0.11678666218286
H            3.57655225239148       -1.68833465687095        0.03780124285970
H           -1.68933086887448        3.03900028374371       -0.02619712026968
H           -2.90585926382376        2.11232016653723       -0.94954572883605
H           -2.95349359088903        2.09554719538652        0.81418065171008
H           -1.13977145527174       -3.17492156144314        0.83416934190261
H           -1.11658698497003       -3.15786340587105       -0.95131935260565
H           -2.53788388463055       -2.53766660226028       -0.07200447810749
H            1.32428912780705       -2.93275629918319       -0.01863405737449
25
 energy: -43.838243955051 gnorm: 0.009831348058 xtb: 6.6.1 (8d0f1dd)
C            3.28491949342280        1.16561801053212        0.08774431705468
N            2.31792940170228        0.11402538748073        0.02937132536014
C            2.60112464345627       -1.24422039196308        0.03068917046948
N            1.40007248443120       -1.92497715709439       -0.00345152597841
C            0.39436402685675       -1.03025142433405       -0.01258921529474
C            0.92200089217506        0.25395595812073        0.00925202439615
C            0.07230952691772        1.38657375575528        0.00291912329027
O            0.43916884397085        2.57173488439558        0.00852288856875
N           -1.32809501432933        1.03751207278246       -0.03339912379918
C           -2.28335024328899        2.13298697619611       -0.04923374720242
C           -1.87102759666875       -0.20494336985877       -0.05471920252084
O           -3.06079807030063       -0.41510062842742       -0.07688743972819
N           -0.94935473968587       -1.27539343777642       -0.03860051156023
C           -1.45457237305800       -2.62675430316967       -0.05755006301115
H            3.74394105291148        1.22205672891797        1.07785630457470
H            4.07771947597213        1.00250804495115       -0.65148079096882
H            2.78417187353593        2.10547505417463       -0.11749303048024
H            3.57277542405417       -1.68389582546057        0.03743998637058
H           -1.69859179311740        3.04907469916599       -0.02345057133249
H           -2.89615061991206        2.09738216210872       -0.95132474967369
H           -2.94661105508422        2.07800729561605        0.81509130543727
H           -1.14118997330435       -3.17289967193685        0.83543668127034
H           -1.11641960291082       -3.15882164676886       -0.95024947689229
H           -2.53855595486541       -2.54239113354275       -0.07260862571131
H            1.32210704733235       -2.92910187674657       -0.01744405906997
25
 energy: -43.838384756281 gnorm: 0.002885647251 xtb: 6.6.1 (8d0f1dd)
C            3.28574751958214        1.16568825253817        0.08752364510179
N            2.31968999467400        0.11243848516037        0.02736065283717
C            2.60318711500020       -1.24624931207480        0.02964502603969
N            1.40280825045755       -1.92701085583384       -0.00413522953975
C            0.39607445895622       -1.03274937254455       -0.01225473690218
C            0.92301042923406        0.25128154089840        0.00890606724425
C            0.07306891777969        1.38411190326618        0.00330007898281
O            0.43875425073926        2.56752956425739        0.00585212739020
N           -1.32907228451169        1.03682755912836       -0.03220457605635
C           -2.28615912119750        2.13308351675386       -0.04965697324830
C           -1.86940137148800       -0.20660837708901       -0.05221907482746
O           -3.06076422682350       -0.41865554187575       -0.07499450515983
N           -0.94759476672021       -1.27638958521275       -0.03726008613858
C           -1.45503877408641       -2.62579631371791       -0.05745864223624
H            3.74056956356181        1.22434776172671        1.07972763355144
H            4.08343995677693        1.00918047743712       -0.64753456855202
H            2.78267332398500        2.10456855075263       -0.11878520109627
H            3.57476096482821       -1.68632623279587        0.03662876019355
H           -1.69797732614970        3.04616939589638       -0.02568830294548
H           -2.90241752392691        2.10331241408484       -0.94989725789093
H           -2.95169224224153        2.08668831722754        0.81367614452067
H           -1.14276813656562       -3.17354847308887        0.83492905351376
H           -1.11914571095068       -3.15666921066376       -0.95166655253130
H           -2.53879872747111       -2.53582108883151       -0.07169952589646
H            1.32493261677096       -2.93124321228117       -0.01825296278580
25
 energy: -43.838360177115 gnorm: 0.003957557078 xtb: 6.6.1 (8d0f1dd)
C            3.28627119213302        1.16488666177434        0.08535217388092
N            2.31931380407340        0.11208385121801        0.02798808916988
C            2.60200824270999       -1.24697784462832        0.03155998785018
N            1.40155692917627       -1.92683508382291       -0.00225541680343
C            0.39500024922453       -1.03233537504041       -0.01130233051362
C            0.92227067573773        0.25135683404325        0.01103271650332
C            0.07344566042991        1.38476262714706        0.00571762143008
O            0.43909700921791        2.56713035668599        0.00900736918287
N           -1.32987919985525        1.03766343795111       -0.03306707022959
C           -2.28777666804133        2.13330094980758       -0.04916120387669
C           -1.86939331297938       -0.20581144125706       -0.05592404271072
O           -3.06155906089042       -0.41737780271585       -0.07981671344847
N           -0.94834946034803       -1.27582722437567       -0.03844901741043
C           -1.45302272006797       -2.62621315566055       -0.05755164995533
H            3.74383656574087        1.22351279084222        1.07634160972790
H            4.08129254103335        1.00919682287997       -0.65280111275042
H            2.78358556879400        2.10467073486015       -0.11838173438779
H            3.57358004922384       -1.68765351007187        0.03873095818724
H           -1.69612109466273        3.04345265390526       -0.02241914265431
H           -2.90416470030197        2.10833394685273       -0.94979097614306
H           -2.95455913125437        2.08731661438954        0.81362817027982
H           -1.14001334195466       -3.17196907421231        0.83584218311778
H           -1.11383367881094       -3.15811183322661       -0.94987887126519
H           -2.53713932791562       -2.53939281210004       -0.07361983912499
H            1.32244035980101       -2.93100296212746       -0.01694076448758
25
 energy: -43.838394917042 gnorm: 0.001265802929 xtb: 6.6.1 (8d0f1dd)
C            3.28585605409475        1.16542238726486        0.08729258387946
N            2.31945088374146        0.11250425688068        0.02779616711866
C            2.60244165330821       -1.24635366001921        0.03026821116313
N            1.40214231965159       -1.92661145693020       -0.00392569376702
C            0.39540115292802       -1.03232784186361       -0.01222606432076
C            0.92251635877909        0.25157778310748        0.00962397671454
C            0.07400440777944        1.38492486331474        0.00376605292357
O            0.43957519297259        2.56775901849693        0.00615837341233
N           -1.32937068266436        1.03734304857275       -0.03280563944433
C           -2.28682691409311        2.13268423930545       -0.04971488975216
C           -1.86920599568563       -0.20596752140247       -0.05341274342350
O           -3.06100008274486       -0.41711484503548       -0.07555285653393
N           -0.94823567151878       -1.27594492146146       -0.03786851889977
C           -1.45437825565370       -2.62596724161399       -0.05738479338687
H            3.74150443376538        1.22380062004076        1.07911666191888
H            4.08221210163704        1.00889362681582       -0.64933567968587
H            2.78360405284215        2.10507189013612       -0.11751360631316
H            3.57425124479594       -1.68649583804839        0.03719524514325
H           -1.69668071652710        3.04413396677911       -0.02526083661657
H           -2.90328891458929        2.10392765315475       -0.95012019885378
H           -2.95223298634548        2.08621338704091        0.81400031410170
H           -1.14113549466835       -3.17320672757779        0.83501469503460
H           -1.11763509132199       -3.15748966402709       -0.95088498279407
H           -2.53837523969644       -2.53783034112886       -0.07175711825301
H            1.32329333942658       -2.93078651868363       -0.01862766579696
25
 energy: -43.838379504634 gnorm: 0.002539611904 xtb: 6.6.1 (8d0f1dd)
C            3.28525959737791        1.16580300745131        0.08593836756736
N            2.31969358216681        0.11234263691275        0.02742046158893
C            2.60320485402396       -1.24625841396952        0.03062024083547
N            1.40328634251005       -1.92713179440639       -0.00235853815513
C            0.39618941593291       -1.03313920616565       -0.01143243137241
C            0.92262488415444        0.25113048140347        0.00967808837444
C            0.07387460966628        1.38405341880356        0.00474363323817
O            0.43845893578907        2.56764304875418        0.00845821947782
N           -1.32980724738954        1.03657634672122       -0.03201093034616
C           -2.28572630461731        2.13329761764317       -0.04902488947318
C           -1.86928772462728       -0.20705156177194       -0.05347720186103
O           -3.06054747831167       -0.41857841216005       -0.07709400308762
N           -0.94774083873942       -1.27654737625273       -0.03745658348667
C           -1.45516683581819       -2.62597920150582       -0.05808120715773
H            3.74038554950764        1.22590715777381        1.07783676133703
H            4.08276960075951        1.00838746494420       -0.64937772450207
H            2.78200627291700        2.10423220102659       -0.12147561244085
H            3.57520706571307       -1.68589458810039        0.03727406091650
H           -1.69763772698248        3.04649351247429       -0.02338622046375
H           -2.90085448865258        2.10463573870725       -0.95008733854703
H           -2.95205979548400        2.08614719913978        0.81372218868178
H           -1.14429680510079       -3.17377558570719        0.83484663459715
H           -1.11812500631518       -3.15702505072937       -0.95181067748727
H           -2.53888261112595       -2.53571178753401       -0.07386886294554
H            1.32505930285890       -2.93139669033437       -0.01575544171985
25
 energy: -43.838394712051 gnorm: 0.001085825163 xtb: 6.6.1 (8d0f1dd)
C            3.28562151847758        1.16542433417219        0.08679281159677
N            2.31960452489082        0.11231986014585        0.02752788952378
C            2.60274723928915       -1.24638622990358        0.03022043103569
N            1.40275611598644       -1.92691634130663       -0.00337908981151
C            0.39584678191345       -1.03278817800349       -0.01193068234447
C            0.92246173405369        0.25138369320882        0.00949804376310
C            0.07390292543173        1.38439912669388        0.00415974216932
O            0.43854069192985        2.56777633592077        0.00730394133025
N           -1.33000583156655        1.03689601689305       -0.03249509893662
C           -2.28629562435533        2.13327754739990       -0.04940347580840
C           -1.86942000223930       -0.20672583792524       -0.05354677957237
O           -3.06086072664573       -0.41816251601122       -0.07671646147389
N           -0.94796907172865       -1.27624294236209       -0.03764642882980
C           -1.45450161900003       -2.62602324778637       -0.05749464014416
H            3.74136246591550        1.22421707924847        1.07851059770233
H            4.08257730932413        1.00877999199994       -0.64927227380405
H            2.78275975769434        2.10445144110897       -0.11899883893183
H            3.57461810271442       -1.68634684519331        0.03709470591695
H           -1.69757196326046        3.04594315200253       -0.02433555235310
H           -2.90217315838576        2.10476873123278       -0.95004470614782
H           -2.95224354604678        2.08662993922558        0.81373594953283
H           -1.14228530208299       -3.17316918254669        0.83535344459234
H           -1.11740242812846       -3.15724308300364       -0.95108500525339
H           -2.53834783371075       -2.53695797899620       -0.07255707320870
H            1.32416508974284       -2.93114470309616       -0.01745045697486
25
 energy: -43.797983425206 gnorm: 0.313535342568 xtb: 6.6.1 (8d0f1dd)
C            3.33138535265547        1.16550891324656        0.09456691100292
N            2.36544421533687        0.13111124011871        0.02429997177220
C            2.63693684443298       -1.28419463763214        0.02634731383846
N            1.35731162594441       -1.92185788561588       -0.01258249530946
C            0.42151323194304       -0.98907810324117       -0.01687305712813
C            0.94193653482121        0.30615995494438       -0.00151542110128
C           -0.00958345379636        1.39658524952289        0.03834934034846
O            0.40569205335570        2.59872079561424        0.01786233521718
N           -1.45051258550878        1.01070529181245       -0.03549775196410
C           -2.37630729791052        2.11137562283626       -0.04845533140219
C           -2.00344182152406       -0.21772763342434       -0.07501214747067
O           -3.09225266231644       -0.44970385586468       -0.08120926232399
N           -0.96195337614117       -1.22335257933935       -0.03776011001279
C           -1.43639229386703       -2.60657932328736       -0.05355502826006
H            3.76606913573949        1.23099792751883        1.07735375643834
H            4.17488068441039        0.98692167837521       -0.62618035181674
H            2.88560182992100        2.09663164080743       -0.14742348034510
H            3.59009572773255       -1.74832529964014        0.03103116877606
H           -1.73566073180843        2.98623810287551       -0.02294578182844
H           -2.99746903435538        2.13212781436717       -0.94366863803057
H           -3.04344623909637        2.11196631964199        0.81056167074447
H           -1.11035816542403       -3.15142728689933        0.83919167652660
H           -1.08690143986293       -3.14153050008917       -0.94443775196157
H           -2.50118458428513       -2.51289407619349       -0.06936983338342
H            1.27022120373600       -2.92794677515910       -0.02448277311245
25
 energy: -43.826793660653 gnorm: 0.057404378414 xtb: 6.6.1 (8d0f1dd)
C            3.32264995378769        1.15709222101969        0.09167039627940
N            2.33654690614611        0.12627468691617        0.02141364109969
C            2.60369481257394       -1.26015605061621        0.02736581674349
N            1.36607964211994       -1.91521444528320       -0.01174384113404
C            0.40209076663487       -0.99701314972382       -0.01825655395648
C            0.92623423136844        0.29008600319718       -0.00129839712341
C            0.01752342487973        1.39603247218249        0.01863594637345
O            0.37676140018017        2.58751001061427        0.02287932528554
N           -1.39925025418261        1.02850589043367       -0.03275837298672
C           -2.34889722132883        2.12482455121301       -0.04766245434424
C           -1.94674864098218       -0.21224819352463       -0.06122685604624
O           -3.11544469118263       -0.45909441530748       -0.08525326777444
N           -0.95085393222543       -1.24382849643201       -0.03899575671730
C           -1.43355582592802       -2.61296547235763       -0.05501648421355
H            3.76518771954195        1.22588822295388        1.08589957700033
H            4.15085300328566        0.97699096691813       -0.62185250612808
H            2.86584618609306        2.10433139920054       -0.15065924921939
H            3.56281453209233       -1.72274430817338        0.03007695013384
H           -1.73935479258885        3.02339553095863       -0.02377808856707
H           -2.97481958297854        2.11925551920415       -0.94439625876673
H           -3.02112216700217        2.10129802358578        0.81370639626292
H           -1.10970551669061       -3.15161294281884        0.83904281032526
H           -1.08647967159465       -3.14234068760428       -0.94622750575125
H           -2.51265655600922       -2.53477217744759       -0.06925221459158
H            1.28423102812232       -2.91906256381302       -0.02371812296964
25
 energy: -43.827952696811 gnorm: 0.021193291028 xtb: 6.6.1 (8d0f1dd)
C            3.33934745481238        1.15026691076880        0.08539773759357
N            2.33923241953584        0.12199192077375        0.01629284133195
C            2.60191333865628       -1.25779602018215        0.02589435397510
N            1.37408554581335       -1.90834875491067       -0.00982840308869
C            0.39474088779278       -0.99313153014107       -0.01599259786325
C            0.92647910113485        0.28867467066016        0.00648776081287
C            0.02336017117108        1.39934057613412        0.02528282150452
O            0.36825743880108        2.58525610372842        0.02301292289986
N           -1.39391134120008        1.03380412115074       -0.03250886896072
C           -2.36825271914914        2.11623868231222       -0.04805708410947
C           -1.92190561911439       -0.21195107454743       -0.06591572193934
O           -3.10172961829976       -0.46591061049004       -0.09229523164128
N           -0.94892355144493       -1.24444651863106       -0.03986157795342
C           -1.43412994840439       -2.60363033752933       -0.05288692731287
H            3.77421027467144        1.22367823169470        1.08605215444104
H            4.16648356836502        0.97630650217629       -0.62013850161916
H            2.88245287273644        2.10401557929912       -0.15139335451002
H            3.56308358709803       -1.73414944752022        0.02657188368103
H           -1.75406882406496        3.00674648369199       -0.01874205667150
H           -2.99348728129178        2.11430420903327       -0.94609842228537
H           -3.04476761366130        2.09029711421489        0.81125410716675
H           -1.11929056154385       -3.14366290859840        0.84306130769064
H           -1.09276158026520       -3.13571587345947       -0.94351262055080
H           -2.51538667583984       -2.51017392061080       -0.06969451581571
H            1.27659342782351       -2.91157151372234       -0.02378707756199
25
 energy: -43.828151105362 gnorm: 0.018578755242 xtb: 6.6.1 (8d0f1dd)
C            3.32661556365755        1.15591448301985        0.08673603192795
N            2.33243926961505        0.11958290170936        0.01606642627818
C            2.59872146199287       -1.25629850178313        0.02779564193968
N            1.37669770901410       -1.90963040123149       -0.01225279092411
C            0.38421601153845       -0.99775747803932       -0.01938507979589
C            0.91952180711218        0.28247180440007        0.00422003688475
C            0.02523904971115        1.39851552007689        0.01825854602690
O            0.37010071793465        2.58196773634216        0.01790147199628
N           -1.39400050280659        1.03300030400068       -0.03288850287958
C           -2.35526028762589        2.12677067413444       -0.04830550134396
C           -1.91833427019465       -0.21304302607232       -0.06055328601530
O           -3.10195239854159       -0.46116134453186       -0.07896258759487
N           -0.95918142161731       -1.25171562880888       -0.04088753416228
C           -1.43022952238001       -2.61340467099028       -0.05531749955478
H            3.75646385574733        1.23367305304282        1.08981339119350
H            4.14860284085192        0.98635224801644       -0.61978455989342
H            2.85926272515457        2.10700815726512       -0.14734283377828
H            3.56372401484922       -1.73284258330978        0.03302976329313
H           -1.72378448829563        3.00508429889384       -0.02709966586843
H           -2.98052091138840        2.12869625733423       -0.94454512030734
H           -3.02218705750588        2.11401004442542        0.81667661727866
H           -1.10569209173345       -3.15502956855629        0.83624215401024
H           -1.08598015954811       -3.14225574132885       -0.94703206862864
H           -2.51389934506223       -2.53592464942670       -0.06848704343743
H            1.27104218365320       -2.91355129328695       -0.02530107743121
25
 energy: -43.828599797677 gnorm: 0.006543985357 xtb: 6.6.1 (8d0f1dd)
C            3.33131345592428        1.15473925473153        0.08750564734159
N            2.33539923493939        0.12308801249125        0.01865899633420
C            2.60162156656763       -1.25424986601711        0.02682865229703
N            1.37876700209149       -1.90957743508309       -0.01058058970329
C            0.38874570868199       -0.99640302291547       -0.01812990040530
C            0.92209485916994        0.28623889118042        0.00330713683978
C            0.02481441190810        1.40063488664135        0.01903514552259
O            0.37326288737255        2.58708532924205        0.02747037699111
N           -1.39743784424338        1.03251119702799       -0.03359062360616
C           -2.35728157722242        2.12516541827680       -0.04820139258536
C           -1.92454823627644       -0.21263082567938       -0.06449657719477
O           -3.10605299027656       -0.45838859585488       -0.08582003129715
N           -0.95897615367232       -1.24850290960145       -0.04099368839631
C           -1.43323711548160       -2.61061805355249       -0.05420702392637
H            3.76791258913567        1.22582834782846        1.08676559931959
H            4.14998144637416        0.97222123667872       -0.62257927820232
H            2.87040999954364        2.10641824947664       -0.14929890584607
H            3.56586983523789       -1.72568691862289        0.02848566299876
H           -1.74411155603832        3.01938836107835       -0.02152818409364
H           -2.97834533670396        2.11626639184784       -0.94641364521088