      -----------------------------------------------------------      
     |                   =====================                   |     
     |                           x T B                           |     
     |                   =====================                   |     
     |                         S. Grimme                         |     
     |          Mulliken Center for Theoretical Chemistry        |     
     |                    University of Bonn                     |     
      -----------------------------------------------------------      

   * xtb version 6.6.1 (8d0f1dd) compiled by 'conda@1efc2f54142f' on 2023-08-01

   xtb is free software: you can redistribute it and/or modify it under
   the terms of the GNU Lesser General Public License as published by
   the Free Software Foundation, either version 3 of the License, or
   (at your option) any later version.
   
   xtb is distributed in the hope that it will be useful,
   but WITHOUT ANY WARRANTY; without even the implied warranty of
   MERCHANTABILITY or FITNESS FOR A PARTICULAR PURPOSE.  See the
   GNU Lesser General Public License for more details.
   
   Cite this work as:
   * C. Bannwarth, E. Caldeweyher, S. Ehlert, A. Hansen, P. Pracht,
     J. Seibert, S. Spicher, S. Grimme, WIREs Comput. Mol. Sci., 2020, 11,
     e01493. DOI: 10.1002/wcms.1493
   
   for GFN2-xTB:
   * C. Bannwarth, S. Ehlert and S. Grimme., J. Chem. Theory Comput., 2019,
     15, 1652-1671. DOI: 10.1021/acs.jctc.8b01176
   for GFN1-xTB:
   * S. Grimme, C. Bannwarth, P. Shushkov, J. Chem. Theory Comput., 2017,
     13, 1989-2009. DOI: 10.1021/acs.jctc.7b00118
   for GFN0-xTB:
   * P. Pracht, E. Caldeweyher, S. Ehlert, S. Grimme, ChemRxiv, 2019, preprint.
     DOI: 10.26434/chemrxiv.8326202.v1
   for GFN-FF:
   * S. Spicher and S. Grimme, Angew. Chem. Int. Ed., 2020, 59, 15665-15673.
     DOI: 10.1002/anie.202004239
   
   for ALPB and GBSA implicit solvation:
   * S. Ehlert, M. Stahn, S. Spicher, S. Grimme, J. Chem. Theory Comput.,
     2021, 17, 4250-4261. DOI: 10.1021/acs.jctc.1c00471
   
   for DFT-D4:
   * E. Caldeweyher, C. Bannwarth and S. Grimme, J. Chem. Phys., 2017,
     147, 034112. DOI: 10.1063/1.4993215
   * E. Caldeweyher, S. Ehlert, A. Hansen, H. Neugebauer, S. Spicher,
     C. Bannwarth and S. Grimme, J. Chem. Phys., 2019, 150, 154122.
     DOI: 10.1063/1.5090222
   * E. Caldeweyher, J.-M. Mewes, S. Ehlert and S. Grimme, Phys. Chem. Chem. Phys.
     2020, 22, 8499-8512. DOI: 10.1039/D0CP00502A
   
   for sTDA-xTB:
   * S. Grimme and C. Bannwarth, J. Chem. Phys., 2016, 145, 054103.
     DOI: 10.1063/1.4959605
   
   in the mass-spec context:
   * V. Asgeirsson, C. Bauer and S. Grimme, Chem. Sci., 2017, 8, 4879.
     DOI: 10.1039/c7sc00601b
   * J. Koopman and S. Grimme, ACS Omega 2019, 4, 12, 15120-15133.
     DOI: 10.1021/acsomega.9b02011
   
   for metadynamics refer to:
   * S. Grimme, J. Chem. Theory Comput., 2019, 155, 2847-2862
     DOI: 10.1021/acs.jctc.9b00143
   
   for SPH calculations refer to:
   * S. Spicher and S. Grimme, J. Chem. Theory Comput., 2021, 17, 1701-1714
     DOI: 10.1021/acs.jctc.0c01306
   
   with help from (in alphabetical order)
   P. Atkinson, C. Bannwarth, F. Bohle, G. Brandenburg, E. Caldeweyher
   M. Checinski, S. Dohm, S. Ehlert, S. Ehrlich, I. Gerasimov, C. Hölzer
   A. Katbashev, J. Koopman, C. Lavigne, S. Lehtola, F. März, M. Müller,
   F. Musil, H. Neugebauer, J. Pisarek, C. Plett, P. Pracht, F. Pultar,
   J. Seibert, P. Shushkov, S. Spicher, M. Stahn, M. Steiner, T. Strunk,
   J. Stückrath, T. Rose, and J. Unsleber
   
 * started run on 2024/06/05 at 19:57:57.376     

           -------------------------------------------------
          |                Calculation Setup                |
           -------------------------------------------------

          program call               : xtb xtbopt.xyz --opt crude --input .xc2 --gfn2
          hostname                   : n-62-21-71
          coordinate file            : xtbopt.xyz
          omp threads                :                     1

   ID    Z sym.   atoms
    1    6 C      1, 3, 5-7, 10, 11, 14
    2    7 N      2, 4, 9, 13
    3    8 O      8, 12
    4    1 H      15-25
########################################################################
[WARNING] Please study the warnings concerning your input carefully
-1- readin_getIntValue: could not parse ''
########################################################################

           -------------------------------------------------
          |                 G F N 2 - x T B                 |
           -------------------------------------------------

        Reference                      10.1021/acs.jctc.8b01176
      * Hamiltonian:
        H0-scaling (s, p, d)           1.850000    2.230000    2.230000
        zeta-weighting                 0.500000
      * Dispersion:
        s8                             2.700000
        a1                             0.520000
        a2                             5.000000
        s9                             5.000000
      * Repulsion:
        kExp                           1.500000    1.000000
        rExp                           1.000000
      * Coulomb:
        alpha                          2.000000
        third order                    shell-resolved
        anisotropic                    true
        a3                             3.000000
        a5                             4.000000
        cn-shift                       1.200000
        cn-exp                         4.000000
        max-rad                        5.000000

q/qsh data taken from xtbrestart
CAMM data taken from xtbrestart

          ...................................................
          :                      SETUP                      :
          :.................................................:
          :  # basis functions                  67          :
          :  # atomic orbitals                  67          :
          :  # shells                           39          :
          :  # electrons                        74          :
          :  max. iterations                   250          :
          :  Hamiltonian                  GFN2-xTB          :
          :  restarted?                       true          :
          :  GBSA solvation                  false          :
          :  PC potential                    false          :
          :  electronic temp.         2500.0000000     K    :
          :  accuracy                    1.0000000          :
          :  -> integral cutoff          0.2500000E+02      :
          :  -> integral neglect         0.1000000E-07      :
          :  -> SCF convergence          0.1000000E-05 Eh   :
          :  -> wf. convergence          0.1000000E-03 e    :
          :  Broyden damping             0.4000000          :
          ...................................................

 iter      E             dE          RMSdq      gap      omega  full diag
   1    -42.5947513 -0.425948E+02  0.101E-05    1.70       0.0  T
   2    -42.5947513 -0.376588E-12  0.621E-06    1.70    3219.3  T
   3    -42.5947513 -0.270006E-12  0.381E-06    1.70    5249.7  T

   *** convergence criteria satisfied after 3 iterations ***

         #    Occupation            Energy/Eh            Energy/eV
      -------------------------------------------------------------
         1        2.0000           -0.9393173             -25.5601
       ...           ...                  ...                  ...
        31        2.0000           -0.5993103             -16.3081
        32        2.0000           -0.5813955             -15.8206
        33        2.0000           -0.5615611             -15.2809
        34        2.0000           -0.5431460             -14.7798
        35        2.0000           -0.5412118             -14.7271
        36        1.9952           -0.4923202             -13.3967
        37        1.9643           -0.4762820             -12.9603 (HOMO)
        38        0.0399           -0.4137313             -11.2582 (LUMO)
        39        0.0006           -0.3802613             -10.3474
        40        0.0000           -0.3547852              -9.6542
        41                         -0.2574923              -7.0067
        42                         -0.2198412              -5.9822
       ...                                ...                  ...
        67                          5.6834400             154.6543
      -------------------------------------------------------------
                  HL-Gap            0.0625507 Eh            1.7021 eV
             Fermi-level           -0.4445595 Eh          -12.0971 eV

 SCC (total)                   0 d,  0 h,  0 min,  0.037 sec
 SCC setup                      ...        0 min,  0.000 sec (  0.612%)
 Dispersion                     ...        0 min,  0.000 sec (  0.755%)
 classical contributions        ...        0 min,  0.000 sec (  0.212%)
 integral evaluation            ...        0 min,  0.005 sec ( 13.830%)
 iterations                     ...        0 min,  0.006 sec ( 14.889%)
 molecular gradient             ...        0 min,  0.026 sec ( 69.258%)
 printout                       ...        0 min,  0.000 sec (  0.408%)

         :::::::::::::::::::::::::::::::::::::::::::::::::::::
         ::                     SUMMARY                     ::
         :::::::::::::::::::::::::::::::::::::::::::::::::::::
         :: total energy             -40.206252714698 Eh    ::
         :: gradient norm             11.296359876543 Eh/a0 ::
         :: HOMO-LUMO gap              1.702092169232 eV    ::
         ::.................................................::
         :: SCC energy               -42.594751256538 Eh    ::
         :: -> isotropic ES            0.120326810714 Eh    ::
         :: -> anisotropic ES         -0.004414435174 Eh    ::
         :: -> anisotropic XC          0.011959284759 Eh    ::
         :: -> dispersion             -0.022684448216 Eh    ::
         :: repulsion energy           2.388398023708 Eh    ::
         :: add. restraining           0.000000000000 Eh    ::
         :: total charge               1.000000000001 e     ::
         :::::::::::::::::::::::::::::::::::::::::::::::::::::

      ----------------------------------------------------------- 
     |                   =====================                   |
     |                        A N C O P T                        |
     |                   =====================                   |
     |               Approximate Normal Coordinate               |
     |                Rational Function Optimizer                |
      ----------------------------------------------------------- 

          ...................................................
          :                      SETUP                      :
          :.................................................:
          :   optimization level             crude          :
          :   max. optcycles                   200          :
          :   ANC micro-cycles                  20          :
          :   degrees of freedom                69          :
          :.................................................:
          :   RF solver                   davidson          :
          :   write xtbopt.log                true          :
          :   linear?                        false          :
          :   energy convergence         0.5000000E-03 Eh   :
          :   grad. convergence          0.1000000E-01 Eh/α :
          :   maxmium RF displ.          1.0000000          :
          :   Hlow (freq-cutoff)         0.1000000E-01      :
          :   Hmax (freq-cutoff)         5.0000000          :
          :   S6 in model hess.         20.0000000          :
          ...................................................

generating ANC from model Hessian ...
Using Lindh-Hessian (1995)
 Shifting diagonal of input Hessian by    8.3459155339786865E-003
 Lowest  eigenvalues of input Hessian
    0.000000    0.000000    0.000000    0.000000    0.000000    0.000000
    0.010000    0.012025    0.013073    0.014371    0.015961    0.017184
    0.019626    0.022791    0.028313    0.029228    0.034165    0.035985
 Highest eigenvalues
    2.159545    2.234864    2.350671    2.447849    3.958811    6.039794


........................................................................
.............................. CYCLE    1 ..............................
........................................................................

 iter      E             dE          RMSdq      gap      omega  full diag
   1    -42.5947513 -0.425948E+02  0.133E-06    1.70       0.0  T
   2    -42.5947513 -0.106581E-12  0.876E-07    1.70   22826.1  T
   3    -42.5947513  0.213163E-13  0.557E-07    1.70   35929.0  T
     SCC iter.                  ...        0 min,  0.006 sec
     gradient                   ...        0 min,  0.037 sec
 * total energy  :   -40.2062527 Eh     change       -0.7105427E-14 Eh
   gradient norm :    11.2963599 Eh/α   predicted     0.0000000E+00 (-100.00%)
   displ. norm   :     0.8434312 α      lambda       -0.9514915E+01
   maximum displ.:     0.8227785 α      in ANC's #68, #48, #69, ...

........................................................................
.............................. CYCLE    2 ..............................
........................................................................

 iter      E             dE          RMSdq      gap      omega  full diag
   1    -42.5631700 -0.425632E+02  0.106E+00    1.23       0.0  T
   2    -42.5660876 -0.291753E-02  0.644E-01    1.77       1.0  T
   3    -42.5637959  0.229171E-02  0.454E-01    1.19       1.0  T
   4    -42.5683198 -0.452399E-02  0.149E-01    1.60       1.0  T
   5    -42.5685988 -0.278932E-03  0.596E-02    1.49       1.0  T
   6    -42.5686563 -0.575542E-04  0.206E-02    1.49       1.0  T
   7    -42.5686559  0.413438E-06  0.912E-03    1.50       2.2  T
   8    -42.5686573 -0.135962E-05  0.300E-03    1.50       6.7  T
   9    -42.5686574 -0.160285E-06  0.713E-04    1.50      28.0  T
  10    -42.5686574 -0.539141E-08  0.298E-04    1.49      67.1  T
     SCC iter.                  ...        0 min,  0.021 sec
     gradient                   ...        0 min,  0.026 sec
 * total energy  :   -42.0426685 Eh     change       -0.1836416E+01 Eh
   gradient norm :     0.2515535 Eh/α   predicted    -0.8144876E+01 ( 343.52%)
   displ. norm   :     0.4632326 α      lambda       -0.5803077E-01
   maximum displ.:     0.2704074 α      in ANC's #3, #48, #13, ...

........................................................................
.............................. CYCLE    3 ..............................
........................................................................

 iter      E             dE          RMSdq      gap      omega  full diag
   1    -42.5457847 -0.425458E+02  0.359E-01    1.57       0.0  T
   2    -42.5458842 -0.995267E-04  0.215E-01    1.55       1.0  T
   3    -42.5458652  0.190220E-04  0.587E-02    1.56       1.0  T
   4    -42.5459259 -0.607021E-04  0.238E-02    1.54       1.0  T
   5    -42.5459283 -0.240608E-05  0.106E-02    1.55       1.9  T
   6    -42.5459285 -0.237747E-06  0.522E-03    1.55       3.8  T
   7    -42.5459289 -0.363084E-06  0.184E-03    1.55      10.8  T
   8    -42.5459289 -0.305032E-07  0.732E-04    1.55      27.3  T
   9    -42.5459289 -0.313757E-08  0.354E-04    1.55      56.4  T
     SCC iter.                  ...        0 min,  0.025 sec
     gradient                   ...        0 min,  0.034 sec
 * total energy  :   -42.0601420 Eh     change       -0.1747354E-01 Eh
   gradient norm :     0.0710487 Eh/α   predicted    -0.3525575E-01 ( 101.77%)
   displ. norm   :     0.1705309 α      lambda       -0.5192401E-02
   maximum displ.:     0.0558812 α      in ANC's #30, #5, #4, ...

........................................................................
.............................. CYCLE    4 ..............................
........................................................................

 iter      E             dE          RMSdq      gap      omega  full diag
   1    -42.5528111 -0.425528E+02  0.894E-02    1.57       0.0  T
   2    -42.5528250 -0.139414E-04  0.506E-02    1.54       1.0  T
   3    -42.5528114  0.136047E-04  0.299E-02    1.58       1.0  T
   4    -42.5528308 -0.193934E-04  0.753E-03    1.55       2.7  T
   5    -42.5528315 -0.710961E-06  0.236E-03    1.55       8.5  T
   6    -42.5528316 -0.909374E-07  0.845E-04    1.55      23.7  T
   7    -42.5528316 -0.411713E-08  0.437E-04    1.55      45.8  T
     SCC iter.                  ...        0 min,  0.021 sec
     gradient                   ...        0 min,  0.018 sec
 * total energy  :   -42.0643244 Eh     change       -0.4182409E-02 Eh
   gradient norm :     0.0505925 Eh/α   predicted    -0.2665561E-02 ( -36.27%)
   displ. norm   :     0.2980185 α      lambda       -0.1074308E-01
   maximum displ.:     0.1078213 α      in ANC's #3, #4, #30, ...

........................................................................
.............................. CYCLE    5 ..............................
........................................................................

 iter      E             dE          RMSdq      gap      omega  full diag
   1    -42.5603836 -0.425604E+02  0.153E-01    1.60       0.0  T
   2    -42.5604161 -0.325010E-04  0.880E-02    1.56       1.0  T
   3    -42.5603847  0.313751E-04  0.488E-02    1.61       1.0  T
   4    -42.5604304 -0.456811E-04  0.111E-02    1.57       1.8  T
   5    -42.5604315 -0.108272E-05  0.485E-03    1.58       4.1  T
   6    -42.5604320 -0.455066E-06  0.175E-03    1.57      11.5  T
   7    -42.5604320 -0.159366E-07  0.719E-04    1.58      27.8  T
   8    -42.5604320 -0.194309E-08  0.219E-04    1.57      91.1  T
     SCC iter.                  ...        0 min,  0.013 sec
     gradient                   ...        0 min,  0.013 sec
 * total energy  :   -42.0675313 Eh     change       -0.3206906E-02 Eh
   gradient norm :     0.0351160 Eh/α   predicted    -0.2986079E-02 (  -6.89%)
   displ. norm   :     0.2225684 α      lambda       -0.2832930E-02
   maximum displ.:     0.1278463 α      in ANC's #3, #4, #9, ...

........................................................................
.............................. CYCLE    6 ..............................
........................................................................

 iter      E             dE          RMSdq      gap      omega  full diag
   1    -42.5599176 -0.425599E+02  0.901E-02    1.58       0.0  T
   2    -42.5599312 -0.136072E-04  0.511E-02    1.58       1.0  T
   3    -42.5599283  0.285817E-05  0.345E-02    1.57       1.0  T
   4    -42.5599414 -0.130565E-04  0.512E-03    1.58       3.9  T
   5    -42.5599414 -0.289553E-07  0.329E-03    1.58       6.1  T
   6    -42.5599415 -0.111702E-06  0.106E-03    1.58      18.9  T
   7    -42.5599415 -0.207348E-07  0.353E-04    1.58      56.7  T
   8    -42.5599415 -0.369774E-09  0.180E-04    1.58     110.9  T
     SCC iter.                  ...        0 min,  0.011 sec
     gradient                   ...        0 min,  0.013 sec
 * total energy  :   -42.0681612 Eh     change       -0.6298379E-03 Eh
   gradient norm :     0.0277278 Eh/α   predicted    -0.5257510E-03 ( -16.53%)
   displ. norm   :     0.1753045 α      lambda       -0.1554648E-02
   maximum displ.:     0.1144828 α      in ANC's #3, #4, #1, ...

........................................................................
.............................. CYCLE    7 ..............................
........................................................................

 iter      E             dE          RMSdq      gap      omega  full diag
   1    -42.5613751 -0.425614E+02  0.718E-02    1.57       0.0  T
   2    -42.5613855 -0.103654E-04  0.403E-02    1.59       1.0  T
   3    -42.5613882 -0.270594E-05  0.297E-02    1.57       1.0  T
   4    -42.5613975 -0.929654E-05  0.516E-03    1.58       3.9  T
   5    -42.5613981 -0.585344E-06  0.231E-03    1.58       8.7  T
   6    -42.5613981 -0.321723E-07  0.858E-04    1.58      23.3  T
   7    -42.5613981 -0.275476E-08  0.300E-04    1.58      66.6  T
     SCC iter.                  ...        0 min,  0.010 sec
     gradient                   ...        0 min,  0.013 sec
 * total energy  :   -42.0684364 Eh     change       -0.2752166E-03 Eh
   gradient norm :     0.0252455 Eh/α   predicted    -0.2158636E-03 ( -21.57%)
   displ. norm   :     0.1435717 α      lambda       -0.1859826E-02
   maximum displ.:     0.0971416 α      in ANC's #3, #4, #5, ...

........................................................................
.............................. CYCLE    8 ..............................
........................................................................

 iter      E             dE          RMSdq      gap      omega  full diag
   1    -42.5621017 -0.425621E+02  0.612E-02    1.55       0.0  T
   2    -42.5621104 -0.863666E-05  0.352E-02    1.58       1.0  T
   3    -42.5621136 -0.319835E-05  0.247E-02    1.56       1.0  T
   4    -42.5621208 -0.723580E-05  0.536E-03    1.57       3.7  T
   5    -42.5621213 -0.463443E-06  0.221E-03    1.57       9.0  T
   6    -42.5621213 -0.669396E-07  0.988E-04    1.57      20.2  T
   7    -42.5621213 -0.245577E-08  0.448E-04    1.57      44.6  T
     SCC iter.                  ...        0 min,  0.010 sec
     gradient                   ...        0 min,  0.013 sec
 * total energy  :   -42.0686775 Eh     change       -0.2410898E-03 Eh
   gradient norm :     0.0209950 Eh/α   predicted    -0.1707798E-03 ( -29.16%)
   displ. norm   :     0.1406771 α      lambda       -0.1680648E-02
   maximum displ.:     0.0906099 α      in ANC's #3, #5, #4, ...

........................................................................
.............................. CYCLE    9 ..............................
........................................................................

 iter      E             dE          RMSdq      gap      omega  full diag
   1    -42.5633804 -0.425634E+02  0.631E-02    1.53       0.0  T
   2    -42.5633909 -0.104352E-04  0.402E-02    1.58       1.0  T
   3    -42.5634030 -0.121167E-04  0.249E-02    1.54       1.0  T
   4    -42.5634097 -0.670837E-05  0.639E-03    1.56       3.1  T
   5    -42.5634103 -0.554846E-06  0.251E-03    1.56       8.0  T
   6    -42.5634103 -0.782489E-07  0.102E-03    1.56      19.6  T
   7    -42.5634103 -0.339160E-08  0.511E-04    1.56      39.1  T
   8    -42.5634103 -0.220399E-08  0.180E-04    1.56     111.1  T
     SCC iter.                  ...        0 min,  0.011 sec
     gradient                   ...        0 min,  0.013 sec
 * total energy  :   -42.0688564 Eh     change       -0.1789808E-03 Eh
   gradient norm :     0.0172672 Eh/α   predicted    -0.1320419E-03 ( -26.23%)
   displ. norm   :     0.0327473 α      lambda       -0.7415215E-03
   maximum displ.:     0.0169998 α      in ANC's #4, #30, #8, ...

........................................................................
.............................. CYCLE   10 ..............................
........................................................................

 iter      E             dE          RMSdq      gap      omega  full diag
   1    -42.5636815 -0.425637E+02  0.180E-02    1.54       0.0  T
   2    -42.5636821 -0.637108E-06  0.120E-02    1.56       1.7  T
   3    -42.5636819  0.199908E-06  0.724E-03    1.55       2.8  T
   4    -42.5636830 -0.104187E-05  0.192E-03    1.55      10.4  T
   5    -42.5636830 -0.347247E-07  0.641E-04    1.55      31.2  T
   6    -42.5636830 -0.399591E-08  0.298E-04    1.55      67.1  T
     SCC iter.                  ...        0 min,  0.008 sec
     gradient                   ...        0 min,  0.013 sec
 * total energy  :   -42.0689490 Eh     change       -0.9253465E-04 Eh
   gradient norm :     0.0159220 Eh/α   predicted    -0.5607959E-04 ( -39.40%)
   displ. norm   :     0.0924491 α      lambda       -0.2050346E-02
   maximum displ.:     0.0655418 α      in ANC's #4, #3, #30, ...

........................................................................
.............................. CYCLE   11 ..............................
........................................................................

 iter      E             dE          RMSdq      gap      omega  full diag
   1    -42.5644064 -0.425644E+02  0.367E-02    1.54       0.0  T
   2    -42.5644078 -0.137899E-05  0.215E-02    1.55       1.0  T
   3    -42.5644065  0.131669E-05  0.935E-03    1.54       2.1  T
   4    -42.5644082 -0.171757E-05  0.253E-03    1.55       7.9  T
   5    -42.5644083 -0.939332E-07  0.114E-03    1.54      17.6  T
   6    -42.5644083 -0.678546E-08  0.733E-04    1.54      27.3  T
   7    -42.5644083 -0.553584E-08  0.158E-04    1.54     126.8  T
     SCC iter.                  ...        0 min,  0.010 sec
     gradient                   ...        0 min,  0.013 sec
 * total energy  :   -42.0691081 Eh     change       -0.1591184E-03 Eh
   gradient norm :     0.0125896 Eh/α   predicted    -0.1237665E-03 ( -22.22%)
   displ. norm   :     0.0808149 α      lambda       -0.1164525E-02
   maximum displ.:     0.0544377 α      in ANC's #4, #3, #8, ...

........................................................................
.............................. CYCLE   12 ..............................
........................................................................

 iter      E             dE          RMSdq      gap      omega  full diag
   1    -42.5648594 -0.425649E+02  0.329E-02    1.56       0.0  T
   2    -42.5648614 -0.202435E-05  0.193E-02    1.54       1.0  T
   3    -42.5648617 -0.306593E-06  0.140E-02    1.56       1.4  T
   4    -42.5648646 -0.283889E-05  0.279E-03    1.55       7.2  T
   5    -42.5648647 -0.112915E-06  0.124E-03    1.55      16.1  T
   6    -42.5648647 -0.184680E-07  0.534E-04    1.55      37.5  T
   7    -42.5648647 -0.260179E-09  0.256E-04    1.55      78.0  T
     SCC iter.                  ...        0 min,  0.010 sec
     gradient                   ...        0 min,  0.013 sec
 * total energy  :   -42.0692005 Eh     change       -0.9241539E-04 Eh
   gradient norm :     0.0091055 Eh/α   predicted    -0.6315135E-04 ( -31.67%)
   displ. norm   :     0.0817216 α      lambda       -0.1300754E-02
   maximum displ.:     0.0450660 α      in ANC's #4, #3, #13, ...

   *** GEOMETRY OPTIMIZATION CONVERGED AFTER 12 ITERATIONS ***

------------------------------------------------------------------------
 total energy gain   :        -1.8629478 Eh    -1169.0174 kcal/mol
 total RMSD          :         0.2625684 a0        0.1389 Å
 total power (kW/mol):      -407.5973976 (step)********** (real)
------------------------------------------------------------------------

 ANCopt (total)                0 d,  0 h,  0 min,  0.488 sec
 optimizer setup                ...        0 min,  0.000 sec (  0.073%)
 model hessian                  ...        0 min,  0.006 sec (  1.261%)
 ANC generation                 ...        0 min,  0.001 sec (  0.176%)
 coordinate transformation      ...        0 min,  0.000 sec (  0.019%)
 single point calculation       ...        0 min,  0.449 sec ( 92.109%)
 optimization log               ...        0 min,  0.027 sec (  5.560%)
 hessian update                 ...        0 min,  0.000 sec (  0.028%)
 rational function              ...        0 min,  0.003 sec (  0.636%)

================
 final structure:
================
25
 xtb: 6.6.1 (8d0f1dd)
C            3.29003821798552        1.22213636692926        0.03626663687219
N            2.36793630935149        0.11691757640891        0.00819055983422
C            2.66230322457451       -1.17593765135983       -0.00048270145620
N            1.53136037451086       -1.90774664454818       -0.02790436821812
C            0.47142798778264       -1.04065736931346       -0.02975854651535
C            0.99972911188145        0.24060043906864       -0.01076062004067
C            0.14210402059507        1.40326987592740        0.02199406213619
O            0.49500981409758        2.56420725902265        0.04481306227590
N           -1.20313773161048        1.01411014153861        0.03190832374194
C           -2.13935807025016        2.12320947287298        0.09039841513458
C           -1.72976246867895       -0.22427854022818        0.00289118256079
O           -2.81703675640510       -2.57043788993340        0.05846317319486
N           -0.85407440030493       -1.27435700696580       -0.04216375427525
C           -1.34249818324489       -2.62230003973664        0.05628440809069
H            3.92307384467269        1.16425763895696        0.92157768680583
H            3.92236985678349        1.21337526222021       -0.85145212750065
H            2.71448362362157        2.14760736050220        0.06126264636986
H            3.65367807294845       -1.58380537341392        0.01253028883386
H           -1.91609150458086        2.82835192491993       -0.70978376373640
H           -3.15090890761005        1.74219045732460       -0.00954230446573
H           -2.02724616925644        2.64862130993405        1.03946126565500
H           -3.17515240323751       -2.03647990227476       -0.70315017616259
H           -1.06219223905306       -3.18827276256080       -0.83455041109202
H           -3.06596061328715       -2.07139760187731        0.86350858855519
H            1.47033650281624       -2.91494576181281        0.00117009130080

 Bond Distances (Angstroems)
 ---------------------------
C1-N2=1.4396         C1-H15=1.0899        C1-H16=1.0899        C1-H17=1.0901        N2-C1=1.4396         N2-C3=1.3260         
N2-C6=1.3739         C3-N2=1.3260         C3-N4=1.3473         C3-H18=1.0721        N4-C3=1.3473         N4-C5=1.3694         
N4-H25=1.0095        C5-N4=1.3694         C5-C6=1.3860         C5-N13=1.3460        C6-N2=1.3739         C6-C5=1.3860         
C6-C7=1.4451         C7-C6=1.4451         C7-O8=1.2136         C7-N9=1.4004         O8-C7=1.2136         N9-C7=1.4004         
N9-C10=1.4526        N9-C11=1.3460        C10-N9=1.4526        C10-H19=1.0897       C10-H20=1.0855       C10-H21=1.0906       
C11-N9=1.3460        C11-N13=1.3680       O12-C14=1.4755       O12-H22=0.9967       O12-H24=0.9793       N13-C5=1.3460        
N13-C11=1.3680       N13-C14=1.4371       C14-O12=1.4755       C14-N13=1.4371       C14-H23=1.0920       H15-C1=1.0899        
H16-C1=1.0899        H17-C1=1.0901        H18-C3=1.0721        H19-C10=1.0897       H20-C10=1.0855       H21-C10=1.0906       
H22-O12=0.9967       H23-C14=1.0920       H24-O12=0.9793       H25-N4=1.0095        
 C  H  Rav=1.0875 sigma=0.0061  Rmin=1.0721  Rmax=1.0920     8
 C  C  Rav=1.4156 sigma=0.0295  Rmin=1.3860  Rmax=1.4451     2
 N  H  Rav=1.0095 sigma=0.0000  Rmin=1.0095  Rmax=1.0095     1
 N  C  Rav=1.3824 sigma=0.0416  Rmin=1.3260  Rmax=1.4526    11
 O  H  Rav=0.9880 sigma=0.0087  Rmin=0.9793  Rmax=0.9967     2
 O  C  Rav=1.3445 sigma=0.1309  Rmin=1.2136  Rmax=1.4755     2

 selected bond angles (degree)
 --------------------
H15-C1-N2=110.31               H16-C1-N2=110.46               H16-C1-H15=108.92              H17-C1-N2=108.30               
H17-C1-H15=109.46              H17-C1-H16=109.38              C3-N2-C1=127.33                C6-N2-C1=124.68                
C6-N2-C3=107.98                N4-C3-N2=110.08                H18-C3-N2=125.18               H18-C3-N4=124.74               
C5-N4-C3=107.81                H25-N4-C3=126.31               H25-N4-C5=125.80               C6-C5-N4=106.87                
N13-C5-N4=130.71               N13-C5-C6=122.41               C5-C6-N2=107.25                C7-C6-N2=131.54                
C7-C6-C5=121.19                O8-C7-C6=126.69                N9-C7-C6=110.28                N9-C7-O8=123.03                
C10-N9-C7=114.03               C11-N9-C7=129.15               C11-N9-C10=116.82              H19-C10-N9=109.42              
H20-C10-N9=109.20              H20-C10-H19=110.52             H21-C10-N9=109.67              H21-C10-H19=107.83             
H21-C10-H20=110.18             

 selected dihedral angles (degree)
 ---------------------------------
C3-N2-C1-H15=301.17           C3-N2-C1-H16= 61.63           C3-N2-C1-H17=181.40           C6-N2-C1-H15=120.97           
C6-N2-C1-H16=241.44           C6-N2-C1-H17=  1.20           N4-C3-N2-C1=179.99            N4-C3-N2-C6=  0.15            
H18-C3-N2-C1=  0.00           H18-C3-N2-C6=180.16           C5-N4-C3-N2=359.68            C5-N4-C3-H18=179.67           
H25-N4-C3-N2=182.88           H25-N4-C3-H18=  2.87          C6-C5-N4-C3=  0.36            C6-C5-N4-H25=177.18           
N13-C5-N4-C3=180.57           N13-C5-N4-H25=357.39          C5-C6-N2-C1=180.24            C5-C6-N2-C3=  0.07            
C7-C6-N2-C1=358.38            C7-C6-N2-C3=178.21            N2-C6-C5-N4=359.74            N2-C6-C5-N13=179.54           
C7-C6-C5-N4=181.36            C7-C6-C5-N13=  1.17           O8-C7-C6-N2=  1.83            O8-C7-C6-C5=179.76            
N9-C7-C6-N2=182.16            N9-C7-C6-C5=  0.08            C10-N9-C7-C6=178.89           C10-N9-C7-O8=359.20           
C11-N9-C7-C6=359.31           C11-N9-C7-O8=179.63           H19-C10-N9-C7= 53.10          H19-C10-N9-C11=232.73         
H20-C10-N9-C7=174.18          H20-C10-N9-C11=353.81         H21-C10-N9-C7=295.01          H21-C10-N9-C11=114.64         
           -------------------------------------------------
          |                Final Singlepoint                |
           -------------------------------------------------

          ...................................................
          :                      SETUP                      :
          :.................................................:
          :  # basis functions                  67          :
          :  # atomic orbitals                  67          :
          :  # shells                           39          :
          :  # electrons                        74          :
          :  max. iterations                   250          :
          :  Hamiltonian                  GFN2-xTB          :
          :  restarted?                      false          :
          :  GBSA solvation                  false          :
          :  PC potential                    false          :
          :  electronic temp.         2500.0000000     K    :
          :  accuracy                    1.0000000          :
          :  -> integral cutoff          0.2500000E+02      :
          :  -> integral neglect         0.1000000E-07      :
          :  -> SCF convergence          0.1000000E-05 Eh   :
          :  -> wf. convergence          0.1000000E-03 e    :
          :  Broyden damping             0.4000000          :
          ...................................................

 iter      E             dE          RMSdq      gap      omega  full diag
   1    -42.5648647 -0.425649E+02  0.830E-05    1.55       0.0  T
   2    -42.5648647 -0.417941E-10  0.574E-05    1.55     348.5  T
   3    -42.5648647 -0.567226E-10  0.276E-05    1.55     724.4  T

   *** convergence criteria satisfied after 3 iterations ***

         #    Occupation            Energy/Eh            Energy/eV
      -------------------------------------------------------------
         1        2.0000           -0.9073452             -24.6901
       ...           ...                  ...                  ...
        31        2.0000           -0.5994183             -16.3110
        32        2.0000           -0.5852144             -15.9245
        33        2.0000           -0.5633044             -15.3283
        34        2.0000           -0.5443156             -14.8116
        35        2.0000           -0.5430232             -14.7764
        36        1.9982           -0.4979346             -13.5495
        37        1.9467           -0.4707430             -12.8096 (HOMO)
        38        0.0541           -0.4138958             -11.2627 (LUMO)
        39        0.0010           -0.3822593             -10.4018
        40        0.0000           -0.3558535              -9.6833
        41                         -0.2588835              -7.0446
        42                         -0.2086590              -5.6779
       ...                                ...                  ...
        67                          0.5523115              15.0292
      -------------------------------------------------------------
                  HL-Gap            0.0568473 Eh            1.5469 eV
             Fermi-level           -0.4422649 Eh          -12.0346 eV

 SCC (total)                   0 d,  0 h,  0 min,  0.036 sec
 SCC setup                      ...        0 min,  0.000 sec (  0.527%)
 Dispersion                     ...        0 min,  0.000 sec (  0.513%)
 classical contributions        ...        0 min,  0.000 sec (  0.215%)
 integral evaluation            ...        0 min,  0.005 sec ( 13.688%)
 iterations                     ...        0 min,  0.005 sec ( 13.013%)
 molecular gradient             ...        0 min,  0.026 sec ( 71.657%)
 printout                       ...        0 min,  0.000 sec (  0.345%)

         :::::::::::::::::::::::::::::::::::::::::::::::::::::
         ::                     SUMMARY                     ::
         :::::::::::::::::::::::::::::::::::::::::::::::::::::
         :: total energy             -42.069200512327 Eh    ::
         :: gradient norm              0.009107398482 Eh/a0 ::
         :: HOMO-LUMO gap              1.546892425687 eV    ::
         ::.................................................::
         :: SCC energy               -42.564864718027 Eh    ::
         :: -> isotropic ES            0.127098655577 Eh    ::
         :: -> anisotropic ES         -0.009561095060 Eh    ::
         :: -> anisotropic XC          0.013306806239 Eh    ::
         :: -> dispersion             -0.022744132504 Eh    ::
         :: repulsion energy           0.495558065377 Eh    ::
         :: add. restraining           0.000000000000 Eh    ::
         :: total charge               1.000000000000 e     ::
         :::::::::::::::::::::::::::::::::::::::::::::::::::::

           -------------------------------------------------
          |                Property Printout                |
           -------------------------------------------------

    * Orbital Energies and Occupations

         #    Occupation            Energy/Eh            Energy/eV
      -------------------------------------------------------------
         1        2.0000           -0.9073452             -24.6901
       ...           ...                  ...                  ...
        25        2.0000           -0.6469849             -17.6054
        26        2.0000           -0.6447563             -17.5447
        27        2.0000           -0.6304543             -17.1555
        28        2.0000           -0.6198952             -16.8682
        29        2.0000           -0.6180905             -16.8191
        30        2.0000           -0.6038693             -16.4321
        31        2.0000           -0.5994183             -16.3110
        32        2.0000           -0.5852144             -15.9245
        33        2.0000           -0.5633044             -15.3283
        34        2.0000           -0.5443156             -14.8116
        35        2.0000           -0.5430232             -14.7764
        36        1.9982           -0.4979346             -13.5495
        37        1.9467           -0.4707430             -12.8096 (HOMO)
        38        0.0541           -0.4138958             -11.2627 (LUMO)
        39        0.0010           -0.3822593             -10.4018
        40        0.0000           -0.3558535              -9.6833
        41                         -0.2588835              -7.0446
        42                         -0.2086590              -5.6779
        43                         -0.1760389              -4.7903
        44                         -0.1554043              -4.2288
        45                         -0.1007396              -2.7413
        46                         -0.0939566              -2.5567
        47                         -0.0740935              -2.0162
        48                         -0.0346133              -0.9419
       ...                                ...                  ...
        67                          0.5523115              15.0292
      -------------------------------------------------------------
                  HL-Gap            0.0568473 Eh            1.5469 eV
             Fermi-level           -0.4422649 Eh          -12.0346 eV

     #   Z          covCN         q      C6AA      α(0)
     1   6 C        3.691    -0.088    22.381     6.770
     2   7 N        2.836     0.071    20.012     6.644
     3   6 C        3.060     0.059    26.612     8.460
     4   7 N        2.794    -0.068    22.546     7.052
     5   6 C        3.062     0.105    25.613     8.299
     6   6 C        3.125    -0.014    28.178     8.692
     7   6 C        2.774     0.256    22.691     7.802
     8   8 O        0.857    -0.413    21.941     6.280
     9   7 N        2.752    -0.021    21.659     6.912
    10   6 C        3.720    -0.059    21.758     6.662
    11   6 C        1.888    -0.171    36.025     9.694
    12   8 O        2.444    -0.225    17.702     5.682
    13   7 N        2.744    -0.012    21.485     6.884
    14   6 C        2.699    -0.117    30.936     9.103
    15   1 H        0.925     0.099     1.792     2.093
    16   1 H        0.925     0.100     1.788     2.091
    17   1 H        0.925     0.135     1.498     1.914
    18   1 H        0.926     0.116     1.648     2.007
    19   1 H        0.925     0.088     1.902     2.157
    20   1 H        0.925     0.080     1.978     2.199
    21   1 H        0.924     0.083     1.945     2.181
    22   1 H        0.800     0.360     0.566     1.182
    23   1 H        0.924     0.030     2.588     2.516
    24   1 H        0.803     0.378     0.526     1.140
    25   1 H        0.860     0.228     0.975     1.546

 Mol. C6AA /au·bohr⁶  :       6709.638808
 Mol. C8AA /au·bohr⁸  :     155734.792908
 Mol. α(0) /au        :        125.964270


Wiberg/Mayer (AO) data.
largest (>0.10) Wiberg bond orders for each atom

 ---------------------------------------------------------------------------
     #   Z sym  total        # sym  WBO       # sym  WBO       # sym  WBO
 ---------------------------------------------------------------------------
     1   6 C    3.921 --     2 N    0.985    15 H    0.963    16 H    0.962
                            17 H    0.962
     2   7 N    3.696 --     3 C    1.401     6 C    1.155     1 C    0.985
     3   6 C    3.899 --     2 N    1.401     4 N    1.299    18 H    0.954
     4   7 N    3.595 --     3 C    1.299     5 C    1.163    25 H    0.920
     5   6 C    3.956 --     6 C    1.353    13 N    1.203     4 N    1.163
     6   6 C    3.931 --     5 C    1.353     2 N    1.155     7 C    1.086
     7   6 C    3.961 --     8 O    1.658     6 C    1.086     9 N    1.086
     8   8 O    2.000 --     7 C    1.658     9 N    0.141
     9   7 N    3.653 --    11 C    1.339     7 C    1.086    10 C    0.989
                             8 O    0.141
    10   6 C    3.950 --     9 N    0.989    20 H    0.980    19 H    0.969
                            21 H    0.967
    11   6 C    2.908 --     9 N    1.339    13 N    1.238
    12   8 O    2.504 --    24 H    0.835    22 H    0.827    14 C    0.808
    13   7 N    3.639 --    11 C    1.238     5 C    1.203    14 C    0.996
    14   6 C    2.962 --    13 N    0.996    23 H    0.954    12 O    0.808
    15   1 H    0.989 --     1 C    0.963
    16   1 H    0.988 --     1 C    0.962
    17   1 H    0.982 --     1 C    0.962
    18   1 H    0.985 --     3 C    0.954
    19   1 H    0.992 --    10 C    0.969
    20   1 H    0.993 --    10 C    0.980
    21   1 H    0.992 --    10 C    0.967
    22   1 H    0.868 --    12 O    0.827
    23   1 H    0.992 --    14 C    0.954
    24   1 H    0.856 --    12 O    0.835
    25   1 H    0.948 --     4 N    0.920
 ---------------------------------------------------------------------------

Topologies differ in total number of bonds
Writing topology from bond orders to xtbtopo.mol

molecular dipole:
                 x           y           z       tot (Debye)
 q only:        0.052      -2.621       0.088
   full:        0.498      -2.558      -0.266       6.658
molecular quadrupole (traceless):
                xx          xy          yy          xz          yz          zz
 q only:       34.436       4.598     -11.032      -0.690      -0.088     -23.404
  q+dip:       34.321       0.609     -15.143       0.529       3.006     -19.178
   full:       34.019       0.626     -16.086       0.483       2.986     -17.934

           -------------------------------------------------
          |                Geometry Summary                 |
           -------------------------------------------------

      molecular mass/u    :      195.1988581
   center of mass at/Å    :        0.0933416      -0.1524993       0.0155008
  moments of inertia/u·Å² :        0.5080646E+03   0.7684419E+03   0.1265985E+04
rotational constants/cm⁻¹ :        0.3318010E-01   0.2193742E-01   0.1331582E-01

 * 25 selected distances

     #   Z          #   Z                                           value/Å
     1   6 C        2   7 N                                       1.4396420
     2   7 N        3   6 C                                       1.3259721
     3   6 C        4   7 N                                       1.3473412
     4   7 N        5   6 C                                       1.3694175
     2   7 N        6   6 C                                       1.3739170
     5   6 C        6   6 C                                       1.3860321
     6   6 C        7   6 C                                       1.4451278
     7   6 C        8   8 O                                       1.2136058
     7   6 C        9   7 N                                       1.4004354
     9   7 N       10   6 C                                       1.4525947
     9   7 N       11   6 C                                       1.3460247
     5   6 C       13   7 N                                       1.3460038
    11   6 C       13   7 N                                       1.3680368
    12   8 O       14   6 C                                       1.4754521 (max)
     1   6 C       15   1 H                                       1.0898899
     1   6 C       16   1 H                                       1.0899380
     1   6 C       17   1 H                                       1.0901306
     3   6 C       18   1 H                                       1.0720773
    10   6 C       19   1 H                                       1.0896631
    10   6 C       20   1 H                                       1.0855409
    10   6 C       21   1 H                                       1.0905720
    12   8 O       22   1 H                                       0.9967011
    14   6 C       23   1 H                                       1.0920089
    12   8 O       24   1 H                                       0.9793378 (min)
     4   7 N       25   1 H                                       1.0094650

 * 6 distinct bonds (by element types)

   Z      Z             #   av. dist./Å        max./Å        min./Å
   1 H    6 C           8     1.0874776     1.0920089     1.0720773
   6 C    6 C           2     1.4155799     1.4451278     1.3860321
   1 H    7 N           1     1.0094650     1.0094650     1.0094650
   6 C    7 N          10     1.3769385     1.4525947     1.3259721
   1 H    8 O           2     0.9880195     0.9967011     0.9793378
   6 C    8 O           2     1.3445289     1.4754521     1.2136058


optimized geometry written to: xtbopt.xyz


           -------------------------------------------------
          | TOTAL ENERGY              -42.069200512327 Eh   |
          | GRADIENT NORM               0.009107398482 Eh/α |
          | HOMO-LUMO GAP               1.546892425687 eV   |
           -------------------------------------------------

------------------------------------------------------------------------
 * finished run on 2024/06/05 at 19:57:58.011     
------------------------------------------------------------------------
 total:
 * wall-time:     0 d,  0 h,  0 min,  0.635 sec
 *  cpu-time:     0 d,  0 h,  0 min,  0.416 sec
 * ratio c/w:     0.654 speedup
 SCF:
 * wall-time:     0 d,  0 h,  0 min,  0.037 sec
 *  cpu-time:     0 d,  0 h,  0 min,  0.024 sec
 * ratio c/w:     0.652 speedup
 ANC optimizer:
 * wall-time:     0 d,  0 h,  0 min,  0.565 sec
 *  cpu-time:     0 d,  0 h,  0 min,  0.379 sec
 * ratio c/w:     0.670 speedup

