25
 energy: 54.597290282480 xtb: 6.6.1 (8d0f1dd)
C            3.44286698010796        0.95239579872816        0.12949266785261
N            2.53191117813490       -0.15811731849164        0.03956342427830
C            2.84349131581609       -1.43830647480646       -0.08962348314262
N            1.70581186688764       -2.17904805187330       -0.11101047669413
C            0.63635119398620       -1.32553454801601        0.03139788881481
C            1.17285503482010       -0.04399818304107        0.12766685868045
C            0.27852967738838        1.13235303143591        0.24146972777398
O            0.70588727558962        2.27829828386896        0.25168317552628
N           -1.01599451974645        0.79515677431728        0.31539752913387
C           -3.67494153160355        3.69037326980686       -0.38610791793818
C           -1.59930123264029       -0.35387948610551        0.21279106652943
O           -2.76182684710425       -0.65002165885874        0.22860110721853
N           -0.65337025556895       -1.59671930918827        0.06995962141751
C           -1.21869169380678       -2.91415987221687       -0.02504077964094
H            3.95353826346933        0.94929491077199        1.09259114569567
H            4.18527716719352        0.90223723369451       -0.66625598050627
H            2.85932981154640        1.87332239821535        0.04652446169007
H            3.83044731280003       -1.83955009467942       -0.18089400670511
H           -2.78523115981005        4.28825203388550       -0.33835223159005
H           -3.94476609192482        3.21675485487254       -1.31063698517333
H           -4.09654184843513        3.32670250178970        0.52643857754739
H           -0.91982822649693       -3.53880544627600        0.82240914769022
H           -0.94244983962627       -3.40336165207824       -0.96334936350153
H           -2.30373212315952       -2.77752056419047       -0.00448625854695
H            1.65233248761870       -3.17915203367910       -0.21731541114323
