72
 energy: -103.315551503557 gnorm: 0.073972775867 xtb: 6.6.1 (8d0f1dd)
N           -1.52003592272931        2.81502568001678        2.25102839016896
C           -1.58367023972382        2.13177460079710        1.21402465036786
C           -2.75078194035832        2.02746283993880        0.26931874705226
C           -3.33858681942539        0.64307841780523        0.33002960863856
C           -4.32112885346311        0.24584980088944       -0.57642934714932
C           -4.88290155115197       -1.01728271610135       -0.53317980502700
O           -5.84812149137847       -1.48347631629141       -1.37508023600631
C           -6.40110234994027       -0.59109136575224       -2.31717632142487
C           -4.44499059293708       -1.93893988478284        0.44292847795409
O           -5.04989196938903       -3.16529626375285        0.40740823147829
C           -4.73907159282412       -4.08949764998790        1.40736912357126
C           -3.46629189404420       -1.54414979364680        1.34149109918858
C           -2.91868948432677       -0.26267592388280        1.28454420203511
C           -2.17359473615047        2.26255391776393       -1.15750573099602
C           -1.23832740599829        1.17386019587446       -1.68073947762262
C            0.04659886755812        1.14079694202080       -0.91153920540713
N            0.66081241085540       -0.06011843854105       -0.50713351319480
C            2.04758747939541       -0.03961364371332       -0.12997605806379
C            2.97230164429261       -0.51170744490324       -1.28175978554123
C            4.38558010022751       -0.42395917303462       -0.85954022643657
C            5.10459394429486        0.74491008048787       -1.05340476543379
C            6.41236542920196        0.85492016395124       -0.60680103172563
C            7.02797683896845       -0.19981202721474        0.04117251312881
O            8.30774818375862       -0.20762344206985        0.51152302391649
C            9.09470488588502        0.94034048454654        0.28591533942306
C            6.29478833236040       -1.39053965986513        0.26348256306871
O            6.98051344614589       -2.37955012334809        0.91018198812754
C            6.31651586672784       -3.59634376722259        1.12251946081860
C            4.98869682845451       -1.48396654162009       -0.18326925481856
C           -0.02157589420439       -1.31761962285687       -0.54635171482501
C           -3.87378910200069        3.05989708966100        0.55180659445362
C           -4.51551903091568        2.77749194386494        1.91551270683661
C           -3.35538405584365        4.49558061128518        0.51899772274063
H           -4.65352838822598        0.94157548127863       -1.33291563939905
H           -6.84329298190312        0.28204963960245       -1.82778136211840
H           -7.18097078854050       -1.16103240849312       -2.81864933017592
H           -5.65311390235667       -0.26315951338553       -3.05180998634406
H           -4.95607843976373       -3.69610989792889        2.40777970957593
H           -5.37789122059277       -4.95884313061470        1.22240711083747
H           -3.69049973668326       -4.38660933542229        1.35513135920380
H           -3.12764228454572       -2.22921191489497        2.10069649059951
H           -2.18515614099499        0.01101074494559        2.01135136249626
H           -2.99361407926255        2.33534007538526       -1.83187941037680
H           -1.62629681338287        3.20631570551311       -1.17043022812856
H           -1.74989599163659        0.21322319481874       -1.62743454941633
H           -1.05672761948778        1.38230119718770       -2.74722652153908
H           -0.70763813194536        1.58880615580622        0.77109242528597
H            0.67663779291744        1.98860594785276       -1.00470742978961
H            2.17666093937521       -0.67306023879406        0.74116557910006
H            2.32953840044775        0.98258838757519        0.14841516756345
H            2.76726915243070        0.12574766300835       -2.14560493073038
H            2.71471460603325       -1.53627729084183       -1.53762877440833
H            4.65399934149172        1.59015639160801       -1.55812540771818
H            6.94318615559085        1.77452096533371       -0.77932255436406
H            8.67328574381980        1.81914516365301        0.78700648331380
H            9.20675802479065        1.15542564694535       -0.78379385252228
H           10.06542840620329        0.71338681539335        0.72130556880105
H            7.03748297815342       -4.24399388417055        1.61314001256431
H            5.43848654423602       -3.48736760802627        1.78043331594471
H            6.00849890647318       -4.06666037282348        0.18706965095747
H            4.42147118162087       -2.37902930785311       -0.02594381009698
H           -0.18026880817712       -1.67387159302563       -1.57600056106185
H           -0.99380171860577       -1.24592126732190       -0.04653828642836
H            0.56976797676052       -2.06222202525356       -0.02384541540127
H           -4.64154357689133        2.95477233753930       -0.21847193906429
H           -3.75438121549464        2.89064853571784        2.69698754187281
H           -4.90361133233518        1.76340857030909        1.95751909826158
H           -5.32593649141899        3.49045438411005        2.09418618756914
H           -2.58280575610897        4.63787936959328        1.26393650152139
H           -2.98595453884972        4.77199829098977       -0.45603324087034
H           -4.16648975041679        5.18591359558246        0.77172668007526
H           -0.68514960013192        2.76754999664185        2.77396116078336
72
 energy: -103.318286199798 gnorm: 0.023114846547 xtb: 6.6.1 (8d0f1dd)
N           -1.53967481782624        2.81297658932153        2.25925676951603
C           -1.58474903417273        2.12977752370769        1.20808615446152
C           -2.74896424981712        2.03326778891693        0.26104788143386
C           -3.33610174066787        0.63896832977741        0.32952175615565
C           -4.31956633753812        0.24398191347345       -0.57808556624529
C           -4.88057915972903       -1.01823535665675       -0.53451110615094
O           -5.84821160471723       -1.48038818865186       -1.37566873280688
C           -6.40049569391067       -0.59111363754595       -2.31665632855110
C           -4.44672409374737       -1.93929452935431        0.44358415284665
O           -5.05286336353446       -3.16252722112796        0.40763072973300
C           -4.73714719470003       -4.08914529257597        1.40907073894558
C           -3.47207538183152       -1.54793116562233        1.34286506127627
C           -2.92535574899114       -0.26981895771257        1.28709668763203
C           -2.17504435969100        2.27008861920649       -1.16381550717890
C           -1.23753535657776        1.16530463104099       -1.67236443610223
C            0.04759416416017        1.12737107359374       -0.91503531109199
N            0.65816673870016       -0.05642678327480       -0.50722652254805
C            2.04199900883946       -0.04025572013425       -0.13459825282620
C            2.96641822831322       -0.51372814288997       -1.28297894322104
C            4.38960850347297       -0.41866522969439       -0.85911741315720
C            5.10836902349116        0.74704296819938       -1.05243898336468
C            6.41672778036965        0.85591041703245       -0.60688388652513
C            7.02952457354847       -0.19996017984756        0.04330131424982
O            8.31033538807963       -0.20544699956058        0.51100354834336
C            9.09558228667481        0.94072459196636        0.28885458014417
C            6.29848596486111       -1.39065697170169        0.26029128608221
O            6.97699250154816       -2.38113788234014        0.91043202022787
C            6.31761766774535       -3.60012196310317        1.12488592742795
C            4.99414822797470       -1.48079504343413       -0.18700945283946
C           -0.02301740041464       -1.31594778425604       -0.54923697100481
C           -3.87015468277105        3.06508304227282        0.55937063846085
C           -4.51562003102235        2.78148936366462        1.91679261351559
C           -3.36370415324700        4.50433807658414        0.52359070944391
H           -4.65404617858321        0.94140679400671       -1.32961553325337
H           -6.84239090282534        0.28372773870223       -1.82964025391962
H           -7.18050537338730       -1.15705388842566       -2.82272700827193
H           -5.65463074175024       -0.26413275418539       -3.05014741117227
H           -4.95455219637693       -3.69698007145577        2.40935894616413
H           -5.37251694048545       -4.95594995766565        1.22226213885734
H           -3.68704466401108       -4.39314805958240        1.35959073686492
H           -3.12867641203109       -2.23194299095349        2.10216494026728
H           -2.18477317390198        0.00616127946827        2.01683764650170
H           -3.00747961735492        2.35569417905380       -1.85081545936343
H           -1.62579122492421        3.21260686155188       -1.16737541442252
H           -1.74916933732358        0.20490081657316       -1.62221782486492
H           -1.04967936994527        1.37876292570371       -2.73709477841519
H           -0.71320783337439        1.57658190763426        0.78328631904257
H            0.69586737210791        1.97639319638206       -1.01254891232135
H            2.18667505199527       -0.68164980542365        0.73778011684329
H            2.32604177883718        0.97861557092562        0.14343837911977
H            2.77018455591673        0.12296055106919       -2.14776297445839
H            2.70743261737818       -1.54055589352037       -1.54153632304949
H            4.65560617529231        1.58651643564736       -1.56009379745660
H            6.94923149303714        1.77649016086365       -0.77982988227216
H            8.67411563867305        1.81982608131064        0.78864778280886
H            9.20804787114276        1.15211177604856       -0.78016274142819
H           10.06893626249708        0.71437885439772        0.71954288786381
H            7.04142088921341       -4.24590257500413        1.61893316139056
H            5.44143216438021       -3.48304498039951        1.77660306127550
H            6.00666301796117       -4.06563783400121        0.18457141257249
H            4.42316366203319       -2.38000767478331       -0.02830232927945
H           -0.18166789782069       -1.67153466454188       -1.57653696339903
H           -0.99654106323458       -1.24405731193613       -0.05455834626288
H            0.57205880573829       -2.05937404950744       -0.02235077249540
H           -4.63673667446154        2.95384574952383       -0.21494903018756
H           -3.76597566242769        2.89511691055641        2.69723002975096
H           -4.91003762982675        1.76966857617347        1.95636056521964
H           -5.32626231668101        3.48521424298924        2.09788235989274
H           -2.58037610226943        4.63759924251897        1.26203130544315
H           -2.98873961455846        4.77454813842037       -0.45724498116607
H           -4.17767937867886        5.18693930259379        0.77071073699695
H           -0.67415652892762        2.78591077785428        2.77775919997139
72
 energy: -103.318437045567 gnorm: 0.015766615753 xtb: 6.6.1 (8d0f1dd)
N           -1.53487785257152        2.81426414856791        2.25558425990593
C           -1.57644440910221        2.12837377828670        1.20146125218907
C           -2.74603309568646        2.03487885387649        0.26257331827383
C           -3.33700819800492        0.63866751613142        0.33063385533122
C           -4.32154437337369        0.24550095205897       -0.57768715125085
C           -4.88009531696206       -1.01728017321731       -0.53361538621489
O           -5.84711176465562       -1.48046192813059       -1.37497018393947
C           -6.40051070509687       -0.59442612438275       -2.31479839219969
C           -4.44414467406567       -1.93872182651084        0.44281437374710
O           -5.05388820146763       -3.15915845243955        0.40581221313773
C           -4.74091022672059       -4.08907849901544        1.40742594790541
C           -3.46869722092347       -1.54800159450782        1.34007770532533
C           -2.92450079080900       -0.27086974299720        1.28477648578895
C           -2.17180862588439        2.26361734071939       -1.15819845096985
C           -1.23477157154187        1.16431531190267       -1.68124350552160
C            0.04373349518588        1.12614523830625       -0.92150294213746
N            0.65638519382521       -0.04630434356006       -0.50537998153227
C            2.03705588163497       -0.03119403710361       -0.13113437585713
C            2.95993421864342       -0.51013409017527       -1.27749212306167
C            4.38744406955457       -0.41619646760403       -0.85490775578399
C            5.10435740957418        0.74760240358856       -1.05087501258225
C            6.41257197011113        0.85540877421552       -0.60681118908311
C            7.02503772792963       -0.20100803054407        0.04327124597894
O            8.30728352524239       -0.20460278879272        0.50729709342809
C            9.09120567534237        0.94032969344667        0.28594848932603
C            6.29472656773585       -1.39001069687413        0.26330834473771
O            6.97197834131799       -2.38081025082410        0.91187085837429
C            6.31410355341948       -3.60123269742315        1.12579519018010
C            4.99041332359949       -1.47882397358904       -0.18183712260049
C           -0.02026922127135       -1.31198310046329       -0.54664188747466
C           -3.87064984917957        3.06277423942496        0.55853535441709
C           -4.50855165852181        2.77813233996022        1.91620357488577
C           -3.35765728511131        4.49968330068616        0.52355708881540
H           -4.65316105639789        0.94138339600156       -1.33093590879738
H           -6.84468195933610        0.27994621045168       -1.82799038558521
H           -7.18084132941608       -1.16174665975142       -2.81940433597043
H           -5.65726655230015       -0.26539998441836       -3.04950561443384
H           -4.95718791031294       -3.69532766631017        2.40673475296852
H           -5.37615160944246       -4.95439658705436        1.21951868057507
H           -3.68927778086933       -4.39146079434576        1.35678146623136
H           -3.12273040660522       -2.22871509582992        2.10134049315729
H           -2.18030627577625        0.01178920542102        2.01349347951270
H           -3.01216420705431        2.34025806406316       -1.84556899101451
H           -1.62778333347033        3.20767754702282       -1.17073842668498
H           -1.74877343403688        0.20697425822745       -1.63452459925782
H           -1.05549987174283        1.38877691248119       -2.74690309049984
H           -0.70529902017188        1.59155408050236        0.77283000180539
H            0.68450580414365        1.99067204688980       -0.99911646458005
H            2.17988179830270       -0.67212163012505        0.74640820646066
H            2.32552986764915        0.98507906031187        0.14815442828109
H            2.76928901137579        0.12514813161923       -2.14406279725861
H            2.70717724330157       -1.53897104085150       -1.53606501029781
H            4.64879907453185        1.58651350640160       -1.55559576450166
H            6.94359008572239        1.77717145133400       -0.77903466418617
H            8.67051386148993        1.81943406143316        0.78550489635677
H            9.20550209248636        1.15317204776234       -0.78274765052805
H           10.06428163196872        0.71414542785961        0.71805292984079
H            7.04142538328357       -4.24640765212171        1.61479179338848
H            5.44055044094754       -3.48741158469322        1.77845145033179
H            6.00418947926050       -4.06534537846573        0.18321183966642
H            4.41762357452276       -2.38008734539465       -0.02195392353596
H           -0.18021463883792       -1.66972309190674       -1.57185213761559
H           -0.99117507340117       -1.24434265763106       -0.04705357780846
H            0.57705768398619       -2.05655580602534       -0.02097648747962
H           -4.63888301790045        2.95137662764744       -0.21810878647512
H           -3.75621299900215        2.88951378588037        2.68998928083479
H           -4.90305432168507        1.76521330305001        1.95659297973237
H           -5.31806131156374        3.48168841816022        2.09654564255506
H           -2.57309049164481        4.62864868931638        1.26239128671560
H           -2.97668842497710        4.76769469971889       -0.45866810522024
H           -4.16518628874026        5.18436960178972        0.76819766146146
H           -0.66475545654000        2.76015080641881        2.78250040598677
72
 energy: -103.318751921266 gnorm: 0.009529773774 xtb: 6.6.1 (8d0f1dd)
N           -1.54037463818028        2.82552345821966        2.25317337143924
C           -1.58187541504569        2.12837863482630        1.20795357932220
C           -2.74927847517270        2.03564674271990        0.26697405187058
C           -3.33995325422415        0.63963338529078        0.33213238343477
C           -4.32299705555197        0.24558580851931       -0.57754195670076
C           -4.88161559970478       -1.01761263789835       -0.53335208477448
O           -5.84798658945272       -1.48020043242176       -1.37619338533895
C           -6.39833001410696       -0.59227218483114       -2.31598830508167
C           -4.44554539501341       -1.93946961026262        0.44327015465192
O           -5.05323157152057       -3.16125124765284        0.40640629257004
C           -4.73955142196199       -4.09052343007542        1.40873223769686
C           -3.47056439958669       -1.54713899785169        1.34093148779349
C           -2.92622858098472       -0.26957113466127        1.28529889862908
C           -2.16870866828725        2.26482381713892       -1.15075051024103
C           -1.23347380382578        1.16561400118138       -1.67493228985657
C            0.04685208348840        1.12341440324079       -0.91918606553482
N            0.65935974209366       -0.05207271029554       -0.50614552321393
C            2.04157729361489       -0.03983433363131       -0.13578040497287
C            2.96552558418574       -0.51296641450390       -1.28361944164537
C            4.39249962916704       -0.41944051174167       -0.86100824573845
C            5.10854749203752        0.74576419150531       -1.05498659458253
C            6.41593141748305        0.85426848828909       -0.60822484540926
C            7.02867961009298       -0.20162589480683        0.04222983112601
O            8.31031410496700       -0.20460355740869        0.50884164071470
C            9.09488116102641        0.93992790340211        0.28818102657662
C            6.29879121856627       -1.39099521247365        0.26120176846104
O            6.97670895545920       -2.38027446078664        0.91069980921692
C            6.31593684097373       -3.59913548013584        1.12606400315418
C            4.99495080145106       -1.48146595052515       -0.18655164643400
C           -0.02187712080605       -1.31675365485061       -0.54966003481681
C           -3.87522999545072        3.06366468673965        0.55850671450061
C           -4.51563843697531        2.78175535838594        1.91655276945947
C           -3.36579242309108        4.50245524370607        0.52400714479785
H           -4.65359364691728        0.94108168336517       -1.33186839863553
H           -6.84169410132777        0.28296985861920       -1.82920115942964
H           -7.17995980265794       -1.15807332677515       -2.82067368980506
H           -5.65369636017321       -0.26353787047396       -3.05055381576174
H           -4.95488246075633       -3.69583162097736        2.40776908536296
H           -5.37393930146985       -4.95751340806683        1.22245818807887
H           -3.68733264169173       -4.38856825822112        1.35649587482366
H           -3.12673390742056       -2.22734523668133        2.10340540677109
H           -2.18434619078261        0.01445538171874        2.01443224103675
H           -3.00346640883357        2.34033232251098       -1.84044122837616
H           -1.62413431918969        3.20813190008406       -1.16711121301977
H           -1.75137296825907        0.21116417269181       -1.62281263053426
H           -1.05748348355961        1.38320644043376       -2.74265048491078
H           -0.71191814343831        1.58929434656843        0.78256081079977
H            0.68611609450515        1.98681955966624       -1.00257490512499
H            2.18235423200757       -0.68163300549744        0.74044633574937
H            2.33119235007049        0.97572678012280        0.14692680933211
H            2.77191842613392        0.12390353519765       -2.14851291599679
H            2.71604832026701       -1.54134541403602       -1.54319180011568
H            4.65444218592505        1.58597236072140       -1.55989851746605
H            6.94645743219431        1.77591487293594       -0.77985584934139
H            8.67500998877045        1.81918264224470        0.78828575217706
H            9.20988250972090        1.15473659741967       -0.78061230327848
H           10.06731879016173        0.71330929376445        0.72186765339176
H            7.04111377435121       -4.24421929686765        1.61639761834162
H            5.44126114533137       -3.48488631207846        1.77796919571555
H            6.00873876050913       -4.06673043436528        0.18494600663500
H            4.42331891703284       -2.38284031182694       -0.02859249799678
H           -0.18130845649394       -1.67247918765808       -1.57593820982949
H           -0.99301162830692       -1.24641744078400       -0.05002377782951
H            0.57067007880503       -2.06493773599615       -0.02499039490064
H           -4.64243498991727        2.95292208010505       -0.21916882810831
H           -3.76392974272206        2.89345940519404        2.69330250607729
H           -4.90875889923438        1.76776769776183        1.95735496673136
H           -5.32655137971676        3.48722056923788        2.09270620501914
H           -2.58386712940012        4.63880429046981        1.26345325157141
H           -2.98841454830172        4.77440613359333       -0.45770883461198
H           -4.17426974133184        5.18511678463507        0.77035745980919
H           -0.67281965563374        2.77094532275026        2.77854640224458
72
 energy: -103.318796048499 gnorm: 0.008712550217 xtb: 6.6.1 (8d0f1dd)
N           -1.54048584885431        2.81743697105948        2.25379164638071
C           -1.58040631701858        2.12355906156115        1.20739434205262
C           -2.74602447172558        2.03272465917001        0.26254399835008
C           -3.33569943310216        0.63720517319114        0.32896603504367
C           -4.32020123222385        0.24378549595198       -0.57909616396840
C           -4.88094780142700       -1.01875786160036       -0.53419584901753
O           -5.84904930996601       -1.48064428654266       -1.37595726489485
C           -6.40027295717010       -0.59236745321724       -2.31565543816967
C           -4.44588539091388       -1.94073008642461        0.44308547993573
O           -5.05246747981498       -3.16317017553599        0.40662173293842
C           -4.73908774340435       -4.09134996563587        1.40980400937733
C           -3.47053908175089       -1.54890371113919        1.34092567538618
C           -2.92328126041239       -0.27182519221215        1.28389153234847
C           -2.17263986418574        2.26915495381110       -1.15890689272087
C           -1.23511848025293        1.16751160906216       -1.67564078659245
C            0.04660289038748        1.12626173223513       -0.91987801510161
N            0.65792347886507       -0.05112606096344       -0.50415202105227
C            2.04065118836568       -0.03665539918369       -0.13389863338207
C            2.96355783096797       -0.51125824641204       -1.28111802913953
C            4.38914126988521       -0.41790940586643       -0.85769359198719
C            5.10626119156229        0.74775359433461       -1.05148508428064
C            6.41438952131020        0.85562665618281       -0.60545920838514
C            7.02713587308718       -0.20065326509664        0.04420414112734
O            8.30899247497719       -0.20463356969280        0.51071538383682
C            9.09337593542261        0.93983025799497        0.28731026253903
C            6.29675889276077       -1.39036159440577        0.26262671065819
O            6.97645638634826       -2.38030245443011        0.90983060744579
C            6.31521281747191       -3.59901891703834        1.12505684084962
C            4.99173365314866       -1.47997355055576       -0.18373342826537
C           -0.02360985561762       -1.31493224419042       -0.54773743352295
C           -3.86874043347683        3.06259254498683        0.55947716242348
C           -4.51165522545205        2.78035567794187        1.91787868029829
C           -3.35972003256426        4.50152660083299        0.52366981887504
H           -4.65349169113363        0.94110102780965       -1.33082797527839
H           -6.84370067197843        0.28303819366929       -1.82899905123697
H           -7.18156164698640       -1.15840605159690       -2.82075691962718
H           -5.65551498427462       -0.26365792917216       -3.05060408634098
H           -4.95518164804122       -3.69671472411157        2.40881308798755
H           -5.37479534984475       -4.95753324070765        1.22301117345100
H           -3.68799649453752       -4.39152938826622        1.35842620754905
H           -3.12740233169741       -2.23153176397606        2.10154897363756
H           -2.18258769542680        0.00871697958240        2.01337946009882
H           -3.00383771225233        2.35027003853066       -1.84894418829726
H           -1.62686833678320        3.21213989558262       -1.17160381624142
H           -1.75025030486583        0.21044298888976       -1.62426981890245
H           -1.05215517393737        1.37997714103554       -2.74246866961679
H           -0.71249648056009        1.57653323658225        0.78532903660215
H            0.68921808110611        1.98306177832829       -1.01338725317717
H            2.18245666029779       -0.67604387944909        0.74213012657656
H            2.32683174804714        0.98161395994796        0.14515549485738
H            2.76780612621286        0.12466599273741       -2.14625245484035
H            2.70912083143621       -1.53870693542840       -1.53750279541762
H            4.65405856189040        1.58845560061229       -1.55804165693335
H            6.94646202165820        1.77593201924874       -0.77891077774522
H            8.67377665866301        1.81986511841911        0.78701633603386
H            9.20568915876344        1.15292491512651       -0.78225292430755
H           10.06706825602592        0.71429646235737        0.71878088222838
H            7.03928660821318       -4.24518442199360        1.61573249249335
H            5.44031145464677       -3.48425299345535        1.77754502075884
H            6.00625018149251       -4.06604053843293        0.18475089907164
H            4.42009781521603       -2.37960660887148       -0.02532108821472
H           -0.17950352339459       -1.67110686227537       -1.57471683393975
H           -0.99679024052791       -1.24299520436799       -0.05196952234286
H            0.56959303726558       -2.05941057855228       -0.01994769943451
H           -4.63625855721741        2.95406002798035       -0.21637317732489
H           -3.76021910057896        2.89126629774934        2.69721269476146
H           -4.90563724900439        1.76677591601182        1.95708835690429
H           -5.32288946748879        3.48579218888606        2.09747419692537
H           -2.57690783857468        4.63757330430510        1.26183888687849
H           -2.98503595402275        4.77339934448218       -0.45786185718582
H           -4.16903047128131        5.18518327097511        0.77162922825998
H           -0.67204928783784        2.77461731149118        2.77149993761287
72
 energy: -103.318917392191 gnorm: 0.003886237399 xtb: 6.6.1 (8d0f1dd)
N           -1.53972067052313        2.81762616267360        2.25766960435699
C           -1.57853150817450        2.12896548011620        1.20650878639382
C           -2.74667541581634        2.03511030924613        0.26403824303465
C           -3.33687104776264        0.63945614458792        0.33144941676299
C           -4.32077080252703        0.24593370493200       -0.57741074539636
C           -4.88038398714501       -1.01684692865165       -0.53319554077011
O           -5.84748226006189       -1.47994529651360       -1.37546767481097
C           -6.39945020957473       -0.59317683470310       -2.31553524453143
C           -4.44530232652070       -1.93849320142954        0.44395531617813
O           -5.05218508366937       -3.16038798403317        0.40612668782602
C           -4.73906239152854       -4.08961733189497        1.40859847607325
C           -3.47058935810784       -1.54684499588500        1.34234619378409
C           -2.92501603223861       -0.26937086266852        1.28679294994266
C           -2.17393418749929        2.26633763722424       -1.15763923338690
C           -1.23524361103573        1.16553554455396       -1.67567703424867
C            0.04580348196408        1.12495887724137       -0.91867804195161
N            0.65840072435393       -0.05115239327972       -0.50455487815000
C            2.04084066476342       -0.03715030662764       -0.13427513533002
C            2.96350236052173       -0.51241190581501       -1.28149283839284