72
 energy: 0.000000000000 xtb: 6.6.1 (8d0f1dd)
N           -1.47310921155849        2.74401293103706        2.22063921685122
C           -1.55658879776851        2.16490285539332        1.13274273951491
C           -2.74549199786261        2.05621232186130        0.23826248438941
C           -3.31377553111525        0.64333411542669        0.32332512650568
C           -4.30230156009016        0.24487110156316       -0.58026161703006
C           -4.85238763031941       -1.02286490450319       -0.53363588718165
O           -5.81419972815119       -1.48606034185536       -1.36157882725342
C           -6.39655633239252       -0.60827000183299       -2.29568474302620
C           -4.39972501531283       -1.94646102182611        0.44396929121966
O           -4.98748311285188       -3.16145997157803        0.41085992006324
C           -4.66362127904578       -4.10093827755394        1.40909127743729
C           -3.42072513477031       -1.54561384810496        1.33436546260297
C           -2.88302799614223       -0.26315800396994        1.27400150770375
C           -2.19303798107274        2.30467000305896       -1.18742977106749
C           -1.26651538239283        1.17243369445008       -1.65249429687285
C            0.01082524939134        1.09745454476277       -0.89354803499847
N            0.61779393476578       -0.02034948052406       -0.57705522512502
C            2.00145210352228       -0.02376006389122       -0.15611399603240
C            2.92554934655222       -0.53865282675074       -1.27700088804721
C            4.35756843073516       -0.43050757231754       -0.83075544324989
C            5.07346135469827        0.73206409086248       -1.03980965825901
C            6.38627986649936        0.84224441421807       -0.60344822702769
C            7.00047264773336       -0.20824756335880        0.05722314418200
O            8.26703657141718       -0.21011313101264        0.52410943644933
C            9.06912227848686        0.92943601033931        0.31863058007678
C            6.27039964270142       -1.40439753960823        0.28033466008274
O            6.94829939911432       -2.38012925705718        0.92751999079483
C            6.31537317745639       -3.61583200086742        1.15217711710877
C            4.96302794628964       -1.49347471867959       -0.16064430359178
C           -0.05511211367372       -1.29906247805359       -0.62085686319744
C           -3.86758037025447        3.07992600430699        0.58498060215443
C           -4.49286159663096        2.77383493050346        1.94313289484366
C           -3.39165179876499        4.52917666589254        0.54797523472093
H           -4.66030026466202        0.94509067363451       -1.31640568823548
H           -6.85037928558380        0.25803162192116       -1.80468845313260
H           -7.17287442604349       -1.18600110843259       -2.79318157561361
H           -5.66836817451085       -0.26952966318766       -3.04040255244073
H           -4.88416720672258       -3.71589460520039        2.40913542187496
H           -5.29223570620378       -4.96637458756866        1.20969236903657
H           -3.61139813139015       -4.39919835331056        1.35529357841967
H           -3.07077796610445       -2.21868765711333        2.10002662693138
H           -2.14562754426994        0.02067850696302        2.01001344383370
H           -3.02188875377605        2.38238012313952       -1.88813545054866
H           -1.65198530896729        3.25146700677685       -1.20556284570283
H           -1.81103374245520        0.23006524641044       -1.62116301628650
H           -0.99335688527853        1.37490212198123       -2.69443256973690
H           -0.67628064361333        1.65183887049447        0.61785727145403
H            0.63525841192517        1.98466369793744       -0.92314021190751
H            2.11132552493482       -0.65949692842762        0.72532613231274
H            2.30680473056284        0.98978251704176        0.11078972794250
H            2.76694198818247        0.06750735147374       -2.17075252200790
H            2.67954581369920       -1.57455627803457       -1.51167743520200
H            4.62169998552446        1.56295612048703       -1.56123579000624
H            6.92357674630170        1.75715815945204       -0.79119596719031
H            8.65159112996149        1.81001823324363        0.81701555159939
H            9.20136171144928        1.14042857828877       -0.74698991949293
H           10.03428838009630        0.69003240176163        0.76064937965836
H            7.05567174969094       -4.23621171795340        1.65347565939075
H            5.43848001056755       -3.50813558175093        1.79970565785717
H            6.02060041905269       -4.09420497120334        0.21253282636366
H            4.40102758497114       -2.40127266373392       -0.00490198249042
H           -0.22071299714579       -1.61775583601871       -1.65116008982042
H           -1.01972258008625       -1.24102717432227       -0.10935206830928
H            0.55899954147532       -2.04486085926761       -0.12333730421426
H           -4.63991875734388        2.95501092798550       -0.18098088071825
H           -3.76095216473977        2.90314704960906        2.73380821053058
H           -4.87457614030224        1.75695641518947        1.97884603101694
H           -5.31925552549014        3.45579210326349        2.12325564252114
H           -2.60025590131176        4.69225046143352        1.27368918226171
H           -3.03987406413880        4.81897652321898       -0.43870975059559
H           -4.22191740670577        5.18069648090034        0.80616693961239
H           -0.59832433787845        2.77744694953323        2.72958984441332
72
 energy: -7.191450091606 xtb: 6.6.1 (8d0f1dd)
N           -1.54092578786769        2.82140782563731        2.25434343537961
C           -1.57971318251472        2.12623603491408        1.20715058683938
C           -2.74713757601657        2.03471310285658        0.26399868336556
C           -3.33769579609106        0.63890334008803        0.33066905155268
C           -4.32204937119419        0.24560278377449       -0.57770189934966
C           -4.88121682403180       -1.01724125531207       -0.53323619921737
O           -5.84853959157672       -1.47985457275500       -1.37558726420489
C           -6.40009679297938       -0.59283910791273       -2.31523584009264
C           -4.44533453554364       -1.93934246979859        0.44323735316001
O           -5.05334538621707       -3.16070461900438        0.40613415076092
C           -4.73983571704521       -4.09052433352891        1.40841215544765
C           -3.46977722015685       -1.54746072237890        1.34076996417516
C           -2.92427377507901       -0.27009343778133        1.28458591364932
C           -2.17087706446136        2.26678780094787       -1.15573451331148
C           -1.23429280811953        1.16653148549217       -1.67690250815249
C            0.04635073982422        1.12485363144812       -0.92083483060039
N            0.65806109112253       -0.05064854579237       -0.50480213140842
C            2.04048117457595       -0.03677160739814       -0.13467854322235
C            2.96365199755158       -0.51172271160681       -1.28173755746247
C            4.39030642148384       -0.41829775699441       -0.85886539298637
C            5.10699479786646        0.74678331284798       -1.05346117342013
C            6.41485495655919        0.85501864533563       -0.60723683926374
C            7.02715400435394       -0.20121884209024        0.04298756145175
O            8.30906819649164       -0.20463117506954        0.50959028837362
C            9.09320144180377        0.93965430282955        0.28791630570309
C            6.29716418049926       -1.39079766054338        0.26184331127567
O            6.97566816698681       -2.38024543723441        0.91050387565428
C            6.31577054556486       -3.59968905065601        1.12644043803386
C            4.99267237180657       -1.48052111055089       -0.18509284155267
C           -0.02127928204216       -1.31667933052137       -0.54928794853894
C           -3.87139312802329        3.06299153583990        0.55961699179461
C           -4.51214978401987        2.77978991217024        1.91780620446930
C           -3.36144013679634        4.50156095236237        0.52361620039060
H           -4.65441232071588        0.94203807839026       -1.33031022680180
H           -6.84460838232048        0.28235738329888       -1.82920256122618
H           -7.18082359678678       -1.15963317673758       -2.82025287893318
H           -5.65606886881707       -0.26349538778360       -3.05032165106705
H           -4.95596056559777       -3.69640629593329        2.40736638587196
H           -5.37473598373523       -4.95677593731385        1.22089901430794
H           -3.68829613150547       -4.38986242379725        1.35641224829758
H           -3.12687163830191       -2.22819653109980        2.10327964534208
H           -2.18286118779585        0.01233400438634        2.01394426099129
H           -3.00536058727323        2.34283155513223       -1.84452979565947
H           -1.62602124640898        3.21049810224065       -1.17130229876218
H           -1.75162239342929        0.21107512434149       -1.62498568936079
H           -1.05549380952113        1.38317381601174       -2.74423432611494
H           -0.71196756703332        1.58298561183293        0.78346597322686
H            0.68724282902337        1.98587138049323       -1.00570529847485
H            2.18206806446062       -0.67670081687567        0.74213196638159
H            2.32830803534415        0.98044041458850        0.14549907601269
H            2.76983633189466        0.12428971421131       -2.14717787718352
H            2.71192785741558       -1.53981187482861       -1.53992782751679
H            4.65334672317540        1.58712041884574       -1.55853361983895
H            6.94618577202312        1.77614080617189       -0.77940930395462
H            8.67317766366301        1.81957497702815        0.78733951580445
H            9.20766913799700        1.15341211954434       -0.78121152687456
H           10.06620235990274        0.71382980440851        0.72078638179913
H            7.04157020286170       -4.24434060593561        1.61700021126104
H            5.44154654492723       -3.48477380523983        1.77908222555849
H            6.00711760417650       -4.06698696886496        0.18573389293767
H            4.42083770591169       -2.38085311288284       -0.02633600016708
H           -0.17931236374143       -1.67191937848078       -1.57569592723518
H           -0.99281136993761       -1.24806924262619       -0.05057844519579
H            0.57372079874285       -2.06234656565860       -0.02447756225397
H           -4.63914897331442        2.95243822811411       -0.21671756948646
H           -3.76117636525173        2.89129293401282        2.69585413447184
H           -4.90584447062510        1.76625036524206        1.95822110946734
H           -5.32311668011293        3.48461329919466        2.09584513803612
H           -2.57843363867366        4.63751953788421        1.26205730155271
H           -2.98489438969828        4.77159470655046       -0.45845872814661
H           -4.17061998055008        5.18485397114570        0.76969389449036
H           -0.67209527317227        2.77181828923009        2.77606589541941
72
 energy: -6.851858274598 xtb: 6.6.1 (8d0f1dd)
N           -1.60442950800024        2.84808189928427        2.27418530571701
C           -1.61438711018937        2.09308604311300        1.26696616219329
C           -2.74576592096813        1.99968846430599        0.28013796884872
C           -3.35823020417740        0.61867064850754        0.33341375981897
C           -4.33866151118494        0.23962100410290       -0.58437158130333
C           -4.91315983852147       -1.01572263469784       -0.53830861276181
O           -5.87958868614035       -1.46774255434885       -1.38737558566739
C           -6.40436353189082       -0.57503807232432       -2.33669585761414
C           -4.49363652510212       -1.93998047357054        0.44337745480469
O           -5.11725179487317       -3.15444338349017        0.40486221818667
C           -4.81633457600503       -4.08261709989738        1.41116479760915
C           -3.51836126145914       -1.55986304123599        1.34696385948037
C           -2.96087515511661       -0.28880249000651        1.29376453442026
C           -2.13953615707410        2.22265455015132       -1.12769982617794
C           -1.19721049365037        1.12517339305535       -1.64832313192418
C            0.10566119792451        1.10333997053585       -0.93278203271037
N            0.69142266341330       -0.05304059695947       -0.42790328553510
C            2.08723104669626       -0.02982933009420       -0.10331243824627
C            2.99112051864221       -0.47151056899366       -1.27993507048774
C            4.42020721470894       -0.39330403337821       -0.87241271478373
C            5.13692005795242        0.77083079432377       -1.06027634930770
C            6.44373398623103        0.87100974926811       -0.61385041459255
C            7.05641437326998       -0.19127041097770        0.02574550746484
O            8.34241656799651       -0.19531880968913        0.48351002587310
C            9.11855658925390        0.95292887502065        0.25447494442696
C            6.32378825816334       -1.37964292887393        0.24034742024057
O            6.99736296758382       -2.37673650035464        0.88168205352523
C            6.31599994588250       -3.58455012922083        1.09636254436862
C            5.01842149465466       -1.46273391958728       -0.20571967709238
C            0.01057218553400       -1.32263829062829       -0.46886376339076
C           -3.86311686615465        3.04435293629721        0.53521096425795
C           -4.53303086290061        2.78335140486283        1.88648491752622
C           -3.32484886361943        4.47327702878400        0.49678692992967
H           -4.65075538589669        0.93688774542601       -1.34557284531560
H           -6.84086508023254        0.30699815501699       -1.85592043253352
H           -7.18763245950452       -1.13274725793007       -2.84733671179056
H           -5.64546618415449       -0.25937030284934       -3.06444281407085
H           -5.02957855664633       -3.68168012475134        2.40818031800500
H           -5.45894083831919       -4.94543379770274        1.22972743287603
H           -3.76699363289481       -4.38684948387670        1.35979562132273
H           -3.18498284378401       -2.24217867477821        2.11164853015703
H           -2.22460144688833       -0.00761358863263        2.02919013752425
H           -2.96347520436596        2.28637825817500       -1.82738298928351
H           -1.59547757433108        3.16634782337247       -1.13735803354118
H           -1.70124507641761        0.16485468981896       -1.59674584962914
H           -1.05241154263530        1.32773722755791       -2.71796574615109
H           -0.74342924843139        1.50858356232093        0.92641677117891
H            0.74376213850210        1.95790565773897       -1.06724324176445
H            2.25339709454811       -0.68323450347080        0.75604663741811
H            2.36678802021984        0.98803997618202        0.18721737264903
H            2.78147804522612        0.18583254877683       -2.12552725788291
H            2.73811882974097       -1.49343839512736       -1.55889165961124
H            4.68381159207803        1.61712003459522       -1.55602019250899
H            6.97133903341635        1.79527241690856       -0.77472347726011
H            8.69908553852741        1.82977902514155        0.75998534076012
H            9.21822064286213        1.16848477035147       -0.81636055263735
H           10.09734319602893        0.73382438325290        0.67705149407217
H            7.03110855258773       -4.24743133812546        1.57529141768018
H            5.44710687421541       -3.46161213384714        1.75738526187880
H            5.99417809343288       -4.04096409215736        0.15542824727879
H            4.44246740716171       -2.36062528060249       -0.04968875768275
H           -0.13147626581882       -1.70949581481850       -1.48933248149430
H           -0.96935273684068       -1.24271809093771        0.01258441218204
H            0.59093199562471       -2.05870757697380        0.08385027154062
H           -4.61767173403200        2.94041781517792       -0.25436410200980
H           -3.78419634604169        2.87889300220879        2.66751323245759
H           -4.94128419574967        1.77577958828629        1.93443557008124
H           -5.32909624472199        3.50869471630724        2.05410713329672
H           -2.55202440531633        4.58953903303478        1.24808734270717
H           -2.92847939031479        4.72926273361925       -0.48050741822494
H           -4.11922232590887        5.17929378356486        0.72898542459322
H           -0.75908315206790        2.77830196793785        2.82739702019784
72
 energy: -5.600889298745 xtb: 6.6.1 (8d0f1dd)
N           -1.66879049513088        2.84858365989254        2.30423571070379
C           -1.64933830218366        2.05067822696436        1.32815898763945
C           -2.74086910364049        1.96328711810632        0.29075957924066
C           -3.37772620789449        0.59781760273720        0.33559621243235
C           -4.35466558149531        0.23222452022299       -0.59083294652338
C           -4.94525239591518       -1.01481448586752       -0.54365431848297
O           -5.91062348387468       -1.45556143335015       -1.39972009431892
C           -6.40911920885775       -0.55773958420682       -2.35828030863569
C           -4.54188600261935       -1.94113021982013        0.44322587927267
O           -5.18123647519647       -3.14817504124686        0.40408221576497
C           -4.89323482294886       -4.07581893571791        1.41392534851741
C           -3.56720179875461       -1.57196188522911        1.35282553696985
C           -2.99733139014352       -0.30759067435127        1.30264335449508
C           -2.11338928604528        2.17649472410786       -1.10983744314744
C           -1.15966156035043        1.08515795734421       -1.61887585218869
C            0.14523860944143        1.08814158395016       -0.90712197128583
N            0.72374358507111       -0.05111553898823       -0.35334621679439
C            2.12790206041474       -0.01460332141554       -0.06665075760680
C            3.00710519796184       -0.42729316297476       -1.26994622267780
C            4.44447804786505       -0.36557956029274       -0.88457815320200
C            5.16346671075548        0.79667267447878       -1.06739161525537
C            6.47055757789313        0.88780411587708       -0.62273409954300
C            7.08352778364249       -0.17997417807449        0.00696123594346
O            8.37323077484895       -0.18567865007588        0.45592574066230
C            9.14313410256096        0.96541577898483        0.22104767678424
C            6.34803036156715       -1.36687591852210        0.21710949255140
O            7.01682049884021       -2.37142682565254        0.85059290802395
C            6.31776723446964       -3.56890234801668        1.06637918452170
C            5.04129644221610       -1.44232480862734       -0.22687703491032
C            0.04502526828395       -1.32605511308190       -0.38905296159957
C           -3.84812900385782        3.02559726569671        0.51501315210977
C           -4.55267758732900        2.78729754526645        1.85608043539569
C           -3.28449670405033        4.44499822625635        0.47181112176161
H           -4.64603759586746        0.93014292902742       -1.35991508673240
H           -6.83828965439831        0.33086037492454       -1.88299475398415
H           -7.19459172664652       -1.10680141000015       -2.87432503256251
H           -5.63679739754194       -0.25552205819089       -3.07957977884663
H           -5.10398332823806       -3.66899936546828        2.40911852074996
H           -5.54328097939857       -4.93474381124211        1.23658434451818
H           -3.84607922808071       -4.38557409619556        1.36420421087976
H           -3.24407197016089       -2.25483873570886        2.12094838602301
H           -2.26587383609331       -0.02809840316466        2.04378358233597
H           -2.92845661313486        2.21846868109369       -1.82579081272458
H           -1.57083951718374        3.12044992834344       -1.11430155564619
H           -1.65435740904408        0.12171222526230       -1.56644491312499
H           -1.00916653275501        1.27169393820299       -2.68780809165062
H           -0.77947338399331        1.42857014490626        1.06916084514598
H            0.79664751744877        1.91900977147214       -1.12484534047640
H            2.32369316750775       -0.68316658713635        0.77273917415721
H            2.39629355275759        1.00459238747297        0.23140202670405
H            2.78449151189121        0.24541949747788       -2.09911054031149
H            2.74608903408604       -1.44262842731964       -1.56266155183372
H            4.71181594577517        1.64977435880283       -1.55308092645598
H            6.99672030480390        1.81353093109951       -0.77560624753166
H            8.72498423435671        1.83937472212252        0.73298745320378
H            9.22960241853458        1.18269090126313       -0.85111489264059
H           10.12704888992056        0.75090740148266        0.63354257272984
H            7.02702768175734       -4.24469180943841        1.53335797069164
H            5.45464107645804       -3.43885657902708        1.73652382117765
H            5.98278060832771       -4.01681859099432        0.12617769072937
H            4.46264706702323       -2.33873754479602       -0.07290591979552
H           -0.08207612695433       -1.74189199691251       -1.40275315047545
H           -0.94226499883703       -1.23708798216824        0.07534909359723
H            0.61366722170108       -2.05061557540508        0.18869100561683
H           -4.59110848204074        2.92806757701724       -0.28689926816187
H           -3.81685759263206        2.86851165337809        2.64898405005882
H           -4.97572880067886        1.78611446702629        1.91008349447226
H           -5.33401641478164        3.53081045772985        2.00971016721136
H           -2.51906209600855        4.54731563360932        1.23055062196943
H           -2.87239570186888        4.68549304604241       -0.50292263150604
H           -4.06664221608418        5.16956201854086        0.68890951699371
H           -0.84769124833475        2.76407878572108        2.89378621783694
72
 energy: -3.960853417548 xtb: 6.6.1 (8d0f1dd)
N           -1.70490031239658        2.80883140405894        2.33203329903017
C           -1.66584871447122        1.99590851223766        1.36391844261211
C           -2.73104057054770        1.92466037991403        0.29223517793213
C           -3.39469082638177        0.57550934731176        0.33510938507410
C           -4.36808418874582        0.22252523581892       -0.59955160165610
C           -4.97597202043147       -1.01500062423075       -0.55034293396653
O           -5.94120470789590       -1.44347631307377       -1.41273753562088
C           -6.41534139174521       -0.54056589709234       -2.37881762294617
C           -4.58936145208022       -1.94249710525327        0.44253392409830
O           -5.24387854463330       -3.14185093581726        0.40292486471495
C           -4.96917851922889       -4.06916659397360        1.41576631829565
C           -3.61586485475905       -1.58394351776060        1.35848794433672
C           -3.03335133236996       -0.32645144155127        1.31107333717523
C           -2.09457007937652        2.12412288271957       -1.10625302312069
C           -1.12394645165640        1.04253791014898       -1.58995215955773
C            0.17509810444675        1.08060185622983       -0.86235827278321
N            0.75098266088562       -0.04448307528623       -0.27468312607047
C            2.16090184885904        0.00626314063854       -0.02346197816242
C            3.01339378113377       -0.38165488062077       -1.25087862506736
C            4.45840541292466       -0.33313537528247       -0.88728978841649
C            5.18131092611239        0.82626854328107       -1.06967994524026
C            6.49255058077806        0.90619250073028       -0.63301763667113
C            7.10730447728985       -0.16672190756033       -0.01360313748210
O            8.40101038820085       -0.17563821503017        0.42602125353631
C            9.16759063919498        0.97653478126480        0.18689040482126
C            6.36867656569771       -1.35189059736428        0.19342615990540
O            7.03160295208342       -2.36311707280251        0.81880962102390
C            6.32112829456208       -3.55336993963863        1.03585842873297
C            5.05999349356286       -1.41917759652024       -0.24648411089563
C            0.07842581005085       -1.32583713030699       -0.30856459015011
C           -3.82491144229914        3.00670047661013        0.49417845643246
C           -4.55590278781252        2.78693083426904        1.82476033811338
C           -3.23934067909690        4.41767957233727        0.45227417493441
H           -4.64046448892336        0.91998333798776       -1.37630834110563
H           -6.83405861136741        0.35522707963285       -1.90806752349191
H           -7.20431240965121       -1.07958456951706       -2.89934277641932
H           -5.63392639986834       -0.25382126138105       -3.09711663348722
H           -5.17740584401168       -3.65726068744105        2.40957789390289
H           -5.62808585806057       -4.92166700382313        1.23842673245192
H           -3.92502214746078       -4.38752818407687        1.36849204310763
H           -3.30169312149384       -2.26790977368867        2.12915598080822
H           -2.30544323660883       -0.05078853184134        2.05731609527560
H           -2.90286902768121        2.14202233301033       -1.83130731788573
H           -1.56006820350966        3.06933160534029       -1.11965149488647
H           -1.60856512023658        0.07540497353337       -1.53402909958260
H           -0.95816792830438        1.21265147999399       -2.65706246074801
H           -0.81380536447096        1.33888081079228        1.19561083742635
H            0.84652820320118        1.87194407752159       -1.17633242928620
H            2.38867328525211       -0.67634663366266        0.79474013175800
H            2.41724630900362        1.02747179360304        0.27858908642461
H            2.78002086194392        0.30267700910670       -2.06631011334594
H            2.74226559551850       -1.39065130681282       -1.55392138123828
H            4.72369253045141        1.68488912190379       -1.54364420449602
H            7.01979316908748        1.83217929960243       -0.77885139387723
H            8.75275885624058        1.84818301972489        0.70613063047441
H            9.24184900682400        1.19556568970680       -0.88626911981499
H           10.15656360372703        0.76436152322841        0.58874471216736
H            7.02889292832663       -4.23830536267883        1.49083581494456
H            5.46359234536319       -3.41881310549739        1.71510573321279
H            5.97426438158859       -3.99267650840057        0.09606416981632
H            4.47858147052239       -2.31399867548692       -0.09300634674966
H           -0.03473549819391       -1.76508920254392       -1.31593599896018
H           -0.91602094916324       -1.23180046443336        0.13853624112781
H            0.63987991531699       -2.03737177043266        0.29062154967687
H           -4.55945402494632        2.91789150841995       -0.31656267108209
H           -3.82959712010709        2.85308224720918        2.62668145598601
H           -5.00327469448951        1.79589518534594        1.88363863156068
H           -5.32294167721130        3.54855901060952        1.96488875718585
H           -2.47998622586695        4.50927082449898        1.21749169359317
H           -2.81422071436958        4.64774072746256       -0.51905860038963
H           -4.01203365948541        5.15605589492757        0.65855614543331
H           -0.89263608879021        2.71145568941879        2.93653028026633
72
 energy: -1.683776856034 xtb: 6.6.1 (8d0f1dd)
N           -1.71530261154594        2.74216535109199        2.34805416814618
C           -1.66465654387280        1.91729170366196        1.38870299979762
C           -2.71446240302306        1.88137155447459        0.29051937982455
C           -3.40969829327977        0.55119155513538        0.33174695243357
C           -4.38116134533477        0.21225573040255       -0.60941598898623
C           -5.00689652057645       -1.01518843383340       -0.55819870369121
O           -5.97192720462076       -1.43162858753412       -1.42666102814321
C           -6.42316493194346       -0.52511078913263       -2.40007370370017
C           -4.63702506428793       -1.94363917939956        0.44062118733519
O           -5.30678182716443       -3.13467413998221        0.40041059753333
C           -5.04592514338778       -4.06232477168731        1.41577641030480
C           -3.66520465035331       -1.59591319096072        1.36329331707224
C           -3.06959377938288       -0.34603197317220        1.31860059838574
C           -2.07703722754761        2.06911177337121       -1.10779943474821
C           -1.08850023850135        0.99870240038148       -1.56113770237443
C            0.19715425301727        1.07591865764845       -0.80436309905642
N            0.77753796530390       -0.03355209240075       -0.19354499214725
C            2.19166969900788        0.03204586309845        0.02370463455849
C            3.01598772010365       -0.33415640004124       -1.22620687296998
C            4.46600250694091       -0.29589319707553       -0.88432178690542