72
 energy: -99.594503792781 xtb: 6.6.1 (8d0f1dd)
N           -1.52889534934689        3.16280802351077        2.18855924201597
C           -1.50784995183152        2.42760114698171        1.17767756475630
C           -2.66747860289097        2.22186781214320        0.25582234041415
C           -3.16699135616006        0.78165429071197        0.42652977123885
C           -4.14227989261391        0.24785539748394       -0.42125231654081
C           -4.62779681121932       -1.04703223750070       -0.30703450267740
O           -5.60058524137081       -1.52741979493455       -1.16075160277744
C           -6.22397875379165       -0.67088260426191       -2.10021590171499
C           -4.09962428374667       -1.99916957335059        0.68948735552829
O           -4.38901627640715       -3.21920428111890        0.72765172679284
C           -5.59078251140281       -5.71284533195823        1.38148111165700
C           -3.14857326340317       -1.37162003083680        1.55643268623072
C           -2.70558167092156       -0.06899619337926        1.42896481899146
C           -2.11510911113108        2.45567399393896       -1.17809552004403
C           -1.24118111867513        1.31133841715247       -1.74170041065556
C            0.09223098521609        1.19148235905409       -1.10234551473189
N            0.62636176533724        0.05398332579441       -0.64996367418530
C            2.00435405123111        0.02846990956270       -0.22521715896686
C            2.94370029968438       -0.52300379571414       -1.31210588579867
C            4.37265275157578       -0.42612175042540       -0.85676715593465
C            5.09674773648827        0.73317534870258       -1.05492756040658
C            6.40445240396437        0.83904731538968       -0.60383846448861
C            7.01164104097126       -0.21411317001842        0.05480049568049
O            8.28734160287561       -0.22183792006638        0.52994977592277
C            9.08735612886108        0.91600881149111        0.32713325360243
C            6.27539901512738       -1.40442029446706        0.26933614142634
O            6.94678991047179       -2.38786399460658        0.92509204481353
C            6.30111280388430       -3.61716662690117        1.14970648942332
C            4.97168577371139       -1.48991238241424       -0.18338034369859
C           -0.08032548671249       -1.20394130869651       -0.70601520527928
C           -3.82946507495164        3.23375113577720        0.51640831214513
C           -4.48011891169952        2.98076088527343        1.87611003644303
C           -3.38863576567526        4.69603914740917        0.42827432065117
H           -4.52964502450972        0.90431497035439       -1.19152333499294
H           -6.70114054483005        0.19475570427939       -1.62407719751501
H           -6.99741696463620       -1.26068748219170       -2.59736697869225
H           -5.52563962521578       -0.30505308869298       -2.86498592639681
H           -5.86479155818221       -5.38991589495748        2.35913203080159
H           -6.31420445648011       -5.93755825972563        0.61513602065225
H           -4.57210748599077       -6.04405402163171        1.33461675375036
H           -2.75696131732172       -2.00316916897726        2.33472216466759
H           -1.98618222403375        0.30672819809659        2.14355402441233
H           -2.96806385301768        2.58781068597675       -1.85178086585814
H           -1.52899435201930        3.38111991814103       -1.18521642919864
H           -1.78201160968177        0.37398525563846       -1.67349965335660
H           -1.11063830234130        1.53196646343262       -2.81259665471711
H           -0.60790382153571        1.85879794295044        0.87783866702935
H            0.77172951544063        2.02971115116868       -1.14448451199546
H            2.08942918818600       -0.58979889374342        0.67132560349151
H            2.31853479727494        1.04214534444778        0.03272403280855
H            2.79968022617577        0.06318909438781       -2.22092503582991
H            2.68107205442427       -1.55958943483709       -1.52347765390179
H            4.64877135059714        1.56894408902015       -1.57130524517461
H            6.94485990647029        1.75640741911210       -0.77771641727292
H            8.67055112804369        1.79565309950596        0.82805540777849
H            9.21977246296945        1.13041471941631       -0.73818801373851
H           10.05181344056858        0.67311235738294        0.76935610474933
H            7.03675069898981       -4.24129233363436        1.65464188290230
H            5.42376219093128       -3.50074317625694        1.79410195171589
H            6.00512407107986       -4.09580344077044        0.21045229709885
H            4.40329603802926       -2.39395827446517       -0.02749587506363
H           -0.25712976988566       -1.51549042133962       -1.73855589372732
H           -1.04089277329504       -1.13436464822647       -0.18922484785437
H            0.51210948957606       -1.96975949805338       -0.21526841949108
H           -4.58650032996752        3.06887537642304       -0.26066310489085
H           -3.74726517845964        3.13518274172027        2.66065864536053
H           -4.85554241922231        1.96422783958468        1.94207759377711
H           -5.30812482881570        3.67059178333364        2.02830500729881
H           -2.63810648399944        4.91082102476228        1.18227350117615
H           -2.98815932969430        4.94677837936157       -0.55148529804982
H           -4.24477542484013        5.34069565314678        0.61344035504716
H           -0.65872581284561        3.22816603619919        2.71478720235632
