72
 energy: 0.000000000000 xtb: 6.6.1 (8d0f1dd)
N           -1.47310934822924        2.74401318561852        2.22063942287560
C           -1.55658894218425        2.16490305624665        1.13274284460745
C           -2.74549225258129        2.05621251263064        0.23826250649470
C           -3.31377583855761        0.64333417511334        0.32332515650284
C           -4.30230195924506        0.24487112428158       -0.58026167086503
C           -4.85238808050968       -1.02286499940159       -0.53363593669082
O           -5.81420026757557       -1.48606047972767       -1.36157895357670
C           -6.39655692584623       -0.60827005826649       -2.29568495601309
C           -4.39972542350640       -1.94646120241305        0.44396933240983
O           -4.98748357557592       -3.16146026488900        0.41085995818162
C           -4.66362171172287       -4.10093865802695        1.40909140816864
C           -3.42072545213514       -1.54561399150247        1.33436558640148
C           -2.88302826362110       -0.26315802838497        1.27400162590187
C           -2.19303818453636        2.30467021687947       -1.18742988123374
C           -1.26651549989641        1.17243380322503       -1.65249445018642
C            0.01082525039567        1.09745464658138       -0.89354811789923
N            0.61779399208289       -0.02034948241203       -0.57705527866251
C            2.00145228921113       -0.02376006609561       -0.15611401051620
C            2.92554961797610       -0.53865287672537       -1.27700100652360
C            4.35756883501756       -0.43050761225877       -0.83075552032494
C            5.07346182539911        0.73206415878124       -1.03980975472950
C            6.38628045899965        0.84224449235903       -0.60344828301384
C            7.00047329721665       -0.20824758267940        0.05722314949100
O            8.26703733840855       -0.21011315050632        0.52410948507466
C            9.06912311989339        0.92943609656965        0.31863060963839
C            6.27040022445068       -1.40439766990411        0.28033468609137
O            6.94830004375713       -2.38012947787858        0.92752007684741
C            6.31537376337817       -3.61583233633369        1.15217722400438
C            4.96302840674480       -1.49347485723979       -0.16064431849589
C           -0.05511211878686       -1.29906259857679       -0.62085692079872
C           -3.86758072907722        3.07992629005348        0.58498065642721
C           -4.49286201346546        2.77383518785172        1.94313307512182
C           -3.39165211343248        4.52917708609625        0.54797528556046
H           -4.66030069703099        0.94509076131725       -1.31640581036773
H           -6.85037992114187        0.25803164586058       -1.80468862056629
H           -7.17287509152171       -1.18600121846629       -2.79318183475679
H           -5.66836870040540       -0.26952968819383       -3.04040283452035
H           -4.88416765986127       -3.71589494995018        2.40913564538747
H           -5.29223619720187       -4.96637504833431        1.20969248126828
H           -3.61139846644506       -4.39919876145526        1.35529370415983
H           -3.07077825100221       -2.21868786295666        2.10002682176568
H           -2.14562774333496        0.02067850888151        2.01001363031684
H           -3.02188903413801        2.38238034416975       -1.88813562572432
H           -1.65198546223364        3.25146730843841       -1.20556295755141
H           -1.81103391047759        0.23006526775522       -1.62116316669324
H           -0.99335697743926        1.37490224954061       -2.69443281971844
H           -0.67628070635666        1.65183902374723        0.61785732877701
H            0.63525847086258        1.98466388206871       -0.92314029755375
H            2.11132572081740       -0.65949698961381        0.72532619960637
H            2.30680494458141        0.98978260887088        0.11078973822125
H            2.76694224489122        0.06750735773687       -2.17075272340394
H            2.67954606229959       -1.57455642411728       -1.51167757545099
H            4.62170041431221        1.56295626549351       -1.56123593485311
H            6.92357738865082        1.75715832247601       -0.79119604059515
H            8.65159193263071        1.81001840117181        0.81701562739969
H            9.20136256512460        1.14042868409438       -0.74698998879646
H           10.03428931104811        0.69003246578081        0.76064945022918
H            7.05567240429544       -4.23621211097668        1.65347581279537
H            5.43848051513375       -3.50813590722545        1.79970582482858
H            6.02060097762632       -4.09420535105165        0.21253284608183
H            4.40102799328555       -2.40127288651695       -0.00490198294521
H           -0.22071301762289       -1.61775598610935       -1.65116024301020
H           -1.01972267469312       -1.24102728946113       -0.10935207845464
H            0.55899959333766       -2.04486104898380       -0.12333731565713
H           -4.63991918782192        2.95501120214274       -0.18098089750912
H           -3.76095251366987        2.90314731895452        2.73380846416528
H           -4.87457659255110        1.75695657819473        1.97884621460846
H           -5.31925601899505        3.45579242388173        2.12325583951056
H           -2.60025614255587        4.69225089676674        1.27368930043085
H           -3.03987434616939        4.81897697030947       -0.43870979129779
H           -4.22191779840287        5.18069696155015        0.80616701440619
H           -0.59832439338922        2.77744720721660        2.72959009765665
72
 energy: -4.272043478350 xtb: 6.6.1 (8d0f1dd)
N           -1.48495760272330        2.80495739221631        2.23173460079340
C           -1.55483889147206        2.17651724335558        1.15184235474075
C           -2.74026866273361        2.07283854484120        0.24432940238348
C           -3.30674012927667        0.65873694531283        0.33398379214248
C           -4.29227726154242        0.24630504920130       -0.56512995881514
C           -4.83294306372482       -1.02738313628536       -0.51428930998093
O           -5.79973521308565       -1.49237123467319       -1.34701067851564
C           -6.38198902439822       -0.61353611358121       -2.27972346827194
C           -4.38060218406413       -1.95460469743971        0.46476751458531
O           -4.97478558397635       -3.18356769355066        0.42785678899058
C           -4.71974501706109       -4.19089155102688        1.39894618875527
C           -3.40506225908420       -1.53485149966711        1.35131026697031
C           -2.87637590215299       -0.24598110498184        1.28652251680140
C           -2.18921264752181        2.31310731529030       -1.18599783058881
C           -1.26106296969712        1.19266473057654       -1.67809040682727
C            0.01137886719165        1.12859114313852       -0.90415909321326
N            0.63105791046507       -0.03292998964965       -0.57164439327206
C            2.00573510861082       -0.03051167753836       -0.16180687486780
C            2.93466872933049       -0.54023545306796       -1.28130262150522
C            4.36218097694574       -0.43333575970240       -0.84104014155739
C            5.07737598222999        0.73162707530997       -1.04365280422232
C            6.38760358767753        0.84253681905277       -0.60254657042872
C            7.00031473766175       -0.20872558564518        0.05787111403706
O            8.27455956178013       -0.21235260333822        0.52689043378061
C            9.07113842564182        0.92798897849736        0.31953659207283
C            6.27095777541671       -1.40248092985948        0.28020850786390
O            6.95181001361732       -2.38241180219909        0.93001840596429
C            6.31516381395624       -3.61533367634883        1.15253355652656
C            4.96650081429231       -1.49373876685780       -0.16458938306371
C           -0.05275425951453       -1.29823955171765       -0.62505912074848
C           -3.86761728826377        3.09240619392449        0.57661614198116
C           -4.49337626306008        2.79389925841674        1.93684146446095
C           -3.39370046451604        4.54350885626667        0.53829365218981
H           -4.64954298017068        0.94236227704547       -1.30763428752425
H           -6.83747666168449        0.25350619157176       -1.79020162890377
H           -7.15844651018521       -1.19232273051977       -2.77726127428995
H           -5.65671072626338       -0.27143826500852       -3.02608149226046
H           -4.95623743310645       -3.85508984327230        2.41455845251896
H           -5.36916748779545       -5.03650298612315        1.16088933645604
H           -3.68136092781896       -4.53987332350633        1.36483713547038
H           -3.04546888651397       -2.20307269292833        2.11647300386359
H           -2.13442040546719        0.04512252258301        2.01458683378507
H           -3.02055354630895        2.40119934117943       -1.88568707956374
H           -1.64175653698469        3.25694134596511       -1.20350194929846
H           -1.80206060281023        0.24814856935224       -1.63023925587202
H           -1.01792423290044        1.39220028261327       -2.73050372578462
H           -0.67644089214260        1.67013132278915        0.65157243897143
H            0.64992174808272        1.99984976135677       -0.96119271670838
H            2.11782193781740       -0.65989559787414        0.72510468135227
H            2.30171704451717        0.98757292039119        0.10236476146883
H            2.76781120785988        0.06697490177454       -2.17254811647699
H            2.68117188695234       -1.57497853173224       -1.51296434915684
H            4.62329979310712        1.56322273022672       -1.56172632594994
H            6.92564372518257        1.75801171407785       -0.78906323553879
H            8.65212444012773        1.80894112439299        0.81705784824987
H            9.20191612705927        1.13993705661442       -0.74668107913408
H           10.03717392271374        0.69023792582167        0.76116580101899
H            7.05424882505294       -4.23757529983899        1.65427482243886
H            5.43709395857847       -3.50680253308128        1.79850581545182
H            6.01889855558991       -4.09310064640880        0.21261383027376
H            4.40173101313618       -2.39971372838625       -0.00643102974984
H           -0.22411473015182       -1.61455834082498       -1.65856386260724
H           -1.01816401877635       -1.23225867274489       -0.11497242681260
H            0.55568754006015       -2.04797048700183       -0.12713174339093
H           -4.64101864102010        2.96835903831744       -0.18986861831913
H           -3.75573895742414        2.92319740029989        2.72260088330259
H           -4.87169557929859        1.77534550872828        1.97456798682751
H           -5.32109166712007        3.47612831928911        2.11711806690689
H           -2.60287582037801        4.70552558498157        1.26486288670838
H           -3.03513754944025        4.82762699449919       -0.44795138812401
H           -4.22550429188276        5.19774505271887        0.79025047629428
H           -0.60385546025985        2.81395484646481        2.73522641740479
72
 energy: -0.115873588111 xtb: 6.6.1 (8d0f1dd)
N           -1.50329492899875        2.89554965845437        2.23613043351814
C           -1.54517578352564        2.20443014983827        1.17070402879858
C           -2.73087479941486        2.09775683306687        0.25071342457565
C           -3.29190144627800        0.67931387859806        0.34794625076745
C           -4.27554844350443        0.24442788246638       -0.54202420518826
C           -4.80276954823989       -1.03744706139683       -0.48138271650120
O           -5.77622527547955       -1.50193125496891       -1.32324222682309
C           -6.35802702328353       -0.62190649928549       -2.25348285463050
C           -4.35006352839484       -1.96938043331536        0.50094196790860
O           -4.95045845047502       -3.21944149368994        0.45786692067083
C           -4.80809471147654       -4.33447010253091        1.38413469470471
C           -3.37857893352290       -1.51981466987861        1.37861558716485
C           -2.86274823210270       -0.22268864124401        1.30510785503189
C           -2.18190465212143        2.33179745772504       -1.18492425830776
C           -1.25524519833517        1.21798916107424       -1.70198368756446
C            0.01407275166094        1.16962371449737       -0.92092112667352
N            0.64452522991113       -0.04286326143789       -0.56757494749088
C            2.00748269984690       -0.03216292528255       -0.17146651481091
C            2.94540460481085       -0.54097364613771       -1.28685221662840
C            4.36671780396943       -0.43572340394403       -0.85103803407975
C            5.08270088853867        0.73056873918539       -1.04769099399423
C            6.39066515210358        0.84235104141558       -0.60177170611319
C            6.99983309581238       -0.20972355575914        0.05789693486168
O            8.28406012447210       -0.21536178804154        0.52998226978149
C            9.07334138276078        0.92551361864194        0.32083299445991
C            6.27206893311193       -1.39951147182818        0.27894928630041
O            6.95618046627158       -2.38545819006531        0.93278433113859
C            6.31437070912667       -3.61414799710135        1.15278234915158
C            4.97040586259378       -1.49333553599483       -0.16989522040260
C           -0.05316736712704       -1.28980218693378       -0.63521794639597
C           -3.86351163179151        3.11285714174497        0.56494586225083
C           -4.49307309669165        2.82513265474705        1.92694793741524
C           -3.39523236395891        4.56781925228986        0.52142433420124
H           -4.63375357796067        0.93469632362594       -1.29282398607823
H           -6.81683047244167        0.24578544718177       -1.76615230379262
H           -7.13448307053349       -1.20273811911962       -2.75072265332519
H           -5.63754475750416       -0.27509689164320       -3.00293707567444
H           -5.07449424743725       -4.07994408220579        2.42272818417994
H           -5.49601372511025       -5.14120041043364        1.07427777487883
H           -3.79488436062428       -4.76879483395994        1.37903982177551
H           -3.00619105179032       -2.18069526008915        2.14508273728135
H           -2.11770461603462        0.08208967278914        2.02489072305103
H           -3.01821023414836        2.43424614817027       -1.88086374034430
H           -1.62521105167129        3.27159245932870       -1.20041441788938
H           -1.79029072847384        0.26979680393444       -1.64049242335671
H           -1.04931686433945        1.41794501140998       -2.76599762545140
H           -0.67459208618272        1.69474857540124        0.70303316388029
H            0.67585974991086        2.01467719761100       -1.01002908128216
H            2.12690066211928       -0.65592483350566        0.72218088684106
H            2.29663071956612        0.98957225643201        0.09113279860523
H            2.76995738105078        0.06617975059442       -2.17637353923628
H            2.68279209390060       -1.57473786384690       -1.51560302592079
H            4.62582849092989        1.56249316359803       -1.56273391813442
H            6.92902655253511        1.75903636122799       -0.78556537989601
H            8.65343914811296        1.80732826964366        0.81747604588430
H            9.20337197879302        1.13915816315055       -0.74599176599943
H           10.04078832773531        0.69035972741077        0.76182570928539
H            7.05154615541752       -4.23914964576626        1.65514753280311
H            5.43501940575761       -3.50484949914888        1.79715210785777
H            6.01655347312007       -4.09182748958550        0.21267672957990
H            4.40187222249695       -2.39692853200174       -0.00950254743006
H           -0.23068248426255       -1.60721470095270       -1.67150299361236
H           -1.01912180836870       -1.21864610530960       -0.12614684055100
H            0.54808129281905       -2.04616097402442       -0.13652479504816
H           -4.63706229976541        2.98716835214174       -0.20294894708870
H           -3.74983522678845        2.95690358757573        2.70702999481945
H           -4.86838685438354        1.80506614352969        1.96901635775584
H           -5.32169375135038        3.50819951748724        2.10513838058744
H           -2.60777852560773        4.73084718091405        1.25103520085835
H           -3.02723788688079        4.84406203361623       -0.46404456689500
H           -4.23034630860673        5.22380120227610        0.76293035403291
H           -0.61003715738550        2.86846059970637        2.72882484841181
72
 energy: 13.753720311053 xtb: 6.6.1 (8d0f1dd)
N           -1.52303540799185        2.98036827854481        2.23953473011289
C           -1.53284742792706        2.23824867299573        1.18633377573458
C           -2.72116941978835        2.12390673855998        0.25625707421589
C           -3.27559503526900        0.70017135040332        0.36108990643570
C           -4.25797316533324        0.24083802129439       -0.51881771248992
C           -4.77205297596538       -1.04937708169710       -0.44658438852849
O           -5.75177883058155       -1.51126827453007       -1.29889993739096
C           -6.33306827026887       -0.63032481169197       -2.22620868261112
C           -4.31884181359580       -1.98608232217773        0.53991174027436
O           -4.92239840307912       -3.26033071003693        0.49351545705571
C           -4.89935235499558       -4.48594116693173        1.37089409892598
C           -3.35021388581050       -1.50347316161680        1.40608696228385
C           -2.84727859032667       -0.19892133095867        1.32323822353467
C           -2.17431292958589        2.35299829079701       -1.18441715935237
C           -1.25069344222703        1.24266621588457       -1.72236081918963
C            0.01655129448346        1.21024978556010       -0.94090318671591
N            0.65606753673861       -0.05046744960949       -0.56519477851961
C            2.00800385055392       -0.03109225276276       -0.18103967421484
C            2.95513150650713       -0.54114402308471       -1.29249452306770
C            4.37050147385599       -0.43751474673888       -0.85917117135836
C            5.08793767360183        0.72960509661670       -1.05104665719648
C            6.39407096479677        0.84222569700683       -0.60113806213767
C            6.99915435668288       -0.21092118473002        0.05769238945458
O            8.29294587312543       -0.21826807413352        0.53284055363989
C            9.07529369621107        0.92270753452334        0.32227493934040
C            6.27321169893215       -1.39669898087563        0.27742804495162
O            6.96003477695515       -2.38862386265574        0.93525995274866
C            6.31335270582587       -3.61297817631549        1.15291552891954
C            4.97380977513605       -1.49299298225106       -0.17483407114292
C           -0.05453389601417       -1.27937724643543       -0.64662614620948
C           -3.85829168715093        3.13466121231785        0.55372401688333
C           -4.49236942951408        2.85739844948775        1.91698804986399
C           -3.39609448114649        4.59368294896801        0.50358335087461
H           -4.61799938140601        0.92562509018143       -1.27727269098701
H           -6.79555604265991        0.23780182328424       -1.74106986000935
H           -7.10938022032577       -1.21356147770560       -2.72289539125630
H           -5.61764872654856       -0.27891318281366       -2.97910230073682
H           -5.19927665361478       -4.31438834728959        2.42808255347814
H           -5.62603812101348       -5.24803703559105        0.98512840836903
H           -3.91632716298917       -5.00729024219653        1.39084105597581
H           -2.96463520556918       -2.15536126240426        2.17533856262328
H           -2.10057434057873        0.12048145725074        2.03626640060749
H           -3.01532532019501        2.46928239577006       -1.87607893997268
H           -1.60803786765242        3.28834823674297       -1.19759685828627
H           -1.77939016890967        0.29098163678891       -1.65047896019499
H           -1.07834480733584        1.44422987028745       -2.79605796609996
H           -0.67153904512886        1.72268864498220        0.75525345769317
H            0.70223371379293        2.02769669737251       -1.05607276650097
H            2.13603566272410       -0.65056650423019        0.71890425021991
H            2.29299504631095        0.99314960248826        0.08025625030987
H            2.77272958486005        0.06528503675887       -2.18117882606405
H            2.68416743342292       -1.57422472720371       -1.51841562856902
H            4.62850310468764        1.56162503517620       -1.56381629709920
H            6.93242684144634        1.76009598061732       -0.78214134408074
H            8.65508979562930        1.80557238820810        0.81820434458293
H            9.20518477655210        1.13823118428001       -0.74505700357622
H           10.04424298576062        0.69022780196021        0.76260795677102
H            7.04857149152257       -4.24075419995032        1.65590494519943
H            5.43288545256457       -3.50308986243747        1.79595779885713
H            6.01422881038725       -4.09085944985386        0.21270239199007
H            4.40172617168358       -2.39436282117604       -0.01280554851078
H           -0.23727375413661       -1.59878466382096       -1.68507311040804
H           -1.02086738475281       -1.20477406593320       -0.13818811940882
H            0.53967011382811       -2.04308733399120       -0.14721608884195
H           -4.63117696842694        3.00588844057215       -0.21603965782885
H           -3.74491111462398        2.99259382202750        2.69222564315556
H           -4.86530632207755        1.83621536372342        1.96354295875195
H           -5.32147930971317        3.54142685566100        2.09196736961896
H           -2.61314790328686        4.75922342372874        1.23696185358563
H           -3.01901171445373        4.86211392906167       -0.48101272398097
H           -4.23498506242919        5.25030910129662        0.73390995099187
H           -0.61472532729869        2.92432267672353        2.71616863696674
72
 energy: 35.111880379621 xtb: 6.6.1 (8d0f1dd)
N           -1.54790954277090        3.04981327804822        2.24065605739677
C           -1.51358420884297        2.28253582454244        1.19639409184285
C           -2.71132599198218        2.15123194851827        0.26046817115621
C           -3.25829889526807        0.72160691511595        0.37096809978497
C           -4.24111731965837        0.23608006130596       -0.49820189291924
C           -4.74333150328444       -1.06205934726255       -0.41191683642697
O           -5.72855131071753       -1.51687029759538       -1.27812297086073
C           -6.30929580783292       -0.63692215910153       -2.20094132791381
C           -4.28942170218536       -2.00301865216264        0.57983624790076
O           -4.88662430429910       -3.31025171324804        0.54048134929488
C           -4.98748157175762       -4.64274256748238        1.36509692308355
C           -3.32150631418741       -1.48347770233537        1.42930024651882
C           -2.83058822427664       -0.17526581441888        1.33850637632012
C           -2.16638807157687        2.37727380696074       -1.18532743482944
C           -1.24854096249652        1.26258882741847       -1.73395966717679
C            0.01833179617457        1.24858559536699       -0.96905016464059
N            0.66277900157031       -0.05396892801722       -0.56554751166878
C            2.00504713019552       -0.02460286908076       -0.18973354424545
C            2.96278492876274       -0.54100649162481       -1.29800878376267
C            4.37290214450601       -0.43849535724299       -0.86324326737457
C            5.09313807190074        0.72832531466895       -1.05317053265445
C            6.39851849468513        0.84216592394677       -0.60079287744610
C            6.99777844482494       -0.21244126535812        0.05698625733328
O            8.30060771172187       -0.22051915320271        0.53521458853523
C            9.07635906011708        0.91936147065169        0.32386156608559
C            6.27490190124718       -1.39382218133249        0.27530871917897
O            6.96310826790111       -2.39195786989757        0.93748393901836
C            6.31221100186601       -3.61154054618577        1.15284601284399
C            4.97654671246394       -1.49290318589568       -0.17939985140611
C           -0.05743694418490       -1.26541528212280       -0.65940137339377
C           -3.85147658906145        3.15697117460747        0.54456784383808
C           -4.49137098449703        2.88797712333825        1.90781550417039
C           -3.39585636579126        4.62020683431113        0.48575949256914
H           -4.60325453918138        0.91767729854754       -1.26227974695706
H           -6.77596673306755        0.23100625192690       -1.71752183291593
H           -7.08509420827318       -1.22391746954473       -2.69604225447118
H           -5.59905038085781       -0.28167570803439       -2.95767918173036
H           -5.32489468612328       -4.54689729555738        2.42568326478757
H           -5.74657567038858       -5.35219048822260        0.90547897378915
H           -4.04434686901478       -5.24139494210888        1.39648024457389
H           -2.92361040020210       -2.12592990387712        2.20368308844929
H           -2.08441479760669        0.15888364650956        2.04823930181171
H           -3.01210159551918        2.50482805488901       -1.87081295134775
H           -1.59070409811098        3.30749316093098       -1.19538719728643
H           -1.76946143584293        0.30802976903116       -1.66079123979475
H           -1.10284678653119        1.46962392645669       -2.81364585975494
H           -0.66861504718848        1.75256547781969        0.81178351263887
H            0.72943257011114        2.03393356735742       -1.09524864585393
H            2.14601491988971       -0.64436882274682        0.71534988416204
H            2.29250495827279        0.99878464305512        0.07153824343286
H            2.77601030378377        0.06396036253581       -2.18714549057758
H            2.68538171411494       -1.57410316500247       -1.52194091575510
H            4.63117183103901        1.56010686482291       -1.56493975991257
H            6.93569029706458        1.76131132438997       -0.77872363111754
H            8.65725003291378        1.80386706955224        0.81931269076423
H            9.20746329828236        1.13720542145297       -0.74383074269405
H           10.04730105453700        0.69013786271369        0.76334662750108
H            7.04531641023549       -4.24232538353488        1.65639881173785
H            5.43092610402755       -3.50178121408153        1.79515852529143
H            6.01234394279659       -4.09032231635308        0.21265875239064
H            4.40123827760954       -2.39215944039979       -0.01647623653168
H           -0.24341855828640       -1.59066484233422       -1.69797198293956
H           -1.02329595640080       -1.19252540899766       -0.14999599588225
H            0.53057763256587       -2.03859715955537       -0.15889105395619
H           -4.62255670557269        3.02292781557138       -0.22788142278796
H           -3.74183540891750        3.02799490111744        2.67909629563204
H           -4.86317644414818        1.86657673888315        1.95858892289099
H           -5.31968314328195        3.57297102525015        2.07861125358548
H           -2.61907703900526        4.78890311495075        1.22397268585112
H           -3.01108014604875        4.88116520144657       -0.49769658563337
H           -4.23852557838175        5.27519110318881        0.70515676437745
H           -0.61804637567778        2.97555801479059        2.69211796653980
72
 energy: 58.413640049230 xtb: 6.6.1 (8d0f1dd)
N           -1.57376274805769        3.09841582751308        2.23398569376749
C           -1.48947554943017        2.33695660722417        1.20421256974349
C           -2.70338533416161        2.17507864902160        0.26406260845644
C           -3.24287958671377        0.74037323187439        0.38062376873101
C           -4.22564306482694        0.22928262095124       -0.48046626115677
C           -4.71900037343715       -1.07522170575494       -0.37917077022582
O           -5.70570177288146       -1.51700745704494       -1.26177217793338
C           -6.28717087650223       -0.64214247141522       -2.17761424872899
C           -4.26589028149965       -2.01906792735106        0.61808600163383
O           -4.84108548706282       -3.37280248831988        0.59937318067978
C           -5.06989587347095       -4.80153631571271        1.36888586796243
C           -3.29524148325452       -1.46213520007195        1.44671656294296
C           -2.81393269540312       -0.15610214987290        1.35304610940865
C           -2.15845315158075        2.40220093321834       -1.18693084455818
C           -1.24740523044362        1.27621514113156       -1.73545610790450
C            0.02082363943269        1.27715895354971       -1.01188052073317
N            0.65927126037437       -0.04575048708597       -0.57265843759489
C            1.99838843297509       -0.01117164138588       -0.19605940257784
C            2.96630499612374       -0.54055900900838       -1.30433575284186
C            4.37485752835803       -0.43862631264440       -0.86261972577491