72
 energy: -103.310562824419 gnorm: 0.101195459364 xtb: 6.6.1 (8d0f1dd)
N           -1.49820436289794        2.76971628377588        2.23896293962012
C           -1.57123867872262        2.17058064981245        1.15796607029611
C           -2.75170722908497        2.06362053520448        0.24954343503953
C           -3.31632993915788        0.64960848634281        0.33070022305567
C           -4.29586480998126        0.24695211203564       -0.57740195609301
C           -4.84206284834523       -1.02270104678124       -0.53444463681613
O           -5.79725778391331       -1.49142837561533       -1.37124925118095
C           -6.37467378318192       -0.61380133345953       -2.30753976066054
C           -4.39465964115820       -1.94330335437061        0.44587674688411
O           -4.97846146931626       -3.16379653801141        0.40919079349153
C           -4.65888273082551       -4.09885066650904        1.41086900321858
C           -3.42477458669594       -1.53878873206807        1.34321441539626
C           -2.89113393487899       -0.25488658862457        1.28556294306109
C           -2.19111659971755        2.31243270372221       -1.17018999622179
C           -1.25777036449111        1.18979668849017       -1.64439763968375
C            0.01321649039618        1.11749035784343       -0.87967125741271
N            0.63579658666885       -0.01664438368513       -0.55355264434935
C            2.04800376186413       -0.02261913736732       -0.15964610240950
C            2.94117038602170       -0.59173219576674       -1.32143276978571
C            4.36716893460398       -0.46165882716013       -0.86859171534926
C            5.07849113666648        0.70495533360068       -1.07479972756619
C            6.38368777525145        0.82478338135273       -0.62545424215982
C            6.99563037216196       -0.21829297118934        0.04756471977709
O            8.25673431234306       -0.20918420320142        0.53320649479642
C            9.05020127442586        0.93671228144414        0.32813635537666
C            6.27336210956378       -1.41806861340262        0.26696986138972
O            6.95214667566330       -2.38587530540981        0.92869037930568
C            6.32555717777362       -3.62509488991527        1.15018797579702
C            4.97312183203969       -1.51837708895403       -0.18750337696257
C           -0.03900710834361       -1.28786148151336       -0.60998804755398
C           -3.88015441345312        3.08123667487911        0.58336201085336
C           -4.51430933415902        2.77744172887270        1.93852655009007
C           -3.41096561250105        4.53277830173648        0.54671965775823
H           -4.64874262998751        0.94442588571069       -1.31916053960032
H           -6.83258759015050        0.25227136490855       -1.81965404633781
H           -7.14667003261883       -1.19325449782823       -2.80993569730284
H           -5.64287281308073       -0.27302992904558       -3.04729418196499
H           -4.88882402412453       -3.71378410069079        2.40909686588057
H           -5.28215229432065       -4.96749349130454        1.20752482661240
H           -3.60544286805478       -4.39305383284381        1.36563958906731
H           -3.07822722714214       -2.21045762229778        2.11243630936099
H           -2.15991581927085        0.03291669083865        2.02642612135551
H           -3.01655891500006        2.39579482762621       -1.87616308101266
H           -1.64871454195711        3.25838597233865       -1.18301770362973
H           -1.80005145623202        0.24161505309044       -1.60859035258812
H           -0.99977409444540        1.39422908031973       -2.68975899004709
H           -0.69019154251635        1.66050032228029        0.66167241821285
H            0.63984543047635        2.01222848146249       -0.90661525657323
H            2.13605763925123       -0.65580693488855        0.72775399579611
H            2.33232831945564        0.99653456473758        0.14084605391771
H            2.77687536729544        0.02427097647729       -2.20676909850152
H            2.69426455135168       -1.61637593705746       -1.54454528243466
H            4.62661711218703        1.52969988733613       -1.60429838010663
H            6.91628102600503        1.74260601439591       -0.81119364118453
H            8.62039441521893        1.81541697123413        0.81694469056180
H            9.19271962170478        1.14574947174636       -0.73614279248763
H           10.01039928572117        0.70821861637677        0.78401526074181
H            7.06368833937343       -4.23810667962869        1.66195501872244
H            5.44024703802451       -3.52506395382436        1.78418244677690
H            6.04676680506451       -4.10973200247503        0.20886846056806
H            4.41621776189595       -2.43010591881426       -0.03310406791339
H           -0.20274525850387       -1.59523482084452       -1.64476061906868
H           -1.00632262436419       -1.23325385250435       -0.10152113802678
H            0.57675918893073       -2.03449973673702       -0.11620966385986
H           -4.64724540098638        2.95384809441027       -0.18590135294421
H           -3.79018371970384        2.91417217899170        2.73116488541624
H           -4.89005207236822        1.75783851178999        1.97489406967569
H           -5.34664211552836        3.45522651617401        2.11100306186740
H           -2.62657708361213        4.69899784854418        1.27651270400364
H           -3.05389986491714        4.82062222213069       -0.43829407062843
H           -4.24548695592324        5.18293031629541        0.79768418809189
H           -0.63220816006866        2.80058222796616        2.75658151709434
72
 energy: -103.314542644297 gnorm: 0.037239432082 xtb: 6.6.1 (8d0f1dd)
N           -1.51577942110563        2.80182118953710        2.25431690602180
C           -1.57619414836101        2.16521588133488        1.17799135176259
C           -2.75301027869344        2.06701167577728        0.25656332809560
C           -3.32071369408447        0.65504989817549        0.33538393915331
C           -4.29846968326309        0.24832976489979       -0.57415456366700
C           -4.84130773523603       -1.02229776237048       -0.53325813838327
O           -5.80058921765498       -1.49334944433397       -1.37267995428389
C           -6.37418845931285       -0.61409191410086       -2.30797076726735
C           -4.39497499712159       -1.94132453007485        0.44560546885152
O           -4.98165398947358       -3.16657362727435        0.40823940390060
C           -4.65845200973162       -4.09861349999738        1.41007908816292
C           -3.42808205302756       -1.53533599309005        1.34519116267258
C           -2.89762185260247       -0.25023453837381        1.29014573620175
C           -2.19104902191405        2.30905390528632       -1.16787439829694
C           -1.25222296987146        1.19699020096810       -1.66252383053596
C            0.01767140973261        1.13598049847481       -0.88438673433115
N            0.64268799462870       -0.03088775683696       -0.54356031544292
C            2.03622267355594       -0.04360929213581       -0.16699140632876
C            2.94584056655732       -0.57372650074087       -1.30805915667699
C            4.37525418032322       -0.46511634308225       -0.87915476785102
C            5.08481064940260        0.70276249691766       -1.08065858923503
C            6.38774188093482        0.82470793223390       -0.62391509591458
C            6.99868681772764       -0.21888986887487        0.04948010003685
O            8.26684355307529       -0.20998140795672        0.53627624924705
C            9.05357255939544        0.93726350502866        0.32990334864221
C            6.27677072162143       -1.41685584434380        0.26795530166318
O            6.95706341699959       -2.38866084514509        0.93230866131364
C            6.32626359257234       -3.62521734707525        1.15031074111151
C            4.97909198120964       -1.51941374453840       -0.19252966989377
C           -0.03722145193316       -1.29528949666222       -0.60921518292640
C           -3.88660264312682        3.08027339034099        0.58096702283665
C           -4.51864364304852        2.77942130118591        1.93804824539331
C           -3.41475155436278        4.53186093327848        0.54731657102602
H           -4.64703712620391        0.94393276544991       -1.31964265666739
H           -6.83080702062626        0.25277721759986       -1.81934165027545
H           -7.14717467764134       -1.19152144791023       -2.81227999432860
H           -5.64074459256555       -0.27221380538667       -3.04610360330347
H           -4.88709772090070       -3.71255051779862        2.40872316165311
H           -5.28083828186103       -4.96896044974988        1.20898187562567
H           -3.60390509194939       -4.39088083418223        1.36579623569980
H           -3.07692783866449       -2.20975355301926        2.11040466005554
H           -2.15925316025395        0.03556957749682        2.02333171733700
H           -3.01935783103683        2.39854546474589       -1.87222984332713
H           -1.64676747960875        3.25450478686906       -1.17800813044276
H           -1.78763647211422        0.24786574199675       -1.61607139669422
H           -1.02131092555992        1.40029730143179       -2.71805527204027
H           -0.69875069054441        1.65143861716450        0.69537245115025
H            0.65642753645023        2.01044905502499       -0.94059057778840
H            2.15287906601260       -0.67280019635559        0.72074444110133
H            2.33772348541061        0.97319202842072        0.10210802902402
H            2.76858530858973        0.03210890426154       -2.19766023504518
H            2.68465406510183       -1.60466171072976       -1.52515221483675
H            4.62837538503831        1.52937671345553       -1.60431987853244
H            6.92024282184693        1.74382689263048       -0.80744665454972
H            8.61949601635610        1.81630192058710        0.81728401574936
H            9.19272263754220        1.14487728420346       -0.73596187555152
H           10.01651826605753        0.71204318411077        0.78381613985099
H            7.06294327359474       -4.24082102074482        1.66333349277931
H            5.43880030487931       -3.52229381484265        1.78328136165978
H            6.04602619277705       -4.10799596704031        0.20787838692965
H            4.41775951845387       -2.42766188846565       -0.03423240376669
H           -0.20534039623791       -1.60604734297842       -1.64555307032586
H           -1.00396240958603       -1.23449302974661       -0.10136624851689
H            0.57162002381885       -2.04721588021832       -0.11357996943313
H           -4.65589629369534        2.95612386586600       -0.18937674730582
H           -3.78486636324751        2.91332108574528        2.72547183588077
H           -4.89120823268627        1.75850193224451        1.97426855893663
H           -5.35145305397259        3.45712568311598        2.11409282671359
H           -2.62589082441801        4.69031574668183        1.27598551161995
H           -3.05375716313999        4.81668483318078       -0.43766168880422
H           -4.24766640479625        5.18556025202707        0.79844844443541
H           -0.64103063273308        2.80382636093211        2.76782088878827
72
 energy: -103.315485775296 gnorm: 0.019500826711 xtb: 6.6.1 (8d0f1dd)
N           -1.50336264263129        2.79314550816998        2.24499385245286
C           -1.56125611497478        2.15684387143380        1.16161524217212
C           -2.75001889447916        2.06594554440301        0.25243748811835
C           -3.31304551255616        0.65199681306089        0.32899542899692
C           -4.29497990027172        0.24573446131828       -0.57680429018096
C           -4.83766797985004       -1.02392589223624       -0.53399560729346
O           -5.80223330591652       -1.49507077776852       -1.37308088219198
C           -6.37492975310715       -0.61541744746303       -2.30700364832186
C           -4.39178136687063       -1.94206614826310        0.44342948750500
O           -4.98348717057854       -3.16898023998106        0.40789600669411
C           -4.66001171055184       -4.09925838187419        1.40976081543774
C           -3.42421032327978       -1.53794532508709        1.34240553862853
C           -2.89117550211397       -0.25454001735057        1.28439939509060
C           -2.19325957177547        2.31138340074879       -1.17344134521937
C           -1.25440597146419        1.19249294463546       -1.65239097413847
C            0.01404546402551        1.14889754788296       -0.87177811302752
N            0.65050954362521       -0.03088624382363       -0.53147802675592
C            2.02998678970700       -0.03286156576005       -0.16262119732333
C            2.93945040454847       -0.56777366634096       -1.30031679670827
C            4.36457583533554       -0.46378131789124       -0.87089136633280
C            5.07397846102341        0.70421061531190       -1.07451639670089
C            6.37938264599978        0.82525901605188       -0.62440273712804
C            6.98971704015254       -0.21863084236351        0.04741459237546
O            8.26278505479833       -0.21063669809029        0.53330617209483
C            9.04814045381099        0.93541310349274        0.32841693467160
C            6.26904762646199       -1.41470355404461        0.26838252337316
O            6.95429694009890       -2.38881411527988        0.93066068581989
C            6.32573688299021       -3.62530897693325        1.14936059622004
C            4.97001662351708       -1.51811492847467       -0.18662380111452
C           -0.03138490076825       -1.28947946860245       -0.61077411667233
C           -3.87902373063149        3.07917346547922        0.58352472895156
C           -4.51523795115723        2.77800311692170        1.93925568261230
C           -3.41217560414085        4.53385296636874        0.54780661026301
H           -4.64655484874864        0.94286617302566       -1.31964883299924
H           -6.83201328948987        0.25188860983797       -1.81877320036148
H           -7.14840631782725       -1.19335150132349       -2.81030055307092
H           -5.64297878191492       -0.27325128534511       -3.04682008451123
H           -4.88859599109227       -3.71355403401020        2.40899149006425
H           -5.28344890063361       -4.96893683702879        1.20843181423826
H           -3.60566501620132       -4.39352246326967        1.36620327829158
H           -3.07718173592508       -2.21126618542714        2.11087440184404
H           -2.15803395841773        0.03274921301001        2.02168522660373
H           -3.02108370228724        2.39787097097556       -1.87948141048371
H           -1.64818192872712        3.25725728591804       -1.18496088847138
H           -1.78937752693606        0.24299625299334       -1.60354835181319
H           -1.01347629920255        1.39240052611780       -2.70497130306586
H           -0.68983007195663        1.66195487212013        0.66939782251464
H            0.64444228732830        2.02016437876189       -0.90726728231380
H            2.14767499522534       -0.65894780485216        0.72732862416696
H            2.32841641795972        0.98216673045649        0.12071941271836
H            2.77229229633282        0.02633858638895       -2.20034662775553
H            2.68634819672703       -1.60638403202982       -1.53120133142186
H            4.61825032635084        1.52851327224348       -1.60265264193678
H            6.91320674935635        1.74307012615633       -0.81253030675869
H            8.61642501135713        1.81573297365457        0.81675845814367
H            9.18988705296675        1.14478625872851       -0.73734788548608
H           10.01037970997811        0.70758137027888        0.78310286768225
H            7.06526247266688       -4.23868975520113        1.66170407003565
H            5.43895559806326       -3.52491580284003        1.78487535643382
H            6.04493216179897       -4.11001030799285        0.20794048703322
H            4.41026852833746       -2.42783035925768       -0.03120651491570
H           -0.19996639495380       -1.59606895988499       -1.64980694490567
H           -0.99960878372918       -1.23304130189423       -0.10423659679500
H            0.57846726413552       -2.04137485488306       -0.11702209494277
H           -4.64839701311128        2.95451897216060       -0.18721064606720
H           -3.78537644337845        2.91306807024019        2.73114473862870
H           -4.88757532811166        1.75682700028250        1.97486547051164
H           -5.34887359870940        3.45542680672870        2.11041784201648
H           -2.62358063027529        4.69769614806495        1.27622459543401
H           -3.05233884138739        4.81971436056418       -0.43774332358103
H           -4.24790562814454        5.18408443645961        0.79784506228914
H           -0.61169350470161        2.78228389492639        2.73628329915097
72
 energy: -103.315829944189 gnorm: 0.013170956025 xtb: 6.6.1 (8d0f1dd)
N           -1.52789038187912        2.79194529061205        2.25296591920033
C           -1.56859351591381        2.16301212331275        1.16587926981865
C           -2.75376561092003        2.06616152277838        0.25343584363834
C           -3.31732217928968        0.65303794691907        0.33227751793868
C           -4.29813047773780        0.24763815091248       -0.57469844114120
C           -4.84007650038806       -1.02181578898564       -0.53140235893495
O           -5.80209096288119       -1.49313264752826       -1.37295287069743
C           -6.37339496284376       -0.61375791791988       -2.30759592143869
C           -4.39408851318319       -1.93965936525612        0.44616778073453
O           -4.98275186104750       -3.16759584907283        0.40909608306413
C           -4.65798570824381       -4.09786907323285        1.41002920460298
C           -3.42704691450739       -1.53646262441059        1.34592818028903
C           -2.89545406190806       -0.25282362835810        1.28873276921983
C           -2.19136895822913        2.31185840687785       -1.16950033891194
C           -1.25714008499635        1.18934404475982       -1.64927795183542
C            0.01363548802213        1.14074108883503       -0.87804863351909
N            0.65187718161447       -0.03470304801529       -0.54255611591836
C            2.03415526354359       -0.03198132281618       -0.17165831643186
C            2.94554104758763       -0.57759313503223       -1.31124046429425
C            4.36971971694007       -0.46507359276824       -0.87327864781138
C            5.08153991431473        0.70290058955270       -1.07665712535437
C            6.38701122143213        0.82416741945608       -0.62602323558133
C            6.99557552682684       -0.21923793801005        0.04675002078407
O            8.26707593268482       -0.20941744055370        0.53547677991019
C            9.05249331822426        0.93635803329565        0.33014410466074
C            6.27543432669873       -1.41549358105044        0.26529195109141
O            6.95775523412666       -2.38912759883562        0.93065195666660
C            6.32682590197729       -3.62420064283310        1.14973864074236
C            4.97674304733706       -1.51946971977106       -0.19067848097050
C           -0.03754501035563       -1.28952771101824       -0.61029586067392
C           -3.88186485524397        3.07976096696909        0.58310175103168
C           -4.51817835312913        2.77859703525810        1.93865818746384
C           -3.41320291066773        4.53355022974308        0.54671130151442
H           -4.64932930685153        0.94503261331332       -1.31773590301117
H           -6.83222289270513        0.25332939379584       -1.82057295740493
H           -7.14570632462896       -1.19214740099980       -2.81194342649038
H           -5.64091623724461       -0.27158186490568       -3.04685334760297
H           -4.88770055407627       -3.71374500796771        2.40961853694968
H           -5.28005596289500       -4.96818149841176        1.20773399069335
H           -3.60341784656360       -4.39104570982028        1.36601430078593
H           -3.07952562178749       -2.20994191074473        2.11386823514402
H           -2.16350502027763        0.03504376241594        2.02760076409239
H           -3.01787524706770        2.39922242382480       -1.87562894375633
H           -1.64615307861579        3.25755607233801       -1.17922817600674
H           -1.79689353308018        0.24210124429421       -1.60956240586405
H           -1.00676920183613        1.39499121493960       -2.69726515025908
H           -0.69600489108167        1.66245104244330        0.67904556095457
H            0.64853468133208        2.00837596308520       -0.91958711865222
H            2.14535981336645       -0.65968737354091        0.71954040836396
H            2.33142252972018        0.98308264102235        0.12651733488984
H            2.78019951977518        0.01946232415402       -2.21021057489896
H            2.69715111666093       -1.61683154328738       -1.54810773573939
H            4.62934165987258        1.52769517484952       -1.60663982311782
H            6.92044987009297        1.74283807315778       -0.81042923294513
H            8.62190195318186        1.81727250075387        0.81768446083510
H            9.19602603460581        1.14602819523737       -0.73530864640122
H           10.01440394123404        0.70987094363633        0.78575688849511
H            7.06363149046708       -4.23879303151533        1.66393245476766
H            5.43924600646821       -3.52278890372679        1.78352000900560
H            6.04745139172866       -4.10964567100420        0.20851197202282
H            4.41907144623709       -2.43063427237876       -0.03699632285769
H           -0.20887014463945       -1.60247811905456       -1.64612890911648
H           -1.00518225761581       -1.23020516338706       -0.10144700272891
H            0.57251746783727       -2.03939081473461       -0.11404450833910
H           -4.65048255251188        2.95435442338092       -0.18780830525362
H           -3.78926115227559        2.91371784379107        2.73052104627908
H           -4.89270132529684        1.75831867892779        1.97497347815224
H           -5.34980737912082        3.45726295532819        2.11105959425061
H           -2.62599418016076        4.69680609903805        1.27615327473707
H           -3.05380609209250        4.81970545956441       -0.43879517585011
H           -4.24764434387028        5.18419048015154        0.79734843663585
H           -0.64128868255219        2.79322711072738        2.75138039889685
72
 energy: -103.316042713569 gnorm: 0.008793237691 xtb: 6.6.1 (8d0f1dd)
N           -1.51457667299200        2.79486241043073        2.25061016473168
C           -1.56244850846952        2.16451261692550        1.16687236842306
C           -2.75037276842444        2.06599701159469        0.25551200878541
C           -3.31689689082609        0.65349089240760        0.33310197192720
C           -4.29644608184299        0.24778562093254       -0.57552433991393
C           -4.83855708732705       -1.02207768980776       -0.53265507479627
O           -5.80045715203861       -1.49336776686020       -1.37343505103621
C           -6.37406567167806       -0.61446800889985       -2.30694193539282
C           -4.39260368354148       -1.94027286440698        0.44476347429579
O           -4.98144392835189       -3.16750467156266        0.40813863444843
C           -4.65905896960349       -4.09799747905156        1.40967608869099
C           -3.42450224900584       -1.53740657702665        1.34371861649818
C           -2.89334809514852       -0.25338712864734        1.28744540282830
C           -2.19143852898616        2.30992749440712       -1.16966938067724
C           -1.25556179465398        1.19192277750268       -1.65702996183940
C            0.01440635790497        1.13865897235726       -0.88557896220325
N            0.64897612356412       -0.03225198747611       -0.54395990185896
C            2.03267190490056       -0.03209135305259       -0.16448824284347
C            2.94131640822776       -0.57485918698125       -1.30564121827882
C            4.36802328696460       -0.46355045674439       -0.87207886794822
C            5.08010550178444        0.70391773434777       -1.07618679416175
C            6.38489146051188        0.82522541324216       -0.62413953071494
C            6.99312966440792       -0.21875161120038        0.04848720874135
O            8.26412261042210       -0.20936760009537        0.53579477028704
C            9.04933227369755        0.93612445185657        0.32840911866411
C            6.27301959026874       -1.41504194353587        0.26714462179604
O            6.95474152691085       -2.38875550013092        0.93182824872275
C            6.32498062174469       -3.62463574205767        1.14966782488853
C            4.97413261161428       -1.51804607049682       -0.18882742122592
C           -0.03684620532422       -1.28975661033141       -0.61048147335913
C           -3.88071523246568        3.07897773819197        0.58289588644223
C           -4.51578960567151        2.77775684385900        1.93861631338711
C           -3.41220222440526        4.53221242986049        0.54746358070928
H           -4.64607335898660        0.94441575584731       -1.31995434037962
H           -6.83167577893603        0.25249641205039       -1.81876901327893
H           -7.14752413903780       -1.19251695963111       -2.81008440878809
H           -5.64269182060371       -0.27245944839931       -3.04722347175061
H           -4.88815677827432       -3.71261786269314        2.40881499417943
H           -5.28253302600625       -4.96767069332035        1.20846150989696
H           -3.60509849788281       -4.39294342358908        1.36600924789333
H           -3.07491343921494       -2.21163921798177        2.10970960227175
H           -2.15675894629891        0.03279654762787        2.02265210204844
H           -3.01996337335978        2.39646397266659       -1.87318470193359
H           -1.64823265018268        3.25622085161902       -1.18144893729892
H           -1.79339561267166        0.24452443640540       -1.61581939938672
H           -1.01184335960739        1.39846604608525       -2.70722505265225
H           -0.69454873344183        1.65198132214722        0.68173131226094
H            0.65149482504430        2.00748943687353       -0.92935328924668
H            2.14625020011106       -0.66150422548925        0.72717112263930
H            2.33488268266375        0.98458983916267        0.12335011541049
H            2.76770418201972        0.02827722041179       -2.19911178668433
H            2.68377487341695       -1.61109400065926       -1.53309099240887
H            4.62620706918961        1.53057328399815       -1.60191511696165
H            6.91767715387994        1.74416702645347       -0.80761416954942
H            8.61859150127766        1.81652243507269        0.81638611260585
H            9.18995946773449        1.14537160996225       -0.73740634769473
H           10.01250103123605        0.71077589910774        0.78196856326846
H            7.06248228271625       -4.24006326043106        1.66176473212377
H            5.43822802010593       -3.52463438576301        1.78436648040917
H            6.04476758712879       -4.10847697176047        0.20792509400461
H            4.41440016439982       -2.42726332047405       -0.03112755354460
H           -0.20251584083800       -1.60223823019741       -1.64669139514499
H           -1.00574341896508       -1.23424004147423       -0.10403388167682
H            0.57359947788944       -2.04018008754874       -0.11422114501186
H           -4.65011007528193        2.95400040935830       -0.18739159894684
H           -3.78558892688257        2.91337962974008        2.72858590430247
H           -4.88882169848721        1.75708160397497        1.97483910085118
H           -5.34797202056656        3.45537394244430        2.11290417695899
H           -2.62496390304854        4.69360205768042        1.27688290941447
H           -3.05293593211905        4.81814591705983       -0.43788424092796
H           -4.24597357688864        5.18343434382556        0.79884497575318
H           -0.62791781170166        2.79657854279250        2.74933461747010
72
 energy: -103.316109819258 gnorm: 0.006264473874 xtb: 6.6.1 (8d0f1dd)
N           -1.51512443398901        2.79271919826342        2.25143989724241
C           -1.56477964267650        2.16172714888826        1.16783377152112
C           -2.75273603103422        2.06677348622864        0.25495867118794
C           -3.31792343961226        0.65346435804524        0.33145356137804
C           -4.29762197694920        0.24678282683581       -0.57656597048126
C           -4.83978594229569       -1.02316324142042       -0.53303277369081
O           -5.80214369604276       -1.49449281859508       -1.37372524903756
C           -6.37434121860522       -0.61521494247359       -2.30759645135138
C           -4.39424615511954       -1.94075857221650        0.44485733247918
O           -4.98279713644856       -3.16854449104503        0.40863064440315
C           -4.65907701723208       -4.09880000056099        1.40986109594652
C           -3.42722804906005       -1.53655990070081        1.34450833661827
C           -2.89557684374084       -0.25262715976301        1.28702563353579
C           -2.19250128629909        2.31126086668801       -1.16997154495728
C           -1.25435046425227        1.19293682184735       -1.65194876513870
C            0.01447306991741        1.14173110160469       -0.87773941425856
N            0.64985019675002       -0.03175075045571       -0.53941528432964
C            2.03335921323803       -0.03572811545048       -0.16680701834173
C            2.94384950779501       -0.57330365027405       -1.30749747002653