72
 energy: 0.000000000000 xtb: 6.6.1 (8d0f1dd)
N           -1.47310921155849        2.74401293103706        2.22063921685122
C           -1.55658879776851        2.16490285539332        1.13274273951491
C           -2.74549199786261        2.05621232186130        0.23826248438941
C           -3.31377553111525        0.64333411542669        0.32332512650568
C           -4.30230156009016        0.24487110156316       -0.58026161703006
C           -4.85238763031941       -1.02286490450319       -0.53363588718165
O           -5.81419972815119       -1.48606034185536       -1.36157882725342
C           -6.39655633239252       -0.60827000183299       -2.29568474302620
C           -4.39972501531283       -1.94646102182611        0.44396929121966
O           -4.98748311285188       -3.16145997157803        0.41085992006324
C           -4.66362127904578       -4.10093827755394        1.40909127743729
C           -3.42072513477031       -1.54561384810496        1.33436546260297
C           -2.88302799614223       -0.26315800396994        1.27400150770375
C           -2.19303798107274        2.30467000305896       -1.18742977106749
C           -1.26651538239283        1.17243369445008       -1.65249429687285
C            0.01082524939134        1.09745454476277       -0.89354803499847
N            0.61779393476578       -0.02034948052406       -0.57705522512502
C            2.00145210352228       -0.02376006389122       -0.15611399603240
C            2.92554934655222       -0.53865282675074       -1.27700088804721
C            4.35756843073516       -0.43050757231754       -0.83075544324989
C            5.07346135469827        0.73206409086248       -1.03980965825901
C            6.38627986649936        0.84224441421807       -0.60344822702769
C            7.00047264773336       -0.20824756335880        0.05722314418200
O            8.26703657141718       -0.21011313101264        0.52410943644933
C            9.06912227848686        0.92943601033931        0.31863058007678
C            6.27039964270142       -1.40439753960823        0.28033466008274
O            6.94829939911432       -2.38012925705718        0.92751999079483
C            6.31537317745639       -3.61583200086742        1.15217711710877
C            4.96302794628964       -1.49347471867959       -0.16064430359178
C           -0.05511211367372       -1.29906247805359       -0.62085686319744
C           -3.86758037025447        3.07992600430699        0.58498060215443
C           -4.49286159663096        2.77383493050346        1.94313289484366
C           -3.39165179876499        4.52917666589254        0.54797523472093
H           -4.66030026466202        0.94509067363451       -1.31640568823548
H           -6.85037928558380        0.25803162192116       -1.80468845313260
H           -7.17287442604349       -1.18600110843259       -2.79318157561361
H           -5.66836817451085       -0.26952966318766       -3.04040255244073
H           -4.88416720672258       -3.71589460520039        2.40913542187496
H           -5.29223570620378       -4.96637458756866        1.20969236903657
H           -3.61139813139015       -4.39919835331056        1.35529357841967
H           -3.07077796610445       -2.21868765711333        2.10002662693138
H           -2.14562754426994        0.02067850696302        2.01001344383370
H           -3.02188875377605        2.38238012313952       -1.88813545054866
H           -1.65198530896729        3.25146700677685       -1.20556284570283
H           -1.81103374245520        0.23006524641044       -1.62116301628650
H           -0.99335688527853        1.37490212198123       -2.69443256973690
H           -0.67628064361333        1.65183887049447        0.61785727145403
H            0.63525841192517        1.98466369793744       -0.92314021190751
H            2.11132552493482       -0.65949692842762        0.72532613231274
H            2.30680473056284        0.98978251704176        0.11078972794250
H            2.76694198818247        0.06750735147374       -2.17075252200790
H            2.67954581369920       -1.57455627803457       -1.51167743520200
H            4.62169998552446        1.56295612048703       -1.56123579000624
H            6.92357674630170        1.75715815945204       -0.79119596719031
H            8.65159112996149        1.81001823324363        0.81701555159939
H            9.20136171144928        1.14042857828877       -0.74698991949293
H           10.03428838009630        0.69003240176163        0.76064937965836
H            7.05567174969094       -4.23621171795340        1.65347565939075
H            5.43848001056755       -3.50813558175093        1.79970565785717
H            6.02060041905269       -4.09420497120334        0.21253282636366
H            4.40102758497114       -2.40127266373392       -0.00490198249042
H           -0.22071299714579       -1.61775583601871       -1.65116008982042
H           -1.01972258008625       -1.24102717432227       -0.10935206830928
H            0.55899954147532       -2.04486085926761       -0.12333730421426
H           -4.63991875734388        2.95501092798550       -0.18098088071825
H           -3.76095216473977        2.90314704960906        2.73380821053058
H           -4.87457614030224        1.75695641518947        1.97884603101694
H           -5.31925552549014        3.45579210326349        2.12325564252114
H           -2.60025590131176        4.69225046143352        1.27368918226171
H           -3.03987406413880        4.81897652321898       -0.43870975059559
H           -4.22191740670577        5.18069648090034        0.80616693961239
H           -0.59832433787845        2.77744694953323        2.72958984441332
72
 energy: -5.885860129435 xtb: 6.6.1 (8d0f1dd)
N           -1.51755303385721        2.79440232378909        2.25014929822175
C           -1.56406714543313        2.16181859314818        1.16676755824122
C           -2.75209774396857        2.06606961288963        0.25421893194721
C           -3.31658011682631        0.65300900641644        0.33206222893346
C           -4.29681563478721        0.24728296434996       -0.57556972741282
C           -4.83902472880590       -1.02245719358801       -0.53233626356511
O           -5.80159148422931       -1.49358616546588       -1.37332599424644
C           -6.37410755689715       -0.61472268015831       -2.30719365458537
C           -4.39323747680823       -1.94029287095089        0.44492675780508
O           -4.98238433288926       -3.16793828346891        0.40849356344955
C           -4.65891472708676       -4.09802003526029        1.40962115407482
C           -3.42566213324312       -1.53715731179976        1.34448720553211
C           -2.89399706559762       -0.25335487126138        1.28748719669544
C           -2.19188709776804        2.31093417230536       -1.17043173382979
C           -1.25500452776026        1.19164290424854       -1.65326401649302
C            0.01408603646333        1.14131887774540       -0.88010924328615
N            0.65002639257967       -0.03205980753889       -0.54074094194018
C            2.03221126037386       -0.03334420195472       -0.16674535231804
C            2.94327469520467       -0.57411539610529       -1.30717053595489
C            4.36854431828011       -0.46445450444279       -0.87295067947564
C            5.07953346357965        0.70338267179465       -1.07663668008517
C            6.38444085644262        0.82489240564264       -0.62501139769462
C            6.99318418731866       -0.21919387474906        0.04741279836865
O            8.26500666456659       -0.20961186605837        0.53492069179609
C            9.05023515444364        0.93572457308807        0.32932866739918
C            6.27330498569073       -1.41522710287476        0.26668241920716
O            6.95576420170053       -2.38913546821139        0.93111520865775
C            6.32617030883160       -3.62464314587149        1.14967822270320
C            4.97436859477443       -1.51885214770523       -0.18947790802545
C           -0.03522432728425       -1.28949035733860       -0.61033241835728
C           -3.88113099259824        3.07947991167026        0.58313548776845
C           -4.51695466071255        2.77847622318021        1.93889082470221
C           -3.41294732317996        4.53323374977973        0.54732181771359
H           -4.64733125959214        0.94436692951525       -1.31892835733844
H           -6.83220530120335        0.25254841956242       -1.81981330354758
H           -7.14716988695074       -1.19286142230574       -2.81098977562743
H           -5.64227373817221       -0.27251421687943       -3.04710888746540
H           -4.88794536379273       -3.71314860466682        2.40907193366321
H           -5.28171408602400       -4.96820713235152        1.20817047098045
H           -3.60454985950468       -4.39198765410070        1.36588527598681
H           -3.07749435231032       -2.21078408638548        2.11170994503943
H           -2.15996879538636        0.03409874892538        2.02461235541231
H           -3.01907632206542        2.39822781190847       -1.87591078226347
H           -1.64725107104849        3.25661583059578       -1.18093539063571
H           -1.79221411968357        0.24375234803006       -1.60983327254194
H           -1.01143394004805        1.39571364516965       -2.70418067579745
H           -0.69518408898305        1.65751284832859        0.67936966899706
H            0.64903031346351        2.01149147680446       -0.92033176726092
H            2.14679221269726       -0.66193490881105        0.72459608988592
H            2.33174430346833        0.98275679361560        0.12197630099110
H            2.77398969735620        0.02545314211145       -2.20362797145117
H            2.68974551474273       -1.61101666249374       -1.53685374189498
H            4.62520458364586        1.52851196771997       -1.60456733237930
H            6.91738974987684        1.74327086330392       -0.81037928131393
H            8.61922284881972        1.81644145401706        0.81710357894009
H            9.19263640546449        1.14549068916677       -0.73628016565922
H           10.01287958730919        0.70970964994864        0.78407900350022
H            7.06391687417820       -4.23916923449334        1.66284053404569
H            5.43905164177163       -3.52388227316487        1.78408755724219
H            6.04609611942795       -4.10962846727864        0.20832420551541
H            4.41519681994908       -2.42884023618301       -0.03391657079171
H           -0.20335704461277       -1.60081292965229       -1.64704411835864
H           -1.00327468996692       -1.23270491445849       -0.10297110107255
H            0.57476816903459       -2.04113694518354       -0.11487159193301
H           -4.65027046942097        2.95445608703806       -0.18752689362064
H           -3.78731878993098        2.91358810091922        2.72992629544227
H           -4.89035354088637        1.75787119351484        1.97504956967030
H           -5.34940933200953        3.45639268758770        2.11151860702809
H           -2.62531452815775        4.69598538808684        1.27629230330653
H           -3.05345116479155        4.81905999363864       -0.43805121667100
H           -4.24751097575902        5.18401533730668        0.79793229149838
H           -0.62947473972408        2.79225614885430        2.74783270304464
72
 energy: -5.768664128959 xtb: 6.6.1 (8d0f1dd)
N           -1.54395281766165        2.81706185359337        2.26698559739704
C           -1.57917261395733        2.17225639863085        1.19025468467002
C           -2.75810251767460        2.07262159578511        0.26563129671103
C           -3.31904446097180        0.65851659329842        0.33988092793363
C           -4.29083152705602        0.24877622416821       -0.57440903211395
C           -4.82941733035096       -1.02267922818153       -0.53400031852948
O           -5.78383582004646       -1.49787159788901       -1.38226086197225
C           -6.35233433494790       -0.62010655335622       -2.31938281444362
C           -4.38846723666178       -1.93819429133087        0.44721369485657
O           -4.97299309538649       -3.16824217170401        0.40704317770204
C           -4.65424496922735       -4.09611350052505        1.41161617973077
C           -3.42937290396207       -1.53080834507199        1.35384945004678
C           -2.90168863681392       -0.24541112785070        1.29966154470342
C           -2.18794743585306        2.31955098833875       -1.15437536119803
C           -1.24623365261331        1.20432003949784       -1.63938843319468
C            0.02438904319185        1.15467065110457       -0.86501898149701
N            0.66689435959736       -0.01789823064306       -0.52115310365372
C            2.06367027601056       -0.03690955606467       -0.18069323345914
C            2.95176323063850       -0.61113857729301       -1.33843437866481
C            4.37833359083836       -0.49668392292656       -0.90981412917252
C            5.08380424545616        0.67509784784485       -1.11210538621480
C            6.38259159519738        0.80733026259539       -0.64715914659579
C            6.98978861702113       -0.22931550057915        0.03785071701853
O            8.25451641161068       -0.20755969489080        0.54230912102625
C            9.03182024042828        0.94342248560510        0.33929148849342
C            6.27700445488933       -1.42969098325300        0.25362913929848
O            6.95879058172966       -2.39489871543726        0.93167403661864
C            6.33644020197527       -3.63458542651264        1.14692710609516
C            4.98425826541626       -1.54441376701029       -0.21651445477925
C           -0.01910201693877       -1.27592111529678       -0.60068108897042
C           -3.89427642301189        3.08168019212406        0.58229318537926
C           -4.53908114386911        2.78194199000187        1.93392704619323
C           -3.43244346096491        4.53715438335255        0.54583654855468
H           -4.63633704752747        0.94372027417134       -1.32198563022135
H           -6.81467200213529        0.24649948810525       -1.83481086595561
H           -7.12097520655391       -1.19978497398578       -2.82806602163400
H           -5.61646365820788       -0.27616360654330       -3.05435352178825
H           -4.89279946406857       -3.71124579081475        2.40890392214393
H           -5.27178468794293       -4.96912242970015        1.20605268443065
H           -3.59849774585577       -4.38600625226147        1.37649299469115
H           -3.08485691305396       -2.20259049271730        2.12429652627446
H           -2.17404082743810        0.04561975184418        2.04160490250637
H           -3.01206330810402        2.41047636364805       -1.86360151401677
H           -1.64356260240639        3.26505633811710       -1.15864817253878
H           -1.78110891972212        0.25482168490341       -1.59711265161120
H           -1.00962673113852        1.41185803521340       -2.69212645399738
H           -0.70641314690559        1.66402376674645        0.72079567040960
H            0.65285498080387        2.03161749248586       -0.89824643712053
H            2.17491173730882       -0.66041104448222        0.71754944245488
H            2.37602152364659        0.97622934305643        0.11722792791872
H            2.78027533454283       -0.01759512328705       -2.23843899868608
H            2.69667851274530       -1.65022887771028       -1.56034758611920
H            4.62969499374763        1.49526958388817       -1.64767323532812
H            6.91067631415380        1.72882085070569       -0.83023347385068
H            8.58752076626114        1.82250637442465        0.81738861629671
H            9.18425923455055        1.15011270751511       -0.72550033416981
H            9.99040457492757        0.72842584355046        0.80702886885842
H            7.07231151099645       -4.24141225869269        1.67141945088354
H            5.44037924921916       -3.54024241311345        1.76911236750570
H            6.07224134026422       -4.12533411738794        0.20405875898183
H            4.42983342292983       -2.45750094966029       -0.06229021715345
H           -0.18527254446771       -1.57918153717705       -1.64011444304591
H           -0.98853302343548       -1.22349407865507       -0.09518133608896
H            0.59093171108279       -2.03007472088147       -0.10878045185110
H           -4.65750709505833        2.95234827168057       -0.19324504166426
H           -3.81600951092984        2.92475976813995        2.72895739482128
H           -4.90614261198614        1.75904810975933        1.97111645216564
H           -5.37677395458910        3.45550888548199        2.09858368561620
H           -2.65079404563744        4.70361534507394        1.27979910392279
H           -3.06731603139043        4.82121420267869       -0.43785951655892
H           -4.27098274373303        5.18573875413635        0.78913659962181
H           -0.66245497095911        2.81643194591130        2.77534172871928
72
 energy: -5.182158381947 xtb: 6.6.1 (8d0f1dd)
N           -1.57101034538434        2.84018826718064        2.28286972146473
C           -1.59446593077613        2.18398005561252        1.21266517860900
C           -2.76434628206191        2.07944789840241        0.27677748017294
C           -3.32123393036318        0.66393911148147        0.34765303412175
C           -4.28440066020764        0.25018143422458       -0.57350715150651
C           -4.81956037871954       -1.02286681640994       -0.53569963117643
O           -5.76598326007631       -1.50187592311280       -1.39098716263602
C           -6.33062241307966       -0.62540201988771       -2.33149565143299
C           -4.38355169936977       -1.93599955286838        0.44966262993232
O           -4.96355562651947       -3.16828169672293        0.40585659355183
C           -4.64943192433731       -4.09412218576986        1.41366151401007
C           -3.43293778527369       -1.52452818079355        1.36332664487015
C           -2.90912492599658       -0.23755890036229        1.31186247108547
C           -2.18408739240180        2.32871729124277       -1.13838346690543
C           -1.23806017315717        1.21612831429701       -1.62264566040752
C            0.03420909791721        1.16832026203431       -0.84803218451063
N            0.68384072655084       -0.00222833816177       -0.50189124009718
C            2.09462848300957       -0.03900921381610       -0.19493458114342
C            2.95964023408561       -0.64865165484588       -1.36989966118075
C            4.38767885152518       -0.52922832776941       -0.94650803201810
C            5.08802253560597        0.64657093713158       -1.14735430047808
C            6.38078899577838        0.78961814269571       -0.66945882940426
C            6.98650995661765       -0.23946967420025        0.02806499252468
O            8.24381987093949       -0.20532714785115        0.54945375075384
C            9.01354251199039        0.95118023238034        0.34955516124061
C            6.28062371979739       -1.44407869805939        0.24050736199194
O            6.96164076549130       -2.40064840468232        0.93195025794461
C            6.34674254234097       -3.64447548699275        1.14425532999889
C            4.99406781262702       -1.57004433285111       -0.24345167884453
C           -0.00342498389375       -1.26091379259165       -0.59149121105852
C           -3.90734133133450        3.08404915686731        0.58165892027684
C           -4.56094390677206        2.78521926592186        1.92916414121586
C           -3.45183071920763        4.54130733860808        0.54438198932586
H           -4.62510646626333        0.94300235764032       -1.32520859824374
H           -6.79731397016900        0.24047958229040       -1.84983130219137
H           -7.09487417822533       -1.20666072467764       -2.84491213372276
H           -5.59093967955650       -0.27981380350459       -3.06174468843042
H           -4.89745088751294       -3.70947407162898        2.40879846437201
H           -5.26171317082914       -4.96985867788352        1.20391623426153
H           -3.59236145996426       -4.37999668212659        1.38703467826723
H           -3.09218394174403       -2.19443359617795        2.13705633074312
H           -2.18804436606350        0.05685458453027        2.05884568337985
H           -3.00494389317896        2.42261432781443       -1.85152984737645
H           -1.64022750736130        3.27433654044748       -1.13681352481559
H           -1.77072100719775        0.26517227393394       -1.58266160287401
H           -1.00649383855468        1.42632718423037       -2.67615124092350
H           -0.71801905755313        1.67023335353692        0.76239666548905
H            0.65679032447871        2.05072784661370       -0.87281243930553
H            2.20297194824043       -0.65903052926621        0.70823777318512
H            2.42056082133282        0.97070749059471        0.10914033490063
H            2.78509870288762       -0.06144153909043       -2.27330908338046
H            2.70187222546762       -1.69049932380996       -1.58290527112207
H            4.63428709460268        1.46183464577099       -1.69068527595267
H            6.90413028378775        1.71421035009231       -0.85011997215608
H            8.55617199473457        1.82858121890795        0.81789090772781
H            9.17628703463359        1.15470660837517       -0.71429186880592
H            9.96793822424454        0.74720050188625        0.83024036519528
H            7.08077457011489       -4.24332650843881        1.68011901388223
H            5.44196453232655       -3.55658137884209        1.75424354465075
H            6.09846759014686       -4.14103523500146        0.20009873410503
H            4.44431380425698       -2.48620823748684       -0.09078806262089
H           -0.16792073406441       -1.55698130844579       -1.63327058834849
H           -0.97398044782593       -1.21369874853585       -0.08737195940120
H            0.60660735739940       -2.01779315128762       -0.10358140024681
H           -4.66455718574299        2.95008885480450       -0.19877518298309
H           -3.84467620594732        2.93573767532638        2.72843163919481
H           -4.92171227246372        1.76009593304108        1.96741739871392
H           -5.40385438627400        3.45428908544712        2.08563934797876
H           -2.67615922863683        4.71186004196691        1.28330641865790
H           -3.08119732209259        4.82386306959715       -0.43762229218747
H           -4.29444958452499        5.18737479218290        0.78038047638707
H           -0.69603655641251        2.84074611669843        2.80156862845363
72
 energy: -3.965094890246 xtb: 6.6.1 (8d0f1dd)
N           -1.59857543881706        2.86325285602820        2.29844243231264
C           -1.60989221582042        2.19668238343969        1.23453936466354
C           -2.77061114204307        2.08635204816290        0.28776428616708
C           -3.32327175456904        0.66927182560985        0.35548936807952
C           -4.27774800573061        0.25152133984851       -0.57263693785142
C           -4.80958745280663       -1.02306476736789       -0.53738715173502
O           -5.74804101125300       -1.50578154728779       -1.39955823858607
C           -6.30889471803366       -0.63074861650257       -2.34358984556647
C           -4.37857995152941       -1.93381463927366        0.45221691454273
O           -4.95413632636887       -3.16819040638478        0.40484861874277
C           -4.64465028227092       -4.09216486099883        1.41574656024669
C           -3.43645098921925       -1.51837130231179        1.37284818334002
C           -2.91644815697761       -0.22983095141516        1.32410939515929
C           -2.18032978738349        2.33802256960576       -1.12260839726508
C           -1.23023928028869        1.22766694552291       -1.60564875846184
C            0.04321086767686        1.18227056905041       -0.83034703854452
N            0.69951464019871        0.01472679768160       -0.48179972846862
C            2.11850432117080       -0.03253191504197       -0.19793044011288
C            2.96622673198058       -0.68347690145461       -1.39749181991014
C            4.39600912328164       -0.56120805781866       -0.98188367649319
C            5.09232484864556        0.61807054047959       -1.18232331111560
C            6.37906897493933        0.77175937235267       -0.69196552182754
C            6.98317672542011       -0.24968498281595        0.01812415794299
O            8.23284194356487       -0.20305878790688        0.55636906189809
C            8.99506751557216        0.95890244730832        0.35975943052086
C            6.28402502968261       -1.45844420122431        0.22721649112094
O            6.96421790094643       -2.40645744471842        0.93188796432007
C            6.35698651248783       -3.65437745204020        1.14149385489588
C            5.00361707387703       -1.59552475242952       -0.27006814256263
C            0.01229537516415       -1.24530535101066       -0.58221251302798
C           -3.92031380556445        3.08645519764850        0.58107328299798
C           -4.58268282080634        2.78852468872964        1.92446500221320
C           -3.47117151271276        4.54552436332976        0.54282741634548
H           -4.61377970012929        0.94225357280764       -1.32835393675701
H           -6.78006580694350        0.23437596049417       -1.86496344752745
H           -7.06871252313213       -1.21364435277582       -2.86168928379677
H           -5.56546384200588       -0.28357665984622       -3.06916746768770
H           -4.90214921119244       -3.70786223069698        2.40868154868633
H           -5.25165846686997       -4.97056561656502        1.20176092049994
H           -3.58632383715439       -4.37402893431020        1.39761264478285
H           -3.09952733368331       -2.18642766973267        2.14982952258507
H           -2.20206362093174        0.06784659589350        2.07621114806609
H           -2.99780066923400        2.43476775675635       -1.83964341962130
H           -1.63705604067533        3.28383023501662       -1.11525259557476
H           -1.76071745685215        0.27530685834111       -1.56769099021660
H           -1.00267999990259        1.43971789653243       -2.66003794400592
H           -0.72979388170206        1.67714513960939        0.80393198699519
H            0.65981428125355        2.06962395383573       -0.84672410234210
H            2.22916425696401       -0.65763063271270        0.70175154756255
H            2.46022398462093        0.97149724246443        0.11165746440896
H            2.78872163430516       -0.10455846630437       -2.30579959096162
H            2.70541339338089       -1.72894618404858       -1.60241546907913
H            4.63910872551172        1.42836685451749       -1.73359042543377
H            6.89769538235416        1.69949688034687       -0.86997246318802
H            8.52483092619026        1.83454088997252        0.81826849891453
H            9.16815112219910        1.15922614150546       -0.70302138047018
H            9.94516600952537        0.76603472277090        0.85318961860179
H            7.08915168698459       -4.24513813458143        1.68864443248499
H            5.44376578890011       -3.57301477651669        1.73934681406892
H            6.12463570720032       -4.15664569739105        0.19625679760701
H            4.45858012613562       -2.51481266790798       -0.11911464925446
H           -0.15013789533881       -1.53407851186284       -1.62645068105405
H           -0.95957062938315       -1.20388666776772       -0.07978308927440
H            0.62233667489478       -2.00496938002833       -0.09866179516784
H           -4.67135772832007        2.94746949645055       -0.20429788368301
H           -3.87344343587571        2.94687542141975        2.72814975645661
H           -4.93721824547470        1.76124041784341        1.96392253444941
H           -5.43081134093136        3.45298942259267        2.07249000216855
H           -2.70152273683256        4.72048011931210        1.28667304638272
H           -3.09505880123608        4.82663591374526       -0.43746324240642
H           -4.31792066967348        5.18888858538185        0.77146000411578
H           -0.73001335287279        2.86530096831890        2.82729278963690
72
 energy: -1.838633262722 xtb: 6.6.1 (8d0f1dd)
N           -1.62674251110774        2.88575571277183        2.31418396498933
C           -1.62582768576709        2.20969995467057        1.25637754094021
C           -2.77716537534829        2.09337508176595        0.29874361786646
C           -3.32544683593117        0.67462012255150        0.36328095749692
C           -4.27099718131010        0.25281501272307       -0.57196336146291
C           -4.79946014416819       -1.02332988045813       -0.53930782771416
O           -5.72986244918529       -1.50969964595341       -1.40828972839310
C           -6.28706680120314       -0.63623127272941       -2.35591785680976
C           -4.37348684479308       -1.93171180472240        0.45458831679356
O           -4.94450369607203       -3.16812766006795        0.40372857033674
C           -4.63970788198596       -4.09028052627258        1.41770724504314
C           -3.43995321047575       -1.51230749062764        1.38215280844715
C           -2.92387384068250       -0.22213739665967        1.33621911460165
C           -2.17683151931538        2.34766951681533       -1.10681431807264
C           -1.22299547469182        1.23929321265332       -1.58838819925906
C            0.05102206369475        1.19659671766653       -0.81226793257708
N            0.71251864603123        0.03230592836613       -0.46107771265363
C            2.13210933976513       -0.02221928811730       -0.19114625065088
C            2.97391800201952       -0.71700226871942       -1.42515034224391
C            4.40364126031820       -0.59273359944360       -1.01644417238179