      -----------------------------------------------------------      
     |                   =====================                   |     
     |                           x T B                           |     
     |                   =====================                   |     
     |                         S. Grimme                         |     
     |          Mulliken Center for Theoretical Chemistry        |     
     |                    University of Bonn                     |     
      -----------------------------------------------------------      

   * xtb version 6.6.1 (8d0f1dd) compiled by 'conda@1efc2f54142f' on 2023-08-01

   xtb is free software: you can redistribute it and/or modify it under
   the terms of the GNU Lesser General Public License as published by
   the Free Software Foundation, either version 3 of the License, or
   (at your option) any later version.
   
   xtb is distributed in the hope that it will be useful,
   but WITHOUT ANY WARRANTY; without even the implied warranty of
   MERCHANTABILITY or FITNESS FOR A PARTICULAR PURPOSE.  See the
   GNU Lesser General Public License for more details.
   
   Cite this work as:
   * C. Bannwarth, E. Caldeweyher, S. Ehlert, A. Hansen, P. Pracht,
     J. Seibert, S. Spicher, S. Grimme, WIREs Comput. Mol. Sci., 2020, 11,
     e01493. DOI: 10.1002/wcms.1493
   
   for GFN2-xTB:
   * C. Bannwarth, S. Ehlert and S. Grimme., J. Chem. Theory Comput., 2019,
     15, 1652-1671. DOI: 10.1021/acs.jctc.8b01176
   for GFN1-xTB:
   * S. Grimme, C. Bannwarth, P. Shushkov, J. Chem. Theory Comput., 2017,
     13, 1989-2009. DOI: 10.1021/acs.jctc.7b00118
   for GFN0-xTB:
   * P. Pracht, E. Caldeweyher, S. Ehlert, S. Grimme, ChemRxiv, 2019, preprint.
     DOI: 10.26434/chemrxiv.8326202.v1
   for GFN-FF:
   * S. Spicher and S. Grimme, Angew. Chem. Int. Ed., 2020, 59, 15665-15673.
     DOI: 10.1002/anie.202004239
   
   for ALPB and GBSA implicit solvation:
   * S. Ehlert, M. Stahn, S. Spicher, S. Grimme, J. Chem. Theory Comput.,
     2021, 17, 4250-4261. DOI: 10.1021/acs.jctc.1c00471
   
   for DFT-D4:
   * E. Caldeweyher, C. Bannwarth and S. Grimme, J. Chem. Phys., 2017,
     147, 034112. DOI: 10.1063/1.4993215
   * E. Caldeweyher, S. Ehlert, A. Hansen, H. Neugebauer, S. Spicher,
     C. Bannwarth and S. Grimme, J. Chem. Phys., 2019, 150, 154122.
     DOI: 10.1063/1.5090222
   * E. Caldeweyher, J.-M. Mewes, S. Ehlert and S. Grimme, Phys. Chem. Chem. Phys.
     2020, 22, 8499-8512. DOI: 10.1039/D0CP00502A
   
   for sTDA-xTB:
   * S. Grimme and C. Bannwarth, J. Chem. Phys., 2016, 145, 054103.
     DOI: 10.1063/1.4959605
   
   in the mass-spec context:
   * V. Asgeirsson, C. Bauer and S. Grimme, Chem. Sci., 2017, 8, 4879.
     DOI: 10.1039/c7sc00601b
   * J. Koopman and S. Grimme, ACS Omega 2019, 4, 12, 15120-15133.
     DOI: 10.1021/acsomega.9b02011
   
   for metadynamics refer to:
   * S. Grimme, J. Chem. Theory Comput., 2019, 155, 2847-2862
     DOI: 10.1021/acs.jctc.9b00143
   
   for SPH calculations refer to:
   * S. Spicher and S. Grimme, J. Chem. Theory Comput., 2021, 17, 1701-1714
     DOI: 10.1021/acs.jctc.0c01306
   
   with help from (in alphabetical order)
   P. Atkinson, C. Bannwarth, F. Bohle, G. Brandenburg, E. Caldeweyher
   M. Checinski, S. Dohm, S. Ehlert, S. Ehrlich, I. Gerasimov, C. Hölzer
   A. Katbashev, J. Koopman, C. Lavigne, S. Lehtola, F. März, M. Müller,
   F. Musil, H. Neugebauer, J. Pisarek, C. Plett, P. Pracht, F. Pultar,
   J. Seibert, P. Shushkov, S. Spicher, M. Stahn, M. Steiner, T. Strunk,
   J. Stückrath, T. Rose, and J. Unsleber
   
 * started run on 2024/04/06 at 11:16:51.505     

           -------------------------------------------------
          |                Calculation Setup                |
           -------------------------------------------------

          program call               : xtb struc.xyz --opt loose --input .xc1 --gfn2
          hostname                   : n-62-30-23
          coordinate file            : struc.xyz
          omp threads                :                     1

   ID    Z sym.   atoms
    1    7 N      1, 17
    2    6 C      2-6, 8, 9, 11-16, 18-23, 25, 26, 28-33
    3    8 O      7, 10, 24, 27
    4    1 H      34-72
constraining bond 21 51 to    3.7133300 Å, actual value:    2.6534323 Å

           -------------------------------------------------
          |                 G F N 2 - x T B                 |
           -------------------------------------------------

        Reference                      10.1021/acs.jctc.8b01176
      * Hamiltonian:
        H0-scaling (s, p, d)           1.850000    2.230000    2.230000
        zeta-weighting                 0.500000
      * Dispersion:
        s8                             2.700000
        a1                             0.520000
        a2                             5.000000
        s9                             5.000000
      * Repulsion:
        kExp                           1.500000    1.000000
        rExp                           1.000000
      * Coulomb:
        alpha                          2.000000
        third order                    shell-resolved
        anisotropic                    true
        a3                             3.000000
        a5                             4.000000
        cn-shift                       1.200000
        cn-exp                         4.000000
        max-rad                        5.000000


          ...................................................
          :                      SETUP                      :
          :.................................................:
          :  # basis functions                 171          :
          :  # atomic orbitals                 171          :
          :  # shells                          105          :
          :  # electrons                       180          :
          :  max. iterations                   250          :
          :  Hamiltonian                  GFN2-xTB          :
          :  restarted?                      false          :
          :  GBSA solvation                  false          :
          :  PC potential                    false          :
          :  electronic temp.         5000.0000000     K    :
          :  accuracy                    1.0000000          :
          :  -> integral cutoff          0.2500000E+02      :
          :  -> integral neglect         0.1000000E-07      :
          :  -> SCF convergence          0.1000000E-05 Eh   :
          :  -> wf. convergence          0.1000000E-03 e    :
          :  Broyden damping             0.4000000          :
          ...................................................

 iter      E             dE          RMSdq      gap      omega  full diag
   1   -100.5973919 -0.100597E+03  0.374E+00    3.20       0.0  T
   2   -100.7362642 -0.138872E+00  0.221E+00    1.08       1.0  T
   3   -100.7049001  0.313641E-01  0.141E+00    3.29       1.0  T
   4   -100.7721690 -0.672689E-01  0.526E-01    1.50       1.0  T
   5   -100.7894292 -0.172602E-01  0.190E-01    1.98       1.0  T
   6   -100.7911978 -0.176856E-02  0.792E-02    1.77       1.0  T
   7   -100.7914750 -0.277198E-03  0.375E-02    1.83       1.0  T
   8   -100.7914914 -0.164582E-04  0.140E-02    1.83       1.0  T
   9   -100.7914976 -0.616739E-05  0.474E-03    1.82       2.5  T
  10   -100.7914988 -0.118227E-05  0.172E-03    1.82       6.8  T
  11   -100.7914989 -0.139928E-06  0.766E-04    1.82      15.4  T
  12   -100.7914989 -0.773143E-08  0.318E-04    1.82      37.0  T

   *** convergence criteria satisfied after 12 iterations ***

         #    Occupation            Energy/Eh            Energy/eV
      -------------------------------------------------------------
         1        2.0000           -0.8078051             -21.9815
       ...           ...                  ...                  ...
        84        1.9966           -0.5157491             -14.0342
        85        1.9959           -0.5128261             -13.9547
        86        1.9840           -0.4911498             -13.3649
        87        1.9795           -0.4872543             -13.2589
        88        1.9640           -0.4782114             -13.0128
        89        1.8920           -0.4602041             -12.5228
        90        1.8557           -0.4553147             -12.3897 (HOMO)
        91        0.3166           -0.3884132             -10.5693 (LUMO)
        92        0.0218           -0.3434697              -9.3463
        93        0.0041           -0.3169887              -8.6257
        94        0.0034           -0.3139726              -8.5436
        95        0.0029           -0.3112618              -8.4699
       ...           ...                  ...                  ...
       171                          0.5822580              15.8440
      -------------------------------------------------------------
                  HL-Gap            0.0669015 Eh            1.8205 eV
             Fermi-level           -0.4148687 Eh          -11.2892 eV

 SCC (total)                   0 d,  0 h,  0 min,  0.192 sec
 SCC setup                      ...        0 min,  0.001 sec (  0.682%)
 Dispersion                     ...        0 min,  0.002 sec (  1.134%)
 classical contributions        ...        0 min,  0.001 sec (  0.295%)
 integral evaluation            ...        0 min,  0.018 sec (  9.574%)
 iterations                     ...        0 min,  0.099 sec ( 51.582%)
 molecular gradient             ...        0 min,  0.070 sec ( 36.395%)
 printout                       ...        0 min,  0.001 sec (  0.331%)

         :::::::::::::::::::::::::::::::::::::::::::::::::::::
         ::                     SUMMARY                     ::
         :::::::::::::::::::::::::::::::::::::::::::::::::::::
         :: total energy             -99.604714579870 Eh    ::
         :: gradient norm              0.284443990142 Eh/a0 ::
         :: HOMO-LUMO gap              1.820481192090 eV    ::
         ::.................................................::
         :: SCC energy              -100.791498925389 Eh    ::
         :: -> isotropic ES            0.109302908418 Eh    ::
         :: -> anisotropic ES          0.005415138735 Eh    ::
         :: -> anisotropic XC          0.042392697176 Eh    ::
         :: -> dispersion             -0.075527661009 Eh    ::
         :: repulsion energy           1.386151658689 Eh    ::
         :: add. restraining          -0.200583665676 Eh    ::
         :: total charge               1.000000000108 e     ::
         :::::::::::::::::::::::::::::::::::::::::::::::::::::

      ----------------------------------------------------------- 
     |                   =====================                   |
     |                        A N C O P T                        |
     |                   =====================                   |
     |               Approximate Normal Coordinate               |
     |                Rational Function Optimizer                |
      ----------------------------------------------------------- 

          ...................................................
          :                      SETUP                      :
          :.................................................:
          :   optimization level             loose          :
          :   max. optcycles                   200          :
          :   ANC micro-cycles                  20          :
          :   degrees of freedom               210          :
          :.................................................:
          :   RF solver                   davidson          :
          :   write xtbopt.log                true          :
          :   linear?                        false          :
          :   energy convergence         0.5000000E-04 Eh   :
          :   grad. convergence          0.4000000E-02 Eh/α :
          :   maxmium RF displ.          1.0000000          :
          :   Hlow (freq-cutoff)         0.1000000E-01      :
          :   Hmax (freq-cutoff)         5.0000000          :
          :   S6 in model hess.         20.0000000          :
          ...................................................

generating ANC from model Hessian ...
Using Lindh-Hessian (1995)
 Shifting diagonal of input Hessian by    7.6943083247971680E-002
 Lowest  eigenvalues of input Hessian
    0.010000    0.000000    0.000000    0.000000    0.000000    0.000000
    0.000000    0.077040    0.077063    0.077167    0.077270    0.077383
    0.077753    0.077860    0.078002    0.078207    0.078724    0.078860
 Highest eigenvalues
    2.102905    2.112901    2.113902    2.246386    2.248262    2.253998


........................................................................
.............................. CYCLE    1 ..............................
........................................................................

 iter      E             dE          RMSdq      gap      omega  full diag
   1   -100.7914989 -0.100791E+03  0.114E-04    1.82       0.0  T
   2   -100.7914989 -0.678995E-10  0.713E-05    1.82     165.2  T
   3   -100.7914989  0.665210E-10  0.496E-05    1.82     237.5  T
     SCC iter.                  ...        0 min,  0.026 sec
     gradient                   ...        0 min,  0.069 sec
 * total energy  :   -99.6047146 Eh     change       -0.4035485E-08 Eh
   gradient norm :     0.2844438 Eh/α   predicted     0.0000000E+00 (-100.00%)
   displ. norm   :     0.9401801 α      lambda       -0.2348025E+00
   maximum displ.:     0.9191241 α      in ANC's #1, #145, #140, ...

........................................................................
.............................. CYCLE    2 ..............................
........................................................................

 iter      E             dE          RMSdq      gap      omega  full diag
   1   -100.7524479 -0.100752E+03  0.440E-01    1.85       0.0  T
   2   -100.7530663 -0.618443E-03  0.267E-01    1.85       1.0  T
   3   -100.7524392  0.627141E-03  0.119E-01    1.84       1.0  T
   4   -100.7533523 -0.913120E-03  0.256E-02    1.87       1.0  T
   5   -100.7533884 -0.361525E-04  0.105E-02    1.84       1.1  T
   6   -100.7533915 -0.305847E-05  0.682E-03    1.86       1.7  T
   7   -100.7533944 -0.292893E-05  0.259E-03    1.85       4.5  T
   8   -100.7533946 -0.228705E-06  0.922E-04    1.85      12.8  T
   9   -100.7533947 -0.785394E-08  0.418E-04    1.85      28.2  T
     SCC iter.                  ...        0 min,  0.074 sec
     gradient                   ...        0 min,  0.069 sec
 * total energy  :   -99.8722476 Eh     change       -0.2675330E+00 Eh
   gradient norm :     0.3425142 Eh/α   predicted    -0.2211886E+00 ( -17.32%)
   displ. norm   :     0.9567250 α      lambda       -0.3018806E+00
   maximum displ.:     0.9407065 α      in ANC's #1, #145, #140, ...

........................................................................
.............................. CYCLE    3 ..............................
........................................................................

 iter      E             dE          RMSdq      gap      omega  full diag
   1   -100.6249046 -0.100625E+03  0.488E-01    1.85       0.0  T
   2   -100.6289430 -0.403848E-02  0.274E-01    1.90       1.0  T
   3   -100.6292709 -0.327908E-03  0.142E-01    1.86       1.0  T
   4   -100.6292761 -0.512164E-05  0.730E-02    1.95       1.0  T
   5   -100.6295967 -0.320585E-03  0.250E-02    1.88       1.0  T
   6   -100.6296207 -0.240605E-04  0.134E-02    1.91       1.0  T
   7   -100.6296341 -0.133653E-04  0.377E-03    1.89       3.1  T
   8   -100.6296347 -0.596515E-06  0.156E-03    1.90       7.5  T
   9   -100.6296347 -0.299903E-07  0.763E-04    1.90      15.4  T
  10   -100.6296347 -0.166291E-07  0.310E-04    1.90      38.1  T
     SCC iter.                  ...        0 min,  0.081 sec
     gradient                   ...        0 min,  0.069 sec
 * total energy  :  -100.1955316 Eh     change       -0.3232840E+00 Eh
   gradient norm :     0.4099240 Eh/α   predicted    -0.2890995E+00 ( -10.57%)
   displ. norm   :     0.9486926 α      lambda       -0.3506738E+00
   maximum displ.:     0.9281058 α      in ANC's #1, #145, #199, ...

........................................................................
.............................. CYCLE    4 ..............................
........................................................................

 iter      E             dE          RMSdq      gap      omega  full diag
   1   -100.5021721 -0.100502E+03  0.981E-01    0.72       0.0  T
   2   -100.4685269  0.336452E-01  0.796E-01    1.49       1.0  T
   3   -100.4535381  0.149887E-01  0.854E-01    0.38       1.0  T
   4   -100.5155503 -0.620121E-01  0.227E-01    1.20       1.0  T
   5   -100.5189966 -0.344639E-02  0.102E-01    1.16       1.0  T
   6   -100.5194414 -0.444714E-03  0.638E-02    1.14       1.0  T
   7   -100.5197783 -0.336971E-03  0.127E-02    1.08       1.0  T
   8   -100.5197840 -0.570934E-05  0.706E-03    1.09       1.7  T
   9   -100.5197860 -0.191563E-05  0.421E-03    1.09       2.8  T
  10   -100.5197870 -0.100622E-05  0.177E-03    1.09       6.7  T
  11   -100.5197872 -0.239287E-06  0.444E-04    1.09      26.6  T
  12   -100.5197872 -0.118664E-07  0.173E-04    1.09      68.2  T
     SCC iter.                  ...        0 min,  0.095 sec
     gradient                   ...        0 min,  0.069 sec
 * total energy  :  -100.5235616 Eh     change       -0.3280300E+00 Eh
   gradient norm :     0.2068405 Eh/α   predicted    -0.3331432E+00 (   1.56%)
   displ. norm   :     0.4202133 α      lambda       -0.6079297E-01
   maximum displ.:     0.1508390 α      in ANC's #83, #1, #72, ...

........................................................................
.............................. CYCLE    5 ..............................
........................................................................

 iter      E             dE          RMSdq      gap      omega  full diag
   1   -100.5445171 -0.100545E+03  0.301E-01    1.01       0.0  T
   2   -100.5421482  0.236890E-02  0.287E-01    0.83       1.0  T
   3   -100.5437245 -0.157630E-02  0.190E-01    1.13       1.0  T
   4   -100.5449560 -0.123147E-02  0.171E-01    0.86       1.0  T
   5   -100.5469317 -0.197571E-02  0.191E-02    0.98       1.0  T
   6   -100.5469494 -0.176859E-04  0.137E-02    0.98       1.0  T
   7   -100.5469630 -0.136509E-04  0.338E-03    0.99       3.5  T
   8   -100.5469633 -0.256925E-06  0.185E-03    0.99       6.4  T
   9   -100.5469635 -0.258805E-06  0.767E-04    0.99      15.4  T
  10   -100.5469636 -0.230389E-07  0.346E-04    0.99      34.0  T
     SCC iter.                  ...        0 min,  0.081 sec
     gradient                   ...        0 min,  0.069 sec
 * total energy  :  -100.5747104 Eh     change       -0.5114878E-01 Eh
   gradient norm :     0.2066630 Eh/α   predicted    -0.3576417E-01 ( -30.08%)
   displ. norm   :     0.7838259 α      lambda       -0.1207299E+00
   maximum displ.:     0.2969035 α      in ANC's #83, #145, #156, ...

........................................................................
.............................. CYCLE    6 ..............................
........................................................................

 iter      E             dE          RMSdq      gap      omega  full diag
   1   -100.5815272 -0.100582E+03  0.534E-01    0.90       0.0  T
   2   -100.5780468  0.348045E-02  0.456E-01    0.76       1.0  T
   3   -100.5770640  0.982784E-03  0.343E-01    1.06       1.0  T
   4   -100.5770879 -0.238934E-04  0.353E-01    0.67       1.0  T
   5   -100.5873618 -0.102739E-01  0.672E-02    0.94       1.0  T
   6   -100.5875768 -0.214962E-03  0.414E-02    0.89       1.0  T
   7   -100.5877340 -0.157218E-03  0.125E-02    0.91       1.0  T
   8   -100.5877459 -0.118521E-04  0.488E-03    0.90       2.4  T
   9   -100.5877477 -0.183552E-05  0.216E-03    0.91       5.5  T
  10   -100.5877478 -0.104543E-06  0.945E-04    0.91      12.5  T
  11   -100.5877478 -0.331518E-07  0.418E-04    0.91      28.2  T
     SCC iter.                  ...        0 min,  0.088 sec
     gradient                   ...        0 min,  0.069 sec
 * total energy  :  -100.5631683 Eh     change        0.1154206E-01 Eh
   gradient norm :     0.5576731 Eh/α   predicted    -0.9745378E-01 (-944.34%)
   displ. norm   :     0.3853907 α      lambda       -0.1420867E+00
   maximum displ.:     0.2814962 α      in ANC's #1, #52, #41, ...

........................................................................
.............................. CYCLE    7 ..............................
........................................................................

 iter      E             dE          RMSdq      gap      omega  full diag
   1   -100.6078495 -0.100608E+03  0.375E-01    0.78       0.0  T
   2   -100.5820346  0.258149E-01  0.583E-01    1.30       1.0  T
   3   -100.6140426 -0.320080E-01  0.189E-01    0.84       1.0  T
   4   -100.6145244 -0.481808E-03  0.131E-01    0.94       1.0  T
   5   -100.6163608 -0.183644E-02  0.366E-02    0.93       1.0  T
   6   -100.6164307 -0.698538E-04  0.130E-02    0.93       1.0  T
   7   -100.6164404 -0.974169E-05  0.545E-03    0.94       2.2  T
   8   -100.6164420 -0.152077E-05  0.154E-03    0.93       7.6  T
   9   -100.6164421 -0.109435E-06  0.692E-04    0.93      17.0  T
  10   -100.6164421 -0.255283E-07  0.308E-04    0.93      38.2  T
     SCC iter.                  ...        0 min,  0.081 sec
     gradient                   ...        0 min,  0.070 sec
 * total energy  :  -100.6605883 Eh     change       -0.9741997E-01 Eh
   gradient norm :     0.1244888 Eh/α   predicted    -0.8159524E-01 ( -16.24%)
   displ. norm   :     0.5636385 α      lambda       -0.4467477E-01
   maximum displ.:     0.2446016 α      in ANC's #1, #83, #41, ...

........................................................................
.............................. CYCLE    8 ..............................
........................................................................

 iter      E             dE          RMSdq      gap      omega  full diag
   1   -100.6468155 -0.100647E+03  0.350E-01    0.93       0.0  T
   2   -100.6333129  0.135026E-01  0.441E-01    1.20       1.0  T
   3   -100.6484206 -0.151077E-01  0.217E-01    0.92       1.0  T
   4   -100.6477420  0.678666E-03  0.171E-01    1.05       1.0  T
   5   -100.6511123 -0.337034E-02  0.358E-02    1.00       1.0  T
   6   -100.6511964 -0.840831E-04  0.152E-02    1.00       1.0  T
   7   -100.6512065 -0.100872E-04  0.574E-03    1.00       2.1  T
   8   -100.6512093 -0.287196E-05  0.190E-03    1.00       6.2  T
   9   -100.6512094 -0.848959E-07  0.621E-04    1.00      19.0  T
  10   -100.6512094 -0.113249E-07  0.260E-04    1.00      45.3  T
     SCC iter.                  ...        0 min,  0.081 sec
     gradient                   ...        0 min,  0.075 sec
 * total energy  :  -100.6909557 Eh     change       -0.3036744E-01 Eh
   gradient norm :     0.1988670 Eh/α   predicted    -0.2943382E-01 (  -3.07%)
   displ. norm   :     0.4248987 α      lambda       -0.4086814E-01
   maximum displ.:     0.1918685 α      in ANC's #1, #52, #78, ...

........................................................................
.............................. CYCLE    9 ..............................
........................................................................

 iter      E             dE          RMSdq      gap      omega  full diag
   1   -100.6834766 -0.100683E+03  0.286E-01    1.05       0.0  T
   2   -100.6710246  0.124521E-01  0.415E-01    1.32       1.0  T
   3   -100.6863307 -0.153061E-01  0.143E-01    1.05       1.0  T
   4   -100.6858388  0.491930E-03  0.111E-01    1.15       1.0  T
   5   -100.6869905 -0.115171E-02  0.337E-02    1.09       1.0  T
   6   -100.6871090 -0.118480E-03  0.768E-03    1.11       1.5  T
   7   -100.6871131 -0.411941E-05  0.343E-03    1.11       3.4  T
   8   -100.6871136 -0.492966E-06  0.146E-03    1.11       8.1  T
   9   -100.6871137 -0.880986E-07  0.524E-04    1.11      22.5  T
  10   -100.6871137 -0.127338E-07  0.220E-04    1.11      53.5  T
     SCC iter.                  ...        0 min,  0.081 sec
     gradient                   ...        0 min,  0.069 sec
 * total energy  :  -100.7177839 Eh     change       -0.2682821E-01 Eh
   gradient norm :     0.0631926 Eh/α   predicted    -0.2412324E-01 ( -10.08%)
   displ. norm   :     0.4559876 α      lambda       -0.1886730E-01
   maximum displ.:     0.1806505 α      in ANC's #1, #78, #85, ...

........................................................................
.............................. CYCLE   10 ..............................
........................................................................

 iter      E             dE          RMSdq      gap      omega  full diag
   1   -100.7096793 -0.100710E+03  0.223E-01    1.14       0.0  T
   2   -100.7067487  0.293053E-02  0.225E-01    1.26       1.0  T
   3   -100.7092925 -0.254376E-02  0.151E-01    1.10       1.0  T
   4   -100.7101319 -0.839439E-03  0.704E-02    1.21       1.0  T
   5   -100.7105914 -0.459502E-03  0.180E-02    1.16       1.0  T
   6   -100.7106243 -0.328495E-04  0.476E-03    1.17       2.5  T
   7   -100.7106255 -0.115511E-05  0.237E-03    1.17       5.0  T
   8   -100.7106258 -0.302076E-06  0.794E-04    1.17      14.8  T
   9   -100.7106258 -0.266276E-07  0.319E-04    1.17      37.0  T
     SCC iter.                  ...        0 min,  0.072 sec
     gradient                   ...        0 min,  0.069 sec
 * total energy  :  -100.7235254 Eh     change       -0.5741498E-02 Eh
   gradient norm :     0.2321066 Eh/α   predicted    -0.1139513E-01 (  98.47%)
   displ. norm   :     0.3437558 α      lambda       -0.2796138E-01
   maximum displ.:     0.1037347 α      in ANC's #78, #125, #52, ...

........................................................................
.............................. CYCLE   11 ..............................
........................................................................

 iter      E             dE          RMSdq      gap      omega  full diag
   1   -100.7204929 -0.100720E+03  0.198E-01    1.18       0.0  T
   2   -100.7201970  0.295861E-03  0.132E-01    1.20       1.0  T
   3   -100.7188445  0.135253E-02  0.163E-01    1.14       1.0  T
   4   -100.7203933 -0.154881E-02  0.517E-02    1.22       1.0  T
   5   -100.7206791 -0.285855E-03  0.120E-02    1.17       1.0  T
   6   -100.7206944 -0.152663E-04  0.472E-03    1.19       2.5  T
   7   -100.7206962 -0.176393E-05  0.179E-03    1.18       6.6  T
   8   -100.7206962 -0.390681E-07  0.788E-04    1.18      15.0  T
   9   -100.7206962 -0.331872E-07  0.248E-04    1.18      47.5  T
     SCC iter.                  ...        0 min,  0.072 sec
     gradient                   ...        0 min,  0.069 sec
 * total energy  :  -100.7372128 Eh     change       -0.1368734E-01 Eh
   gradient norm :     0.0783797 Eh/α   predicted    -0.1563280E-01 (  14.21%)
   displ. norm   :     0.2892355 α      lambda       -0.5656494E-02
   maximum displ.:     0.0896676 α      in ANC's #1, #26, #12, ...

........................................................................
.............................. CYCLE   12 ..............................
........................................................................

 iter      E             dE          RMSdq      gap      omega  full diag
   1   -100.7208514 -0.100721E+03  0.122E-01    1.19       0.0  T
   2   -100.7207242  0.127197E-03  0.762E-02    1.23       1.0  T
   3   -100.7196519  0.107224E-02  0.123E-01    1.13       1.0  T
   4   -100.7208765 -0.122464E-02  0.162E-02    1.21       1.0  T
   5   -100.7208968 -0.202675E-04  0.459E-03    1.20       2.6  T
   6   -100.7208984 -0.159588E-05  0.234E-03    1.21       5.0  T
   7   -100.7208988 -0.378580E-06  0.842E-04    1.20      14.0  T
   8   -100.7208988 -0.190388E-07  0.329E-04    1.20      35.8  T
     SCC iter.                  ...        0 min,  0.064 sec
     gradient                   ...        0 min,  0.069 sec
 * total energy  :  -100.7410224 Eh     change       -0.3809575E-02 Eh
   gradient norm :     0.0265516 Eh/α   predicted    -0.3064843E-02 ( -19.55%)
   displ. norm   :     0.3239841 α      lambda       -0.4424446E-02
   maximum displ.:     0.0977726 α      in ANC's #12, #26, #78, ...

........................................................................
.............................. CYCLE   13 ..............................
........................................................................

 iter      E             dE          RMSdq      gap      omega  full diag
   1   -100.7219177 -0.100722E+03  0.118E-01    1.23       0.0  T
   2   -100.7218895  0.282086E-04  0.713E-02    1.26       1.0  T
   3   -100.7209841  0.905438E-03  0.926E-02    1.14       1.0  T
   4   -100.7219207 -0.936660E-03  0.206E-02    1.25       1.0  T
   5   -100.7219496 -0.288394E-04  0.568E-03    1.24       2.1  T
   6   -100.7219514 -0.184111E-05  0.266E-03    1.24       4.4  T
   7   -100.7219519 -0.488910E-06  0.132E-03    1.24       8.9  T
   8   -100.7219519 -0.624898E-07  0.392E-04    1.24      30.1  T
   9   -100.7219520 -0.103889E-07  0.140E-04    1.24      84.2  T
     SCC iter.                  ...        0 min,  0.072 sec
     gradient                   ...        0 min,  0.069 sec
 * total energy  :  -100.7437896 Eh     change       -0.2767260E-02 Eh
   gradient norm :     0.0565604 Eh/α   predicted    -0.2444441E-02 ( -11.67%)
   displ. norm   :     0.4027654 α      lambda       -0.4973166E-02
   maximum displ.:     0.1312463 α      in ANC's #22, #12, #26, ...

........................................................................
.............................. CYCLE   14 ..............................
........................................................................

 iter      E             dE          RMSdq      gap      omega  full diag
   1   -100.7128731 -0.100713E+03  0.134E-01    1.27       0.0  T
   2   -100.7128561  0.170218E-04  0.793E-02    1.30       1.0  T
   3   -100.7119487  0.907329E-03  0.981E-02    1.18       1.0  T
   4   -100.7128922 -0.943501E-03  0.701E-03    1.28       1.7  T
   5   -100.7128943 -0.206389E-05  0.526E-03    1.28       2.2  T
   6   -100.7128956 -0.127824E-05  0.293E-03    1.28       4.0  T
   7   -100.7128962 -0.622458E-06  0.975E-04    1.28      12.1  T
   8   -100.7128962 -0.402479E-07  0.376E-04    1.28      31.3  T
     SCC iter.                  ...        0 min,  0.064 sec
     gradient                   ...        0 min,  0.069 sec
 * total energy  :  -100.7469764 Eh     change       -0.3186804E-02 Eh
   gradient norm :     0.0492944 Eh/α   predicted    -0.2889958E-02 (  -9.31%)
   displ. norm   :     0.3687406 α      lambda       -0.4597782E-02
   maximum displ.:     0.1239420 α      in ANC's #22, #12, #32, ...

........................................................................
.............................. CYCLE   15 ..............................
........................................................................

 iter      E             dE          RMSdq      gap      omega  full diag
   1   -100.7126790 -0.100713E+03  0.114E-01    1.34       0.0  T
   2   -100.7126461  0.329432E-04  0.691E-02    1.36       1.0  T
   3   -100.7120455  0.600584E-03  0.930E-02    1.30       1.0  T
   4   -100.7127054 -0.659891E-03  0.892E-03    1.35       1.3  T
   5   -100.7127099 -0.444297E-05  0.624E-03    1.34       1.9  T
   6   -100.7127137 -0.389440E-05  0.220E-03    1.35       5.4  T
   7   -100.7127139 -0.173821E-06  0.114E-03    1.34      10.4  T
   8   -100.7127140 -0.445627E-07  0.393E-04    1.35      30.0  T
   9   -100.7127140 -0.899922E-08  0.115E-04    1.35     102.2  T
     SCC iter.                  ...        0 min,  0.072 sec
     gradient                   ...        0 min,  0.069 sec
 * total energy  :  -100.7504858 Eh     change       -0.3509335E-02 Eh
   gradient norm :     0.0388948 Eh/α   predicted    -0.2611470E-02 ( -25.59%)
   displ. norm   :     0.5162700 α      lambda       -0.5678859E-02
   maximum displ.:     0.1901748 α      in ANC's #22, #12, #50, ...

........................................................................
.............................. CYCLE   16 ..............................
........................................................................

 iter      E             dE          RMSdq      gap      omega  full diag
   1   -100.7173657 -0.100717E+03  0.151E-01    1.44       0.0  T
   2   -100.7171072  0.258540E-03  0.107E-01    1.46       1.0  T
   3   -100.7171392 -0.320373E-04  0.975E-02    1.43       1.0  T
   4   -100.7176177 -0.478515E-03  0.141E-02    1.45       1.0  T
   5   -100.7176290 -0.112551E-04  0.469E-03    1.44       2.5  T
   6   -100.7176299 -0.874279E-06  0.321E-03    1.45       3.7  T
   7   -100.7176307 -0.874025E-06  0.139E-03    1.44       8.5  T
   8   -100.7176308 -0.721012E-07  0.543E-04    1.44      21.7  T
   9   -100.7176308 -0.173701E-07  0.153E-04    1.44      77.1  T
     SCC iter.                  ...        0 min,  0.072 sec
     gradient                   ...        0 min,  0.069 sec
 * total energy  :  -100.7549402 Eh     change       -0.4454415E-02 Eh
   gradient norm :     0.0374231 Eh/α   predicted    -0.3596236E-02 ( -19.27%)
   displ. norm   :     0.5233062 α      lambda       -0.5648850E-02
   maximum displ.:     0.2005171 α      in ANC's #22, #50, #12, ...

........................................................................
.............................. CYCLE   17 ..............................
........................................................................

 iter      E             dE          RMSdq      gap      omega  full diag
   1   -100.7282663 -0.100728E+03  0.152E-01    1.54       0.0  T
   2   -100.7280583  0.207981E-03  0.110E-01    1.51       1.0  T
   3   -100.7283269 -0.268523E-03  0.832E-02    1.54       1.0  T
   4   -100.7285793 -0.252461E-03  0.220E-02    1.50       1.0  T
   5   -100.7286112 -0.319038E-04  0.105E-02    1.54       1.1  T
   6   -100.7286220 -0.107644E-04  0.236E-03    1.52       5.0  T
   7   -100.7286223 -0.306096E-06  0.101E-03    1.52      11.7  T
   8   -100.7286223 -0.152511E-07  0.480E-04    1.52      24.6  T
   9   -100.7286223 -0.100542E-07  0.149E-04    1.52      78.9  T
     SCC iter.                  ...        0 min,  0.073 sec
     gradient                   ...        0 min,  0.069 sec
 * total energy  :  -100.7591686 Eh     change       -0.4228432E-02 Eh
   gradient norm :     0.0559772 Eh/α   predicted    -0.3597886E-02 ( -14.91%)
   displ. norm   :     0.4951995 α      lambda       -0.4653228E-02
   maximum displ.:     0.1929545 α      in ANC's #22, #50, #12, ...

........................................................................
.............................. CYCLE   18 ..............................
........................................................................

 iter      E             dE          RMSdq      gap      omega  full diag
   1   -100.7357697 -0.100736E+03  0.135E-01    1.56       0.0  T
   2   -100.7357250  0.447819E-04  0.865E-02    1.56       1.0  T
   3   -100.7356407  0.842965E-04  0.754E-02    1.57       1.0  T
   4   -100.7358975 -0.256849E-03  0.137E-02    1.54       1.0  T
   5   -100.7359113 -0.137653E-04  0.653E-03    1.57       1.8  T
   6   -100.7359152 -0.388666E-05  0.168E-03    1.56       7.0  T
   7   -100.7359153 -0.119158E-06  0.750E-04    1.56      15.7  T
   8   -100.7359153 -0.540599E-08  0.350E-04    1.56      33.6  T
     SCC iter.                  ...        0 min,  0.065 sec
     gradient                   ...        0 min,  0.075 sec
 * total energy  :  -100.7625897 Eh     change       -0.3421108E-02 Eh
   gradient norm :     0.0289076 Eh/α   predicted    -0.2897153E-02 ( -15.32%)
   displ. norm   :     0.3957038 α      lambda       -0.3452344E-02
   maximum displ.:     0.1437423 α      in ANC's #22, #50, #32, ...

........................................................................
.............................. CYCLE   19 ..............................
........................................................................

 iter      E             dE          RMSdq      gap      omega  full diag
   1   -100.7427433 -0.100743E+03  0.104E-01    1.56       0.0  T
   2   -100.7427397  0.364082E-05  0.651E-02    1.57       1.0  T
   3   -100.7426262  0.113410E-03  0.535E-02    1.55       1.0  T
   4   -100.7427811 -0.154888E-03  0.481E-03    1.57       2.5  T
   5   -100.7427817 -0.615326E-06  0.261E-03    1.56       4.5  T
   6   -100.7427820 -0.246654E-06  0.163E-03    1.57       7.2  T
   7   -100.7427821 -0.151533E-06  0.790E-04    1.56      14.9  T
   8   -100.7427822 -0.306673E-07  0.294E-04    1.56      40.0  T
     SCC iter.                  ...        0 min,  0.065 sec
     gradient                   ...        0 min,  0.069 sec
 * total energy  :  -100.7647653 Eh     change       -0.2175586E-02 Eh
   gradient norm :     0.0336075 Eh/α   predicted    -0.1996464E-02 (  -8.23%)
   displ. norm   :     0.4036475 α      lambda       -0.2244322E-02
   maximum displ.:     0.1474038 α      in ANC's #22, #32, #12, ...

........................................................................
.............................. CYCLE   20 ..............................
........................................................................

 iter      E             dE          RMSdq      gap      omega  full diag
   1   -100.7383349 -0.100738E+03  0.919E-02    1.54       0.0  T
   2   -100.7383062  0.287724E-04  0.595E-02    1.59       1.0  T
   3   -100.7379477  0.358508E-03  0.665E-02    1.49       1.0  T
   4   -100.7383596 -0.411902E-03  0.906E-03    1.56       1.3  T
   5   -100.7383648 -0.520151E-05  0.266E-03    1.56       4.4  T
   6   -100.7383652 -0.398379E-06  0.136E-03    1.56       8.6  T
   7   -100.7383652 -0.430733E-07  0.424E-04    1.56      27.8  T
   8   -100.7383652 -0.465661E-08  0.201E-04    1.56      58.7  T
     SCC iter.                  ...        0 min,  0.065 sec
     gradient                   ...        0 min,  0.069 sec
 * total energy  :  -100.7662180 Eh     change       -0.1452720E-02 Eh
   gradient norm :     0.0243200 Eh/α   predicted    -0.1305011E-02 ( -10.17%)
   displ. norm   :     0.3172738 α      lambda       -0.2583012E-02
   maximum displ.:     0.0913792 α      in ANC's #52, #47, #22, ...
 * RMSD in coord.:     0.7284733 α      energy gain  -0.1161503E+01 Eh

generating ANC from model Hessian ...
Using Lindh-Hessian (1995)
 Shifting diagonal of input Hessian by    9.9435140772384505E-003
 Lowest  eigenvalues of input Hessian
    0.000000    0.000000    0.000000    0.000000    0.000000    0.000000
    0.010000    0.010054    0.010235    0.010272    0.010288    0.010542
    0.010721    0.010844    0.010983    0.011485    0.012100    0.012526
 Highest eigenvalues
    2.005069    2.041785    2.108885    2.111923    2.181542    2.208728


........................................................................
.............................. CYCLE   21 ..............................
........................................................................

 iter      E             dE          RMSdq      gap      omega  full diag
   1   -100.7494340 -0.100749E+03  0.792E-02    1.53       0.0  T
   2   -100.7494090  0.250306E-04  0.551E-02    1.58       1.0  T
   3   -100.7492089  0.200094E-03  0.540E-02    1.50       1.0  T
   4   -100.7494531 -0.244235E-03  0.112E-02    1.56       1.1  T
   5   -100.7494648 -0.116378E-04  0.314E-03    1.55       3.8  T
   6   -100.7494651 -0.394404E-06  0.138E-03    1.56       8.5  T
   7   -100.7494652 -0.213967E-07  0.651E-04    1.55      18.1  T
   8   -100.7494652 -0.181894E-07  0.221E-04    1.55      53.3  T
     SCC iter.                  ...        0 min,  0.065 sec
     gradient                   ...        0 min,  0.069 sec
 * total energy  :  -100.7677223 Eh     change       -0.1504328E-02 Eh
   gradient norm :     0.0305958 Eh/α   predicted     0.0000000E+00 (-100.00%)
   displ. norm   :     0.2879960 α      lambda       -0.2807520E-02
   maximum displ.:     0.1160116 α      in ANC's #7, #18, #4, ...

........................................................................
.............................. CYCLE   22 ..............................
........................................................................

 iter      E             dE          RMSdq      gap      omega  full diag
   1   -100.7486674 -0.100749E+03  0.672E-02    1.58       0.0  T
   2   -100.7486669  0.469230E-06  0.430E-02    1.55       1.0  T
   3   -100.7485496  0.117278E-03  0.385E-02    1.61       1.0  T
   4   -100.7486742 -0.124610E-03  0.912E-03    1.56       1.3  T
   5   -100.7486821 -0.788312E-05  0.280E-03    1.56       4.2  T
   6   -100.7486826 -0.496401E-06  0.902E-04    1.56      13.1  T
   7   -100.7486826 -0.177219E-07  0.524E-04    1.56      22.5  T
     SCC iter.                  ...        0 min,  0.057 sec
     gradient                   ...        0 min,  0.075 sec
 * total energy  :  -100.7698072 Eh     change       -0.2084808E-02 Eh
   gradient norm :     0.0245685 Eh/α   predicted    -0.1520770E-02 ( -27.05%)
   displ. norm   :     0.5324446 α      lambda       -0.3193713E-02
   maximum displ.:     0.2373298 α      in ANC's #7, #18, #4, ...

........................................................................
.............................. CYCLE   23 ..............................
........................................................................

 iter      E             dE          RMSdq      gap      omega  full diag
   1   -100.7455698 -0.100746E+03  0.104E-01    1.58       0.0  T
   2   -100.7455742 -0.443548E-05  0.640E-02    1.56       1.0  T
   3   -100.7453900  0.184232E-03  0.498E-02    1.62       1.0  T
   4   -100.7455838 -0.193893E-03  0.108E-02    1.56       1.1  T
   5   -100.7455941 -0.102758E-04  0.400E-03    1.57       2.9  T
   6   -100.7455951 -0.102038E-05  0.163E-03    1.57       7.2  T
   7   -100.7455952 -0.935859E-07  0.723E-04    1.57      16.3  T
   8   -100.7455953 -0.141687E-07  0.310E-04    1.57      38.1  T
     SCC iter.                  ...        0 min,  0.065 sec
     gradient                   ...        0 min,  0.069 sec
 * total energy  :  -100.7716716 Eh     change       -0.1864397E-02 Eh
   gradient norm :     0.0344285 Eh/α   predicted    -0.2049563E-02 (   9.93%)
   displ. norm   :     0.4572152 α      lambda       -0.1911754E-02
   maximum displ.:     0.2377375 α      in ANC's #7, #4, #18, ...

........................................................................
.............................. CYCLE   24 ..............................
........................................................................

 iter      E             dE          RMSdq      gap      omega  full diag
   1   -100.7468499 -0.100747E+03  0.694E-02    1.58       0.0  T
   2   -100.7468538 -0.388256E-05  0.410E-02    1.57       1.0  T
   3   -100.7468314  0.223831E-04  0.177E-02    1.59       1.0  T
   4   -100.7468552 -0.237187E-04  0.429E-03    1.57       2.7  T
   5   -100.7468562 -0.101142E-05  0.208E-03    1.57       5.7  T
   6   -100.7468564 -0.250207E-06  0.104E-03    1.57      11.3  T
   7   -100.7468565 -0.348118E-07  0.507E-04    1.57      23.3  T
   8   -100.7468565 -0.147814E-07  0.165E-04    1.57      71.5  T
     SCC iter.                  ...        0 min,  0.065 sec
     gradient                   ...        0 min,  0.069 sec
 * total energy  :  -100.7731498 Eh     change       -0.1478255E-02 Eh
   gradient norm :     0.0172036 Eh/α   predicted    -0.1155715E-02 ( -21.82%)
   displ. norm   :     0.5414844 α      lambda       -0.1888236E-02
   maximum displ.:     0.3016888 α      in ANC's #7, #4, #18, ...

........................................................................
.............................. CYCLE   25 ..............................
........................................................................

 iter      E             dE          RMSdq      gap      omega  full diag
   1   -100.7513376 -0.100751E+03  0.804E-02    1.58       0.0  T
   2   -100.7513415 -0.388831E-05  0.476E-02    1.58       1.0  T
   3   -100.7513353  0.619485E-05  0.918E-03    1.58       1.3  T
   4   -100.7513422 -0.696782E-05  0.344E-03    1.58       3.4  T
   5   -100.7513426 -0.423009E-06  0.197E-03    1.58       6.0  T
   6   -100.7513428 -0.194479E-06  0.124E-03    1.58       9.5  T
   7   -100.7513429 -0.935702E-07  0.420E-04    1.58      28.0  T
   8   -100.7513429 -0.373271E-08  0.161E-04    1.58      73.0  T
     SCC iter.                  ...        0 min,  0.065 sec
     gradient                   ...        0 min,  0.069 sec
 * total energy  :  -100.7747141 Eh     change       -0.1564252E-02 Eh
   gradient norm :     0.0211667 Eh/α   predicted    -0.1220940E-02 ( -21.95%)
   displ. norm   :     0.6086762 α      lambda       -0.1774590E-02
   maximum displ.:     0.3576193 α      in ANC's #7, #4, #18, ...

........................................................................
.............................. CYCLE   26 ..............................
........................................................................

 iter      E             dE          RMSdq      gap      omega  full diag
   1   -100.7554046 -0.100755E+03  0.900E-02    1.58       0.0  T
   2   -100.7554069 -0.235243E-05  0.534E-02    1.59       1.0  T
   3   -100.7553350  0.718952E-04  0.278E-02    1.56       1.0  T
   4   -100.7554079 -0.728917E-04  0.646E-03    1.59       1.8  T
   5   -100.7554115 -0.362399E-05  0.209E-03    1.58       5.6  T
   6   -100.7554117 -0.125650E-06  0.117E-03    1.59      10.1  T
   7   -100.7554117 -0.296799E-07  0.577E-04    1.58      20.4  T
   8   -100.7554117 -0.780344E-08  0.244E-04    1.58      48.3  T
     SCC iter.                  ...        0 min,  0.065 sec
     gradient                   ...        0 min,  0.070 sec
 * total energy  :  -100.7761102 Eh     change       -0.1396137E-02 Eh
   gradient norm :     0.0127917 Eh/α   predicted    -0.1216035E-02 ( -12.90%)
   displ. norm   :     0.5868597 α      lambda       -0.1182363E-02
   maximum displ.:     0.3614876 α      in ANC's #7, #4, #18, ...

........................................................................
.............................. CYCLE   27 ..............................
........................................................................

 iter      E             dE          RMSdq      gap      omega  full diag
   1   -100.7563148 -0.100756E+03  0.854E-02    1.58       0.0  T
   2   -100.7563092  0.562711E-05  0.521E-02    1.60       1.0  T
   3   -100.7561199  0.189295E-03  0.489E-02    1.54       1.0  T
   4   -100.7563196 -0.199696E-03  0.124E-02    1.60       1.0  T
   5   -100.7563338 -0.141679E-04  0.205E-03    1.58       5.8  T
   6   -100.7563339 -0.113136E-06  0.120E-03    1.59       9.8  T
   7   -100.7563339 -0.284940E-07  0.541E-04    1.59      21.8  T
   8   -100.7563339 -0.900532E-08  0.161E-04    1.59      73.0  T
     SCC iter.                  ...        0 min,  0.065 sec
     gradient                   ...        0 min,  0.069 sec
 * total energy  :  -100.7770238 Eh     change       -0.9135716E-03 Eh
   gradient norm :     0.0141647 Eh/α   predicted    -0.7947963E-03 ( -13.00%)
   displ. norm   :     0.5036678 α      lambda       -0.8207202E-03
   maximum displ.:     0.3274679 α      in ANC's #7, #4, #18, ...

........................................................................
.............................. CYCLE   28 ..............................
........................................................................

 iter      E             dE          RMSdq      gap      omega  full diag
   1   -100.7577665 -0.100758E+03  0.760E-02    1.57       0.0  T
   2   -100.7577563  0.101529E-04  0.483E-02    1.60       1.0  T
   3   -100.7576473  0.109001E-03  0.451E-02    1.55       1.0  T
   4   -100.7577748 -0.127520E-03  0.161E-02    1.60       1.0  T
   5   -100.7577991 -0.242395E-04  0.217E-03    1.58       5.4  T
   6   -100.7577993 -0.217776E-06  0.112E-03    1.59      10.5  T
   7   -100.7577993 -0.371466E-07  0.511E-04    1.58      23.1  T
   8   -100.7577993 -0.315003E-08  0.185E-04    1.58      63.9  T
     SCC iter.                  ...        0 min,  0.065 sec
     gradient                   ...        0 min,  0.069 sec
 * total energy  :  -100.7776496 Eh     change       -0.6258135E-03 Eh
   gradient norm :     0.0120809 Eh/α   predicted    -0.5144672E-03 ( -17.79%)
   displ. norm   :     0.5004012 α      lambda       -0.6325404E-03
   maximum displ.:     0.3208822 α      in ANC's #7, #4, #18, ...

........................................................................
.............................. CYCLE   29 ..............................
........................................................................

 iter      E             dE          RMSdq      gap      omega  full diag
   1   -100.7552070 -0.100755E+03  0.740E-02    1.57       0.0  T
   2   -100.7551942  0.128070E-04  0.472E-02    1.60       1.0  T
   3   -100.7550652  0.129007E-03  0.465E-02    1.54       1.0  T
   4   -100.7552179 -0.152679E-03  0.144E-02    1.60       1.0  T
   5   -100.7552365 -0.186185E-04  0.263E-03    1.58       4.5  T
   6   -100.7552369 -0.363192E-06  0.101E-03    1.58      11.7  T
   7   -100.7552369 -0.251589E-07  0.537E-04    1.58      21.9  T
   8   -100.7552369 -0.539266E-08  0.220E-04    1.58      53.5  T
     SCC iter.                  ...        0 min,  0.065 sec
     gradient                   ...        0 min,  0.069 sec
 * total energy  :  -100.7781198 Eh     change       -0.4702538E-03 Eh
   gradient norm :     0.0114839 Eh/α   predicted    -0.3954812E-03 ( -15.90%)
   displ. norm   :     0.4625316 α      lambda       -0.6580082E-03
   maximum displ.:     0.2948225 α      in ANC's #7, #4, #2, ...

........................................................................
.............................. CYCLE   30 ..............................
........................................................................

 iter      E             dE          RMSdq      gap      omega  full diag
   1   -100.7591170 -0.100759E+03  0.705E-02    1.57       0.0  T
   2   -100.7591093  0.771326E-05  0.455E-02    1.60       1.0  T
   3   -100.7590332  0.760723E-04  0.409E-02    1.56       1.0  T
   4   -100.7591269 -0.936812E-04  0.154E-02    1.60       1.0  T
   5   -100.7591490 -0.221282E-04  0.233E-03    1.58       5.1  T
   6   -100.7591493 -0.306164E-06  0.114E-03    1.58      10.3  T
   7   -100.7591494 -0.442945E-07  0.484E-04    1.58      24.4  T
   8   -100.7591494 -0.311597E-08  0.222E-04    1.58      53.2  T
     SCC iter.                  ...        0 min,  0.065 sec
     gradient                   ...        0 min,  0.069 sec
 * total energy  :  -100.7785101 Eh     change       -0.3903080E-03 Eh
   gradient norm :     0.0135526 Eh/α   predicted    -0.3993937E-03 (   2.33%)
   displ. norm   :     0.4277286 α      lambda       -0.4689308E-03
   maximum displ.:     0.2685977 α      in ANC's #7, #4, #2, ...

........................................................................
.............................. CYCLE   31 ..............................
........................................................................

 iter      E             dE          RMSdq      gap      omega  full diag
   1   -100.7562399 -0.100756E+03  0.578E-02    1.58       0.0  T
   2   -100.7562386  0.129006E-05  0.350E-02    1.59       1.0  T
   3   -100.7561376  0.100935E-03  0.336E-02    1.55       1.0  T
   4   -100.7562439 -0.106296E-03  0.685E-03    1.59       1.7  T
   5   -100.7562481 -0.415799E-05  0.185E-03    1.58       6.4  T
   6   -100.7562482 -0.144833E-06  0.753E-04    1.58      15.6  T
   7   -100.7562482 -0.372185E-08  0.368E-04    1.58      32.0  T
     SCC iter.                  ...        0 min,  0.057 sec
     gradient                   ...        0 min,  0.069 sec
 * total energy  :  -100.7788622 Eh     change       -0.3520431E-03 Eh
   gradient norm :     0.0090056 Eh/α   predicted    -0.2773711E-03 ( -21.21%)
   displ. norm   :     0.4062364 α      lambda       -0.5281053E-03
   maximum displ.:     0.2192808 α      in ANC's #7, #2, #11, ...

........................................................................
.............................. CYCLE   32 ..............................
........................................................................

 iter      E             dE          RMSdq      gap      omega  full diag
   1   -100.7578639 -0.100758E+03  0.500E-02    1.58       0.0  T
   2   -100.7578638  0.820722E-07  0.304E-02    1.59       1.0  T
   3   -100.7577994  0.644490E-04  0.272E-02    1.56       1.0  T
   4   -100.7578660 -0.665784E-04  0.746E-03    1.59       1.6  T
   5   -100.7578710 -0.500611E-05  0.151E-03    1.58       7.8  T
   6   -100.7578711 -0.103423E-06  0.587E-04    1.59      20.1  T
   7   -100.7578711 -0.320394E-08  0.289E-04    1.58      40.8  T
     SCC iter.                  ...        0 min,  0.058 sec
     gradient                   ...        0 min,  0.075 sec
 * total energy  :  -100.7792696 Eh     change       -0.4074546E-03 Eh
   gradient norm :     0.0072544 Eh/α   predicted    -0.3076298E-03 ( -24.50%)
   displ. norm   :     0.5863350 α      lambda       -0.6119347E-03
   maximum displ.:     0.3159175 α      in ANC's #7, #2, #11, ...

........................................................................
.............................. CYCLE   33 ..............................
........................................................................

 iter      E             dE          RMSdq      gap      omega  full diag
   1   -100.7562408 -0.100756E+03  0.718E-02    1.59       0.0  T
   2   -100.7562471 -0.634393E-05  0.427E-02    1.59       1.0  T
   3   -100.7562057  0.414145E-04  0.245E-02    1.57       1.0  T
   4   -100.7562430 -0.372884E-04  0.965E-03    1.60       1.2  T
   5   -100.7562523 -0.932084E-05  0.188E-03    1.59       6.3  T
   6   -100.7562525 -0.186118E-06  0.859E-04    1.59      13.7  T
   7   -100.7562525 -0.187855E-07  0.478E-04    1.59      24.7  T
     SCC iter.                  ...        0 min,  0.058 sec
     gradient                   ...        0 min,  0.069 sec
 * total energy  :  -100.7796999 Eh     change       -0.4302386E-03 Eh
   gradient norm :     0.0115696 Eh/α   predicted    -0.4111622E-03 (  -4.43%)
   displ. norm   :     0.4690173 α      lambda       -0.7190979E-03
   maximum displ.:     0.2009389 α      in ANC's #11, #2, #12, ...

........................................................................
.............................. CYCLE   34 ..............................
........................................................................

 iter      E             dE          RMSdq      gap      omega  full diag
   1   -100.7613242 -0.100761E+03  0.614E-02    1.59       0.0  T
   2   -100.7613287 -0.454528E-05  0.365E-02    1.59       1.0  T
   3   -100.7613060  0.226892E-04  0.190E-02    1.60       1.0  T
   4   -100.7613280 -0.219690E-04  0.579E-03    1.58       2.0  T
   5   -100.7613309 -0.288846E-05  0.241E-03    1.59       4.9  T
   6   -100.7613314 -0.476174E-06  0.799E-04    1.59      14.7  T
   7   -100.7613314 -0.158188E-07  0.421E-04    1.59      28.0  T
     SCC iter.                  ...        0 min,  0.058 sec
     gradient                   ...        0 min,  0.069 sec
 * total energy  :  -100.7801313 Eh     change       -0.4313773E-03 Eh
   gradient norm :     0.0115133 Eh/α   predicted    -0.4386480E-03 (   1.69%)
   displ. norm   :     0.5430433 α      lambda       -0.4627403E-03
   maximum displ.:     0.3121062 α      in ANC's #7, #2, #11, ...

........................................................................
.............................. CYCLE   35 ..............................
........................................................................

 iter      E             dE          RMSdq      gap      omega  full diag
   1   -100.7581938 -0.100758E+03  0.623E-02    1.59       0.0  T
   2   -100.7581975 -0.368046E-05  0.371E-02    1.59       1.0  T
   3   -100.7581656  0.319156E-04  0.219E-02    1.58       1.0  T
   4   -100.7581973 -0.316973E-04  0.612E-03    1.60       1.9  T
   5   -100.7582005 -0.325118E-05  0.244E-03    1.59       4.8  T
   6   -100.7582010 -0.481104E-06  0.878E-04    1.59      13.4  T
   7   -100.7582010 -0.179748E-07  0.453E-04    1.59      26.0  T
     SCC iter.                  ...        0 min,  0.057 sec
     gradient                   ...        0 min,  0.069 sec
 * total energy  :  -100.7804500 Eh     change       -0.3187370E-03 Eh
   gradient norm :     0.0149147 Eh/α   predicted    -0.2996010E-03 (  -6.00%)
   displ. norm   :     0.3747978 α      lambda       -0.4830525E-03
   maximum displ.:     0.2162849 α      in ANC's #7, #2, #11, ...

........................................................................
.............................. CYCLE   36 ..............................
........................................................................

 iter      E             dE          RMSdq      gap      omega  full diag
   1   -100.7595196 -0.100760E+03  0.457E-02    1.59       0.0  T
   2   -100.7595201 -0.572065E-06  0.278E-02    1.59       1.0  T
   3   -100.7594899  0.302255E-04  0.224E-02    1.61       1.0  T
   4   -100.7595220 -0.321137E-04  0.599E-03    1.58       2.0  T
   5   -100.7595253 -0.325438E-05  0.164E-03    1.59       7.2  T
   6   -100.7595255 -0.178191E-06  0.612E-04    1.59      19.3  T
   7   -100.7595255 -0.294455E-08  0.407E-04    1.59      29.0  T
     SCC iter.                  ...        0 min,  0.057 sec
     gradient                   ...        0 min,  0.069 sec
 * total energy  :  -100.7807725 Eh     change       -0.3225336E-03 Eh
   gradient norm :     0.0114865 Eh/α   predicted    -0.2754740E-03 ( -14.59%)
   displ. norm   :     0.4715031 α      lambda       -0.3839456E-03
   maximum displ.:     0.2268993 α      in ANC's #7, #2, #11, ...

........................................................................
.............................. CYCLE   37 ..............................
........................................................................

 iter      E             dE          RMSdq      gap      omega  full diag
   1   -100.7573666 -0.100757E+03  0.537E-02    1.59       0.0  T
   2   -100.7573683 -0.165691E-05  0.325E-02    1.59       1.0  T
   3   -100.7573440  0.242505E-04  0.203E-02    1.60       1.0  T
   4   -100.7573703 -0.263242E-04  0.315E-03    1.59       3.7  T
   5   -100.7573708 -0.472540E-06  0.209E-03    1.59       5.6  T
   6   -100.7573712 -0.373538E-06  0.708E-04    1.59      16.6  T
   7   -100.7573712 -0.208262E-07  0.336E-04    1.59      35.1  T
     SCC iter.                  ...        0 min,  0.057 sec
     gradient                   ...        0 min,  0.069 sec
 * total energy  :  -100.7810679 Eh     change       -0.2953284E-03 Eh
   gradient norm :     0.0098878 Eh/α   predicted    -0.2346542E-03 ( -20.54%)
   displ. norm   :     0.4336253 α      lambda       -0.4904289E-03
   maximum displ.:     0.1983055 α      in ANC's #2, #7, #6, ...

........................................................................
.............................. CYCLE   38 ..............................
........................................................................

 iter      E             dE          RMSdq      gap      omega  full diag
   1   -100.7612794 -0.100761E+03  0.615E-02    1.59       0.0  T
   2   -100.7612875 -0.810855E-05  0.384E-02    1.59       1.0  T
   3   -100.7612629  0.246085E-04  0.249E-02    1.60       1.0  T
   4   -100.7612959 -0.329621E-04  0.468E-03    1.59       2.5  T
   5   -100.7612971 -0.126237E-05  0.218E-03    1.59       5.4  T
   6   -100.7612974 -0.283008E-06  0.116E-03    1.59      10.1  T
   7   -100.7612975 -0.889356E-07  0.540E-04    1.59      21.8  T
   8   -100.7612975 -0.143891E-07  0.187E-04    1.59      63.1  T
     SCC iter.                  ...        0 min,  0.065 sec
     gradient                   ...        0 min,  0.069 sec
 * total energy  :  -100.7813765 Eh     change       -0.3086653E-03 Eh
   gradient norm :     0.0078009 Eh/α   predicted    -0.2913231E-03 (  -5.62%)
   displ. norm   :     0.5872797 α      lambda       -0.4055664E-03
   maximum displ.:     0.3168875 α      in ANC's #7, #2, #6, ...

........................................................................
.............................. CYCLE   39 ..............................
........................................................................

 iter      E             dE          RMSdq      gap      omega  full diag
   1   -100.7564327 -0.100756E+03  0.653E-02    1.58       0.0  T
   2   -100.7564348 -0.203700E-05  0.385E-02    1.59       1.0  T
   3   -100.7564127  0.220418E-04  0.157E-02    1.57       1.0  T
   4   -100.7564344 -0.216541E-04  0.494E-03    1.59       2.4  T
   5   -100.7564365 -0.208299E-05  0.169E-03    1.58       7.0  T
   6   -100.7564366 -0.125035E-06  0.718E-04    1.59      16.4  T
   7   -100.7564366 -0.445800E-08  0.362E-04    1.59      32.6  T
     SCC iter.                  ...        0 min,  0.057 sec
     gradient                   ...        0 min,  0.069 sec
 * total energy  :  -100.7816204 Eh     change       -0.2438310E-03 Eh
   gradient norm :     0.0140579 Eh/α   predicted    -0.2727241E-03 (  11.85%)
   displ. norm   :     0.2849026 α      lambda       -0.3082854E-03
   maximum displ.:     0.1266337 α      in ANC's #2, #6, #7, ...

........................................................................
.............................. CYCLE   40 ..............................
........................................................................

 iter      E             dE          RMSdq      gap      omega  full diag
   1   -100.7589797 -0.100759E+03  0.402E-02    1.58       0.0  T
   2   -100.7589813 -0.160060E-05  0.238E-02    1.59       1.0  T
   3   -100.7589726  0.870881E-05  0.107E-02    1.58       1.1  T
   4   -100.7589813 -0.869454E-05  0.346E-03    1.59       3.4  T
   5   -100.7589822 -0.936046E-06  0.157E-03    1.58       7.5  T
   6   -100.7589824 -0.156857E-06  0.654E-04    1.59      18.0  T
   7   -100.7589824 -0.132133E-07  0.271E-04    1.58      43.5  T
     SCC iter.                  ...        0 min,  0.057 sec
     gradient                   ...        0 min,  0.070 sec
 * total energy  :  -100.7818473 Eh     change       -0.2269320E-03 Eh
   gradient norm :     0.0086928 Eh/α   predicted    -0.1666555E-03 ( -26.56%)
   displ. norm   :     0.4736074 α      lambda       -0.3661063E-03
   maximum displ.:     0.2070353 α      in ANC's #2, #7, #6, ...

........................................................................
.............................. CYCLE   41 ..............................
........................................................................

 iter      E             dE          RMSdq      gap      omega  full diag
   1   -100.7605105 -0.100761E+03  0.608E-02    1.59       0.0  T
   2   -100.7605130 -0.249460E-05  0.363E-02    1.59       1.0  T
   3   -100.7604941  0.189258E-04  0.173E-02    1.59       1.0  T
   4   -100.7605156 -0.215100E-04  0.230E-03    1.59       5.1  T
   5   -100.7605157 -0.129048E-06  0.128E-03    1.59       9.2  T
   6   -100.7605158 -0.233984E-07  0.781E-04    1.59      15.1  T
   7   -100.7605158 -0.301617E-07  0.381E-04    1.59      31.0  T
     SCC iter.                  ...        0 min,  0.057 sec
     gradient                   ...        0 min,  0.069 sec
 * total energy  :  -100.7820936 Eh     change       -0.2462889E-03 Eh
   gradient norm :     0.0087661 Eh/α   predicted    -0.2241155E-03 (  -9.00%)
   displ. norm   :     0.4710016 α      lambda       -0.3125557E-03
   maximum displ.:     0.2042980 α      in ANC's #2, #6, #7, ...

........................................................................
.............................. CYCLE   42 ..............................
........................................................................

 iter      E             dE          RMSdq      gap      omega  full diag
   1   -100.7611870 -0.100761E+03  0.603E-02    1.59       0.0  T
   2   -100.7611888 -0.177958E-05  0.354E-02    1.58       1.0  T
   3   -100.7611671  0.216980E-04  0.153E-02    1.60       1.0  T
   4   -100.7611891 -0.219776E-04  0.393E-03    1.58       3.0  T
   5   -100.7611903 -0.120855E-05  0.145E-03    1.59       8.1  T
   6   -100.7611903 -0.484968E-07  0.682E-04    1.59      17.3  T
   7   -100.7611903 -0.157943E-07  0.249E-04    1.59      47.3  T
     SCC iter.                  ...        0 min,  0.057 sec
     gradient                   ...        0 min,  0.069 sec
 * total energy  :  -100.7823196 Eh     change       -0.2259979E-03 Eh
   gradient norm :     0.0066702 Eh/α   predicted    -0.1909480E-03 ( -15.51%)
   displ. norm   :     0.5482377 α      lambda       -0.2879731E-03
   maximum displ.:     0.2399579 α      in ANC's #2, #7, #6, ...
 * RMSD in coord.:     0.9945965 α      energy gain  -0.1610155E-01 Eh

generating ANC from model Hessian ...
Using Lindh-Hessian (1995)
 Shifting diagonal of input Hessian by    9.9481644612039819E-003
 Lowest  eigenvalues of input Hessian
    0.000000    0.000000    0.000000    0.000000    0.000000    0.000000
    0.010000    0.010074    0.010184    0.010291    0.010318    0.010538
    0.010652    0.010856    0.011117    0.011592    0.012125    0.012510
 Highest eigenvalues
    2.021791    2.041995    2.080868    2.108288    2.181355    2.218581


........................................................................
.............................. CYCLE   43 ..............................
........................................................................

 iter      E             dE          RMSdq      gap      omega  full diag
   1   -100.7597877 -0.100760E+03  0.657E-02    1.59       0.0  T
   2   -100.7597893 -0.158244E-05  0.390E-02    1.58       1.0  T
   3   -100.7597455  0.437918E-04  0.230E-02    1.61       1.0  T
   4   -100.7597903 -0.447884E-04  0.553E-03    1.58       2.1  T
   5   -100.7597928 -0.244933E-05  0.207E-03    1.59       5.7  T
   6   -100.7597930 -0.210588E-06  0.791E-04    1.59      14.9  T
   7   -100.7597930 -0.144799E-07  0.361E-04    1.59      32.6  T
     SCC iter.                  ...        0 min,  0.057 sec
     gradient                   ...        0 min,  0.069 sec
 * total energy  :  -100.7825440 Eh     change       -0.2243994E-03 Eh
   gradient norm :     0.0078256 Eh/α   predicted     0.0000000E+00 (-100.00%)
   displ. norm   :     0.0781570 α      lambda       -0.1604763E-03
   maximum displ.:     0.0295862 α      in ANC's #20, #5, #21, ...

........................................................................
.............................. CYCLE   44 ..............................
........................................................................

 iter      E             dE          RMSdq      gap      omega  full diag
   1   -100.7627667 -0.100763E+03  0.195E-02    1.59       0.0  T
   2   -100.7627664  0.359589E-06  0.120E-02    1.59       1.0  T
   3   -100.7627532  0.131798E-04  0.124E-02    1.60       1.0  T
   4   -100.7627674 -0.142576E-04  0.161E-03    1.59       7.3  T
   5   -100.7627676 -0.204734E-06  0.600E-04    1.59      19.6  T
   6   -100.7627677 -0.227378E-07  0.237E-04    1.59      49.8  T
     SCC iter.                  ...        0 min,  0.049 sec
     gradient                   ...        0 min,  0.069 sec
 * total energy  :  -100.7826818 Eh     change       -0.1378456E-03 Eh
   gradient norm :     0.0043753 Eh/α   predicted    -0.9050472E-04 ( -34.34%)
   displ. norm   :     0.1883877 α      lambda       -0.2339673E-03
   maximum displ.:     0.0732686 α      in ANC's #20, #5, #21, ...

........................................................................
.............................. CYCLE   45 ..............................
........................................................................

 iter      E             dE          RMSdq      gap      omega  full diag
   1   -100.7655830 -0.100766E+03  0.384E-02    1.60       0.0  T
   2   -100.7655810  0.197686E-05  0.237E-02    1.59       1.0  T
   3   -100.7655223  0.586826E-04  0.250E-02    1.62       1.0  T
   4   -100.7655855 -0.631982E-04  0.200E-03    1.59       5.9  T
   5   -100.7655857 -0.243578E-06  0.937E-04    1.60      12.6  T
   6   -100.7655858 -0.258160E-07  0.487E-04    1.60      24.2  T
     SCC iter.                  ...        0 min,  0.050 sec
     gradient                   ...        0 min,  0.069 sec
 * total energy  :  -100.7828097 Eh     change       -0.1278635E-03 Eh
   gradient norm :     0.0102866 Eh/α   predicted    -0.1211408E-03 (  -5.26%)
   displ. norm   :     0.1602876 α      lambda       -0.1335415E-03
   maximum displ.:     0.0680301 α      in ANC's #5, #20, #3, ...

........................................................................
.............................. CYCLE   46 ..............................
........................................................................

 iter      E             dE          RMSdq      gap      omega  full diag
   1   -100.7653084 -0.100765E+03  0.276E-02    1.60       0.0  T
   2   -100.7653076  0.866058E-06  0.169E-02    1.59       1.0  T
   3   -100.7652771  0.304445E-04  0.174E-02    1.62       1.0  T
   4   -100.7653096 -0.324582E-04  0.124E-03    1.60       9.5  T
   5   -100.7653096 -0.588517E-07  0.677E-04    1.60      17.4  T
   6   -100.7653096 -0.884654E-08  0.406E-04    1.60      29.1  T
     SCC iter.                  ...        0 min,  0.050 sec
     gradient                   ...        0 min,  0.069 sec
 * total energy  :  -100.7828907 Eh     change       -0.8106747E-04 Eh
   gradient norm :     0.0088166 Eh/α   predicted    -0.6849436E-04 ( -15.51%)
   displ. norm   :     0.1634043 α      lambda       -0.1065973E-03
   maximum displ.:     0.0755671 α      in ANC's #5, #3, #20, ...

........................................................................
.............................. CYCLE   47 ..............................
........................................................................

 iter      E             dE          RMSdq      gap      omega  full diag
   1   -100.7640949 -0.100764E+03  0.257E-02    1.60       0.0  T
   2   -100.7640949 -0.125651E-07  0.154E-02    1.59       1.0  T
   3   -100.7640825  0.123687E-04  0.110E-02    1.61       1.1  T
   4   -100.7640954 -0.129087E-04  0.174E-03    1.60       6.8  T
   5   -100.7640956 -0.180386E-06  0.747E-04    1.60      15.8  T
   6   -100.7640956 -0.138360E-07  0.336E-04    1.60      35.1  T
     SCC iter.                  ...        0 min,  0.050 sec
     gradient                   ...        0 min,  0.069 sec
 * total energy  :  -100.7829814 Eh     change       -0.9066196E-04 Eh
   gradient norm :     0.0075976 Eh/α   predicted    -0.5476089E-04 ( -39.60%)
   displ. norm   :     0.3209568 α      lambda       -0.2046074E-03
   maximum displ.:     0.1573581 α      in ANC's #5, #3, #6, ...

........................................................................
.............................. CYCLE   48 ..............................
........................................................................

 iter      E             dE          RMSdq      gap      omega  full diag
   1   -100.7618451 -0.100762E+03  0.475E-02    1.60       0.0  T
   2   -100.7618463 -0.115070E-05  0.282E-02    1.59       1.0  T
   3   -100.7618340  0.123122E-04  0.126E-02    1.60       1.0  T
   4   -100.7618466 -0.126377E-04  0.336E-03    1.59       3.5  T
   5   -100.7618474 -0.777899E-06  0.170E-03    1.60       6.9  T
   6   -100.7618476 -0.156015E-06  0.619E-04    1.59      19.0  T
   7   -100.7618476 -0.116083E-07  0.223E-04    1.59      52.9  T
     SCC iter.                  ...        0 min,  0.058 sec
     gradient                   ...        0 min,  0.069 sec
 * total energy  :  -100.7831268 Eh     change       -0.1454336E-03 Eh
   gradient norm :     0.0043359 Eh/α   predicted    -0.1128703E-03 ( -22.39%)
   displ. norm   :     0.2805159 α      lambda       -0.1244749E-03
   maximum displ.:     0.1458764 α      in ANC's #5, #3, #6, ...

........................................................................
.............................. CYCLE   49 ..............................
........................................................................

 iter      E             dE          RMSdq      gap      omega  full diag
   1   -100.7611889 -0.100761E+03  0.385E-02    1.59       0.0  T
   2   -100.7611896 -0.708500E-06  0.227E-02    1.59       1.0  T
   3   -100.7611829  0.666358E-05  0.902E-03    1.60       1.3  T
   4   -100.7611897 -0.684159E-05  0.247E-03    1.59       4.8  T
   5   -100.7611902 -0.416950E-06  0.127E-03    1.59       9.3  T
   6   -100.7611902 -0.836332E-07  0.503E-04    1.59      23.4  T
   7   -100.7611902 -0.950911E-08  0.178E-04    1.59      66.2  T
     SCC iter.                  ...        0 min,  0.058 sec
     gradient                   ...        0 min,  0.069 sec
 * total energy  :  -100.7832290 Eh     change       -0.1021919E-03 Eh
   gradient norm :     0.0060366 Eh/α   predicted    -0.6713684E-04 ( -34.30%)
   displ. norm   :     0.3743845 α      lambda       -0.1834574E-03
   maximum displ.:     0.1988554 α      in ANC's #5, #3, #6, ...

........................................................................
.............................. CYCLE   50 ..............................
........................................................................

 iter      E             dE          RMSdq      gap      omega  full diag
   1   -100.7619207 -0.100762E+03  0.495E-02    1.59       0.0  T
   2   -100.7619219 -0.120601E-05  0.291E-02    1.59       1.0  T
   3   -100.7619139  0.800209E-05  0.950E-03    1.60       1.2  T
   4   -100.7619219 -0.804812E-05  0.308E-03    1.59       3.8  T
   5   -100.7619227 -0.749379E-06  0.133E-03    1.59       8.9  T
   6   -100.7619228 -0.869619E-07  0.551E-04    1.59      21.4  T
   7   -100.7619228 -0.130236E-07  0.199E-04    1.59      59.2  T
     SCC iter.                  ...        0 min,  0.057 sec
     gradient                   ...        0 min,  0.070 sec
 * total energy  :  -100.7833845 Eh     change       -0.1554719E-03 Eh
   gradient norm :     0.0082487 Eh/α   predicted    -0.1045906E-03 ( -32.73%)
   displ. norm   :     0.5320631 α      lambda       -0.2547886E-03
   maximum displ.:     0.2828842 α      in ANC's #5, #3, #6, ...

........................................................................
.............................. CYCLE   51 ..............................
........................................................................

 iter      E             dE          RMSdq      gap      omega  full diag
   1   -100.7626705 -0.100763E+03  0.688E-02    1.60       0.0  T
   2   -100.7626724 -0.187876E-05  0.406E-02    1.59       1.0  T
   3   -100.7626373  0.350912E-04  0.194E-02    1.61       1.0  T
   4   -100.7626730 -0.356796E-04  0.456E-03    1.59       2.6  T
   5   -100.7626749 -0.192585E-05  0.167E-03    1.60       7.0  T
   6   -100.7626750 -0.104181E-06  0.696E-04    1.59      16.9  T
   7   -100.7626750 -0.199103E-07  0.223E-04    1.59      52.8  T
     SCC iter.                  ...        0 min,  0.056 sec
     gradient                   ...        0 min,  0.070 sec
 * total energy  :  -100.7836028 Eh     change       -0.2182776E-03 Eh
   gradient norm :     0.0094543 Eh/α   predicted    -0.1634616E-03 ( -25.11%)
   displ. norm   :     0.6002028 α      lambda       -0.2959550E-03
   maximum displ.:     0.3221658 α      in ANC's #5, #3, #6, ...

........................................................................
.............................. CYCLE   52 ..............................
........................................................................

 iter      E             dE          RMSdq      gap      omega  full diag
   1   -100.7641236 -0.100764E+03  0.760E-02    1.60       0.0  T
   2   -100.7641253 -0.169673E-05  0.450E-02    1.59       1.0  T
   3   -100.7640596  0.656790E-04  0.268E-02    1.62       1.0  T
   4   -100.7641269 -0.673319E-04  0.537E-03    1.59       2.2  T
   5   -100.7641297 -0.277862E-05  0.190E-03    1.60       6.2  T
   6   -100.7641298 -0.117016E-06  0.996E-04    1.60      11.8  T
   7   -100.7641299 -0.363079E-07  0.331E-04    1.60      35.6  T
     SCC iter.                  ...        0 min,  0.057 sec
     gradient                   ...        0 min,  0.071 sec
 * total energy  :  -100.7838526 Eh     change       -0.2497852E-03 Eh
   gradient norm :     0.0084311 Eh/α   predicted    -0.2012863E-03 ( -19.42%)
   displ. norm   :     0.6402330 α      lambda       -0.2937264E-03
   maximum displ.:     0.3455729 α      in ANC's #5, #3, #2, ...

........................................................................
.............................. CYCLE   53 ..............................
........................................................................

 iter      E             dE          RMSdq      gap      omega  full diag
   1   -100.7640077 -0.100764E+03  0.789E-02    1.60       0.0  T
   2   -100.7640082 -0.410475E-06  0.470E-02    1.59       1.0  T
   3   -100.7638955  0.112657E-03  0.339E-02    1.63       1.0  T
   4   -100.7640129 -0.117445E-03  0.503E-03    1.59       2.3  T
   5   -100.7640152 -0.224586E-05  0.193E-03    1.60       6.1  T
   6   -100.7640153 -0.109003E-06  0.111E-03    1.60      10.7  T
   7   -100.7640153 -0.418376E-07  0.334E-04    1.60      35.3  T
   8   -100.7640154 -0.713129E-08  0.146E-04    1.60      80.8  T
     SCC iter.                  ...        0 min,  0.065 sec
     gradient                   ...        0 min,  0.069 sec
 * total energy  :  -100.7841028 Eh     change       -0.2502721E-03 Eh
   gradient norm :     0.0068029 Eh/α   predicted    -0.2070670E-03 ( -17.26%)
   displ. norm   :     0.6046045 α      lambda       -0.3073642E-03
   maximum displ.:     0.3267171 α      in ANC's #5, #3, #2, ...

........................................................................
.............................. CYCLE   54 ..............................
........................................................................

 iter      E             dE          RMSdq      gap      omega  full diag
   1   -100.7671173 -0.100767E+03  0.732E-02    1.60       0.0  T
   2   -100.7671166  0.768041E-06  0.440E-02    1.59       1.0  T
   3   -100.7669859  0.130683E-03  0.368E-02    1.64       1.0  T
   4   -100.7671233 -0.137386E-03  0.491E-03    1.59       2.4  T
   5   -100.7671253 -0.207862E-05  0.175E-03    1.60       6.7  T
   6   -100.7671254 -0.105450E-06  0.103E-03    1.60      11.5  T
   7   -100.7671255 -0.295410E-07  0.330E-04    1.60      35.7  T
   8   -100.7671255 -0.615522E-08  0.143E-04    1.60      82.4  T
     SCC iter.                  ...        0 min,  0.065 sec
     gradient                   ...        0 min,  0.069 sec
 * total energy  :  -100.7843449 Eh     change       -0.2420207E-03 Eh
   gradient norm :     0.0050668 Eh/α   predicted    -0.2098610E-03 ( -13.29%)
   displ. norm   :     0.7271748 α      lambda       -0.2959541E-03
   maximum displ.:     0.3931710 α      in ANC's #5, #3, #2, ...

........................................................................
.............................. CYCLE   55 ..............................
........................................................................

[...]
         ::                     SUMMARY                     ::
         :::::::::::::::::::::::::::::::::::::::::::::::::::::
         :: total energy            -100.786819338376 Eh    ::
         :: gradient norm              0.002370059489 Eh/a0 ::
         :: HOMO-LUMO gap              1.612616528770 eV    ::
         ::.................................................::
         :: SCC energy              -100.771291837055 Eh    ::
         :: -> isotropic ES            0.109394903491 Eh    ::
         :: -> anisotropic ES          0.004262048918 Eh    ::
         :: -> anisotropic XC          0.042662622054 Eh    ::
         :: -> dispersion             -0.076410372014 Eh    ::
         :: repulsion energy           1.513068333767 Eh    ::
         :: add. restraining          -1.530105318511 Eh    ::
         :: total charge               1.000000000084 e     ::
         :::::::::::::::::::::::::::::::::::::::::::::::::::::

           -------------------------------------------------
          |                Property Printout                |
           -------------------------------------------------

    * Orbital Energies and Occupations

         #    Occupation            Energy/Eh            Energy/eV
      -------------------------------------------------------------
         1        2.0000           -0.8136968             -22.1418
       ...           ...                  ...                  ...
        78        1.9983           -0.5285645             -14.3830
        79        1.9982           -0.5272971             -14.3485
        80        1.9982           -0.5271347             -14.3441
        81        1.9978           -0.5239522             -14.2575
        82        1.9976           -0.5227282             -14.2242
        83        1.9959           -0.5144710             -13.9995
        84        1.9953           -0.5119870             -13.9319
        85        1.9944           -0.5094303             -13.8623
        86        1.9822           -0.4908906             -13.3578
        87        1.9700           -0.4825598             -13.1311
        88        1.9360           -0.4702869             -12.7972
        89        1.8815           -0.4600882             -12.5196
        90        1.8157           -0.4525384             -12.3142 (HOMO)
        91        0.3785           -0.3932758             -10.7016 (LUMO)
        92        0.0462           -0.3570378              -9.7155
        93        0.0142           -0.3380685              -9.1993
        94        0.0039           -0.3173378              -8.6352
        95        0.0031           -0.3139543              -8.5431
        96        0.0007           -0.2898162              -7.8863
        97        0.0000           -0.2155416              -5.8652
        98        0.0000           -0.1916116              -5.2140
        99                         -0.1289265              -3.5083
       100                         -0.0691256              -1.8810
       101                         -0.0687463              -1.8707
       ...                                ...                  ...
       171                          1.1145024              30.3272
      -------------------------------------------------------------
                  HL-Gap            0.0592626 Eh            1.6126 eV
             Fermi-level           -0.4163125 Eh          -11.3284 eV

     #   Z          covCN         q      C6AA      α(0)
     1   7 N        1.774    -0.271    27.844     7.814
     2   6 C        2.828     0.101    25.751     8.315
     3   6 C        3.907     0.006    20.416     6.422
     4   6 C        2.974     0.001    28.007     8.681
     5   6 C        2.920    -0.081    30.022     8.985
     6   6 C        2.862     0.128    25.197     8.228
     7   8 O        1.706    -0.232    17.848     5.704
     8   6 C        3.644     0.028    20.438     6.498
     9   6 C        2.864     0.127    25.214     8.231
    10   8 O        1.706    -0.231    17.822     5.700
    11   6 C        3.645     0.027    20.449     6.499
    12   6 C        2.914    -0.075    29.883     8.964
    13   6 C        2.922    -0.053    29.315     8.879
    14   6 C        3.811    -0.063    21.700     6.631
    15   6 C        3.802    -0.070    21.845     6.654
    16   6 C        2.841     0.009    27.805     8.642
    17   7 N        2.728     0.015    21.000     6.806
    18   6 C        3.753    -0.015    20.909     6.521
    19   6 C        2.905    -0.086    30.146     9.003
    20   6 C        2.949     0.015    27.668     8.627
    21   6 C        3.813    -0.096    22.317     6.724
    22   6 C        2.897    -0.084    30.097     8.995
    23   6 C        2.850     0.135    25.054     8.204
    24   8 O        1.706    -0.229    17.804     5.697
    25   6 C        3.647     0.025    20.484     6.503
    26   6 C        2.858     0.148    24.791     8.161
    27   8 O        1.706    -0.208    17.466     5.643
    28   6 C        3.647     0.022    20.541     6.513
    29   6 C        2.913    -0.089    30.228     9.016
    30   6 C        3.701    -0.072    22.044     6.714
    31   6 C        3.853    -0.007    20.670     6.466
    32   6 C        3.756    -0.118    22.807     6.809
    33   6 C        3.755    -0.120    22.859     6.817
    34   1 H        0.926     0.051     2.304     2.374
    35   1 H        0.924     0.054     2.275     2.359
    36   1 H        0.925     0.081     1.971     2.195
    37   1 H        0.924     0.046     2.371     2.408
    38   1 H        0.924     0.055     2.256     2.349
    39   1 H        0.925     0.081     1.972     2.196
    40   1 H        0.924     0.047     2.358     2.401
    41   1 H        0.926     0.052     2.297     2.370
    42   1 H        0.926     0.039     2.464     2.455
    43   1 H        0.925     0.062     2.175     2.306
    44   1 H        0.924     0.054     2.274     2.358
    45   1 H        0.925     0.067     2.117     2.276
    46   1 H        0.924     0.077     2.005     2.214
    47   1 H        0.922     0.002     3.022     2.719
    48   1 H        0.926     0.067     2.120     2.277
    49   1 H        0.924     0.068     2.110     2.272
    50   1 H        0.924     0.063     2.164     2.300
    51   1 H        0.930     0.112     1.680     2.027
    52   1 H        0.926     0.040     2.455     2.450
    53   1 H        0.921     0.068     2.106     2.269
    54   1 H        0.926     0.053     2.282     2.362
    55   1 H        0.924     0.052     2.295     2.369
    56   1 H        0.924     0.051     2.302     2.373
    57   1 H        0.925     0.082     1.956     2.187
    58   1 H        0.925     0.086     1.922     2.168
    59   1 H        0.924     0.057     2.232     2.337
    60   1 H        0.924     0.057     2.240     2.340
    61   1 H        0.926     0.053     2.286     2.364
    62   1 H        0.925     0.077     2.015     2.220
    63   1 H        0.924     0.077     2.010     2.217
    64   1 H        0.925     0.087     1.907     2.160
    65   1 H        0.924     0.036     2.497     2.471
    66   1 H        0.925     0.066     2.126     2.280
    67   1 H        0.925     0.035     2.521     2.483
    68   1 H        0.925     0.051     2.307     2.375
    69   1 H        0.925     0.064     2.148     2.292
    70   1 H        0.925     0.035     2.520     2.483
    71   1 H        0.925     0.054     2.268     2.355
    72   1 H        0.860     0.156     1.360     1.827

 Mol. C6AA /au·bohr⁶  :      47425.442341
 Mol. C8AA /au·bohr⁸  :    1081980.352448
 Mol. α(0) /au        :        334.303008


Wiberg/Mayer (AO) data.
largest (>0.10) Wiberg bond orders for each atom

 ---------------------------------------------------------------------------
     #   Z sym  total        # sym  WBO       # sym  WBO       # sym  WBO
 ---------------------------------------------------------------------------
     1   7 N    3.035 --     2 C    1.955    72 H    0.942
     2   6 C    3.934 --     1 N    1.955     3 C    0.993    47 H    0.909
     3   6 C    3.976 --     2 C    0.993     4 C    0.974    14 C    0.954
                            31 C    0.943
     4   6 C    3.952 --    13 C    1.416     5 C    1.367     3 C    0.974
     5   6 C    3.963 --     6 C    1.402     4 C    1.367    34 H    0.958
     6   6 C    3.907 --     5 C    1.402     9 C    1.224     7 O    1.097
     7   8 O    2.253 --     6 C    1.097     8 C    0.978
     8   6 C    3.933 --     7 O    0.978    36 H    0.977    35 H    0.974
                            37 H    0.974
     9   6 C    3.904 --    12 C    1.392     6 C    1.224    10 O    1.100
    10   8 O    2.253 --     9 C    1.100    11 C    0.978
    11   6 C    3.932 --    10 O    0.978    39 H    0.977    40 H    0.974
                            38 H    0.973
    12   6 C    3.964 --    13 C    1.401     9 C    1.392    41 H    0.964
    13   6 C    3.956 --     4 C    1.416    12 C    1.401    42 H    0.962
    14   6 C    3.969 --    15 C    0.975    44 H    0.973    43 H    0.967
                             3 C    0.954
    15   6 C    3.987 --    16 C    1.059    14 C    0.975    45 H    0.962
                            46 H    0.933
    16   6 C    3.608 --    17 N    1.432    15 C    1.059    48 H    0.956
    17   7 N    3.480 --    16 C    1.432    30 C    0.998    18 C    0.958
    18   6 C    3.954 --    19 C    1.014    50 H    0.963    17 N    0.958
                            49 H    0.952
    19   6 C    3.852 --    20 C    1.677    18 C    1.014    52 H    0.964
    20   6 C    3.967 --    19 C    1.677    29 C    1.193    21 C    1.005
    21   6 C    3.984 --    22 C    1.027    20 C    1.005    51 H    0.956
                            53 H    0.919
    22   6 C    3.885 --    23 C    1.650    21 C    1.027    54 H    0.963
                            24 O    0.115
    23   6 C    3.916 --    22 C    1.650    24 O    1.098    26 C    1.058
    24   8 O    2.259 --    23 C    1.098    25 C    0.977    22 C    0.115
    25   6 C    3.931 --    24 O    0.977    57 H    0.977    55 H    0.974
                            56 H    0.973
    26   6 C    3.890 --    29 C    1.528    27 O    1.139    23 C    1.058
    27   8 O    2.305 --    26 C    1.139    28 C    0.972
    28   6 C    3.928 --    58 H    0.977    59 H    0.973    60 H    0.973
                            27 O    0.972
    29   6 C    3.896 --    26 C    1.528    20 C    1.193    61 H    0.958
    30   6 C    3.955 --    17 N    0.998    64 H    0.974    62 H    0.970
                            63 H    0.957
    31   6 C    3.973 --    33 C    1.009    32 C    1.008    65 H    0.960
                             3 C    0.943
    32   6 C    3.980 --    31 C    1.008    67 H    0.982    68 H    0.982
                            66 H    0.975
    33   6 C    3.981 --    31 C    1.009    70 H    0.983    71 H    0.980
                            69 H    0.975
    34   1 H    0.996 --     5 C    0.958
    35   1 H    0.994 --     8 C    0.974
    36   1 H    0.993 --     8 C    0.977
    37   1 H    0.994 --     8 C    0.974
    38   1 H    0.993 --    11 C    0.973
    39   1 H    0.993 --    11 C    0.977
    40   1 H    0.994 --    11 C    0.974
    41   1 H    0.996 --    12 C    0.964
    42   1 H    0.998 --    13 C    0.962
    43   1 H    0.994 --    14 C    0.967
    44   1 H    0.996 --    14 C    0.973
    45   1 H    0.995 --    15 C    0.962
    46   1 H    0.974 --    15 C    0.933
    47   1 H    0.987 --     2 C    0.909
    48   1 H    0.995 --    16 C    0.956
    49   1 H    0.983 --    18 C    0.952
    50   1 H    0.995 --    18 C    0.963
    51   1 H    0.984 --    21 C    0.956
    52   1 H    0.997 --    19 C    0.964
    53   1 H    0.983 --    21 C    0.919
    54   1 H    0.995 --    22 C    0.963
    55   1 H    0.994 --    25 C    0.974
    56   1 H    0.994 --    25 C    0.973
    57   1 H    0.993 --    25 C    0.977
    58   1 H    0.992 --    28 C    0.977
    59   1 H    0.994 --    28 C    0.973
    60   1 H    0.994 --    28 C    0.973
    61   1 H    0.996 --    29 C    0.958
    62   1 H    0.988 --    30 C    0.970
    63   1 H    0.985 --    30 C    0.957
    64   1 H    0.992 --    30 C    0.974
    65   1 H    0.993 --    31 C    0.960
    66   1 H    0.992 --    32 C    0.975
    67   1 H    0.997 --    32 C    0.982
    68   1 H    0.994 --    32 C    0.982
    69   1 H    0.992 --    33 C    0.975
    70   1 H    0.997 --    33 C    0.983
    71   1 H    0.994 --    33 C    0.980
    72   1 H    0.971 --     1 N    0.942
 ---------------------------------------------------------------------------

Topologies differ in total number of bonds
Writing topology from bond orders to xtbtopo.mol

molecular dipole:
                 x           y           z       tot (Debye)
 q only:        1.121      -0.066      -0.418
   full:        1.363      -0.102      -0.290       3.550
molecular quadrupole (traceless):
                xx          xy          yy          xz          yz          zz
 q only:       41.892      -2.147     -10.396       2.124     -11.058     -31.496
  q+dip:       36.319       3.682     -10.828       5.451     -13.453     -25.491
   full:       36.161       3.490     -11.353       4.863     -14.184     -24.809

           -------------------------------------------------
          |                Geometry Summary                 |
           -------------------------------------------------

      molecular mass/u    :      455.6105846
   center of mass at/Å    :       -0.0122655      -0.0220158      -0.0329746
  moments of inertia/u·Å² :        0.2573705E+04   0.9895287E+04   0.1128860E+05
rotational constants/cm⁻¹ :        0.6549946E-02   0.1703602E-02   0.1493333E-02

 * 62 selected distances

     #   Z          #   Z                                           value/Å
     1   7 N        2   6 C                                       1.2489854
     4   6 C        5   6 C                                       1.3964939
     5   6 C        6   6 C                                       1.3851132
     6   6 C        7   8 O                                       1.3496275
     7   8 O        8   6 C                                       1.4077908
     6   6 C        9   6 C                                       1.4208994
     9   6 C       10   8 O                                       1.3485222
    10   8 O       11   6 C                                       1.4083071
     9   6 C       12   6 C                                       1.3854991
     4   6 C       13   6 C                                       1.3858266
    12   6 C       13   6 C                                       1.3895813
    15   6 C       16   6 C                                       1.4789093
    16   6 C       17   7 N                                       1.3221015
    17   7 N       18   6 C                                       1.4603642
    19   6 C       20   6 C                                       1.3523549
    22   6 C       23   6 C                                       1.3441859
    23   6 C       24   8 O                                       1.3463254
    24   8 O       25   6 C                                       1.4077191
    26   6 C       27   8 O                                       1.3349994
    27   8 O       28   6 C                                       1.4100089
    20   6 C       29   6 C                                       1.4275395
    26   6 C       29   6 C                                       1.3606506
    17   7 N       30   6 C                                       1.4432992
    31   6 C       32   6 C                                       1.5268351 (max)
    31   6 C       33   6 C                                       1.5262822
     5   6 C       34   1 H                                       1.0775170
     8   6 C       35   1 H                                       1.0937921
     8   6 C       36   1 H                                       1.0880243
     8   6 C       37   1 H                                       1.0948790
    11   6 C       38   1 H                                       1.0935762
    11   6 C       39   1 H                                       1.0880599
    11   6 C       40   1 H                                       1.0945659
    12   6 C       41   1 H                                       1.0776285
    13   6 C       42   1 H                                       1.0787629
    14   6 C       43   1 H                                       1.0899192
    14   6 C       44   1 H                                       1.0909606
    15   6 C       45   1 H                                       1.0879188
    15   6 C       46   1 H                                       1.0967765
    16   6 C       48   1 H                                       1.0799914
    18   6 C       49   1 H                                       1.0976584
    18   6 C       50   1 H                                       1.0911012
    21   6 C       51   1 H                                       0.7859653 (min)
    19   6 C       52   1 H                                       1.0793019
    21   6 C       53   1 H                                       1.1120248
    22   6 C       54   1 H                                       1.0781178
    25   6 C       55   1 H                                       1.0939567
    25   6 C       56   1 H                                       1.0936354
    25   6 C       57   1 H                                       1.0873869
    28   6 C       58   1 H                                       1.0879593
    28   6 C       59   1 H                                       1.0939812
    28   6 C       60   1 H                                       1.0931303
    29   6 C       61   1 H                                       1.0785091
    30   6 C       62   1 H                                       1.0894699
    30   6 C       63   1 H                                       1.0925850
    30   6 C       64   1 H                                       1.0850981
    31   6 C       65   1 H                                       1.0962028
    32   6 C       66   1 H                                       1.0851982
    32   6 C       67   1 H                                       1.0873860
    32   6 C       68   1 H                                       1.0865485
    33   6 C       69   1 H                                       1.0852851
    33   6 C       70   1 H                                       1.0865938
    33   6 C       71   1 H                                       1.0867250

 * 4 distinct bonds (by element types)

   Z      Z             #   av. dist./Å        max./Å        min./Å
   1 H    6 C          37     1.0807079     1.1120248     0.7859653
   6 C    6 C          13     1.4138593     1.5268351     1.3441859
   6 C    7 N           4     1.3686876     1.4603642     1.2489854
   6 C    8 O           8     1.3766625     1.4100089     1.3349994


optimized geometry written to: xtbopt.xyz


           -------------------------------------------------
          | TOTAL ENERGY             -100.786819338376 Eh   |
          | GRADIENT NORM               0.002370059489 Eh/α |
          | HOMO-LUMO GAP               1.612616528770 eV   |
           -------------------------------------------------

------------------------------------------------------------------------
 * finished run on 2024/04/06 at 11:17:02.964     
------------------------------------------------------------------------
 total:
 * wall-time:     0 d,  0 h,  0 min, 11.459 sec
 *  cpu-time:     0 d,  0 h,  0 min, 11.436 sec
 * ratio c/w:     0.998 speedup
 SCF:
 * wall-time:     0 d,  0 h,  0 min,  0.193 sec
 *  cpu-time:     0 d,  0 h,  0 min,  0.191 sec
 * ratio c/w:     0.993 speedup
 ANC optimizer:
 * wall-time:     0 d,  0 h,  0 min, 11.226 sec
 *  cpu-time:     0 d,  0 h,  0 min, 11.219 sec
 * ratio c/w:     0.999 speedup

