25
 energy: -43.835005878928 gnorm: 0.103433862643 xtb: 6.6.1 (8d0f1dd)
C            3.25879373598227        1.18190784021314        0.06634743650773
N            2.31499124419107        0.08416909996351        0.03431280487336
C            2.58860355979349       -1.23058908715164        0.03527188493512
N            1.42979111316627       -1.94327048802484        0.00832575805543
C            0.39146836328429       -1.06352641803914       -0.00154449717782
C            0.93340584985354        0.21054621151150        0.02940799343671
C            0.09850725769201        1.39727327403445        0.00011953493472
O            0.50390986810475        2.54852321324331        0.00461502971014
N           -1.25372461030206        1.05633800751091       -0.03101473441168
C           -2.21769144656232        2.15091567065308       -0.05430316897603
C           -1.82126133472641       -0.20133977660696       -0.04848256854303
O           -3.00804759266626       -0.37925640235775       -0.07391390813007
N           -0.93157958754189       -1.30393520201756       -0.03594875975512
C           -1.47688721324019       -2.64640774409557       -0.06051768794852
H            3.77477080656435        1.17641016423178        1.02863949493803
H            4.01555275050558        1.15924880058599       -0.71747611718184
H            2.68283406900329        2.10012105174870       -0.01617816357719
H            3.56843926760734       -1.66025758934312        0.05826116847327
H           -1.66483694897519        3.08720919039262       -0.03006700117205
H           -2.82161342903107        2.09199688591768       -0.95937700151806
H           -2.87703108031697        2.07994559979800        0.80851812766412
H           -1.18107235618195       -3.19760455064168        0.83269470429053
H           -1.15273917515377       -3.17783813600583       -0.95575975675815
H           -2.56251875686152       -2.55432589435805       -0.07700083107585
H            1.36868102990582       -2.94863844251181       -0.00616595907669
25
 energy: -43.838772982738 gnorm: 0.038781685983 xtb: 6.6.1 (8d0f1dd)
C            3.25319476560801        1.18798305771864        0.08050260980027
N            2.31987271886543        0.09859428277665        0.03219575454545
C            2.60452159696573       -1.24082192652013        0.03096907844855
N            1.42512609656169       -1.94246250458388        0.00602203062541
C            0.39933310572467       -1.05725018897580       -0.00340901651994
C            0.93313646093602        0.22156329305817        0.02077664450211
C            0.10643826605294        1.39024534531920       -0.00253786576220
O            0.50007737458219        2.55955490428413        0.00294847355537
N           -1.25993453624529        1.04765181386841       -0.03164695575976
C           -2.21761843686896        2.14480813805916       -0.05415686255061
C           -1.82286776312406       -0.20110258366766       -0.04874818493674
O           -3.01975065394797       -0.38349823876841       -0.07431251945233
N           -0.93476251587269       -1.30027553358792       -0.03545966233060
C           -1.47540398731378       -2.64118847655423       -0.05962373385829
H            3.78284614879277        1.18486033091214        1.03782212401244
H            3.99016573511587        1.13236573006206       -0.72352129638605
H            2.67845673555048        2.10764801325680       -0.01192152355221
H            3.57847538359163       -1.67409503736963        0.05704686578991
H           -1.65218947289709        3.07398946823324       -0.03026414303091
H           -2.82177415993010        2.09183082409774       -0.95981469474252
H           -2.87735440034866        2.07925349242565        0.81033491966245
H           -1.17630033410504       -3.19436904094590        0.83286730680604
H           -1.14783016352115       -3.17412785217415       -0.95456588105649
H           -2.56080972743759       -2.54794625149864       -0.07630378096377
H            1.35569714735940       -2.94559578077491       -0.00643590432853
25
 energy: -43.839415795755 gnorm: 0.016470986620 xtb: 6.6.1 (8d0f1dd)
C            3.25580603244420        1.18655131062626        0.07296778883410
N            2.31968450816474        0.10585661391491        0.01798470130657
C            2.60990540840032       -1.24556795666726        0.03040199597420
N            1.42217702358011       -1.94423944677611        0.01081768114702
C            0.40245564227245       -1.06056999731562        0.00008443383739
C            0.92916726769325        0.22361200799187        0.01894752197746
C            0.11570406419740        1.38158813914727        0.00433441628192
O            0.50292834899118        2.55839954103054        0.00845731124976
N           -1.26345248027358        1.04713169078267       -0.02776534027632
C           -2.21841334094536        2.14830300877573       -0.05410918683992
C           -1.81708502050037       -0.19798404102496       -0.04668644663028
O           -3.01773834992685       -0.38173295496813       -0.07520572588154
N           -0.93870160284210       -1.30245847154877       -0.03286852347525
C           -1.47964156549212       -2.64342092024581       -0.06074542477265
H            3.77515548050549        1.17706445499561        1.03369459914497
H            4.01267737373922        1.15212886400938       -0.71698588849665
H            2.68324655214400        2.10590626408754       -0.02017404537297
H            3.57980419402160       -1.67023347022772        0.06127252285595
H           -1.66630750270275        3.08644881306606       -0.02967498356438
H           -2.82189776510640        2.09235115964696       -0.95988481048264
H           -2.88144399395535        2.08097902714709        0.80781492982081
H           -1.18421469912675       -3.20208009333543        0.83065643930816
H           -1.15401902019916       -3.17969876389892       -0.95583087761738
H           -2.56501880431485       -2.55344211587635       -0.07866381112594
H            1.35996763332614       -2.94727738468611       -0.00007549468533
25
 energy: -43.839615688426 gnorm: 0.009811508444 xtb: 6.6.1 (8d0f1dd)
C            3.25238529370148        1.18257374980327        0.07800783836697
N            2.31461658816426        0.10420560505830        0.02787853142243
C            2.60426080140519       -1.24541134224383        0.03504383611695
N            1.41892728176627       -1.94336605741179        0.00801968502361
C            0.40027340378793       -1.06164869101322        0.00048826937842
C            0.92469273805675        0.22343206976604        0.02459212032197
C            0.11507763441693        1.38116041433566       -0.00159748463139
O            0.49715457115337        2.55736718063160        0.00000963362861
N           -1.26618736264128        1.04764051832159       -0.03313051434051
C           -2.21687057406306        2.14932923100403       -0.05512286668993
C           -1.81634912027087       -0.19757636260368       -0.04964587979133
O           -3.01566468266842       -0.38348843564794       -0.07519218455416
N           -0.93952340880944       -1.30175191197729       -0.03528586326233
C           -1.47558954753867       -2.64260326260631       -0.05915269765050
H            3.78237299051590        1.17724909315818        1.03308349281700
H            4.00035739599500        1.14797354336123       -0.72094690336896
H            2.68032549001175        2.10284702943550       -0.00883480845939
H            3.57453533321111       -1.66643160273855        0.05848475631961
H           -1.65527193039649        3.08158006333940       -0.03164500059799
H           -2.82314389541189        2.09495193667922       -0.95919519681268
H           -2.87454384864033        2.08221104621421        0.81086656755570
H           -1.17498496989627       -3.19458172611732        0.83462158547563
H           -1.14775887341368       -3.17755949092281       -0.95405626341638
H           -2.56090468935226       -2.55355383367724       -0.07504845262931
H            1.36255876501117       -2.94693348549753       -0.01347841770498
25
 energy: -43.839638042549 gnorm: 0.006247107839 xtb: 6.6.1 (8d0f1dd)
C            3.25354360068507        1.18239819797823        0.07576722975937
N            2.31674714335726        0.10207717909535        0.02824440949322
C            2.60434789400780       -1.24512594555004        0.03582012675227
N            1.42047678597902       -1.94201962108990        0.01146395737305
C            0.40129371061131       -1.06148655710473       -0.00077441015644
C            0.92686046286582        0.22358222134080        0.02422477928838
C            0.11655036064552        1.38369297230491        0.00097763263858
O            0.49657215840160        2.55838528574134        0.00687682683302
N           -1.26554955747278        1.04868255643240       -0.03035888786160
C           -2.21920078845391        2.14596913929074       -0.05367067395116
C           -1.81531112772852       -0.19728634101208       -0.04821469189411
O           -3.01371696572021       -0.38427955913663       -0.07342914065989
N           -0.93767337076612       -1.30048263440609       -0.03608504011689
C           -1.47713842595662       -2.63988117091283       -0.06203743060077
H            3.78027360602482        1.18565494692484        1.03339116740534
H            4.00120195821081        1.13740515090909       -0.72257051290124
H            2.68309137204446        2.10409516379065       -0.02048023091009
H            3.57627299809516       -1.66743928590496        0.05744048003734
H           -1.65751191160275        3.07737896652635       -0.02788706987429
H           -2.82128625222966        2.08989487543732       -0.96041778851675
H           -2.88057726219413        2.07672634533359        0.80937302573445
H           -1.18007661836852       -3.19546364811170        0.83033900691087
H           -1.15119523677677       -3.17289078184658       -0.95823008958741
H           -2.56224702460048       -2.54585678030541       -0.07883981322178
H            1.36499787503628       -2.94611539707394       -0.00215907945642
25
 energy: -43.839697074485 gnorm: 0.004142351589 xtb: 6.6.1 (8d0f1dd)
C            3.25335257201444        1.18404515696150        0.07813944592558
N            2.31843095522260        0.10160584125373        0.02324943858653
C            2.60523276302952       -1.24588285119743        0.03033973178172
N            1.42055616697363       -1.94199224077962        0.00668680227912
C            0.40111948369699       -1.06173409108939       -0.00375881862995
C            0.92788433271923        0.22335087654621        0.01959279558292
C            0.11800115944081        1.38395688552225       -0.00041032695231
O            0.49848537451545        2.55846771075308        0.00503316910343
N           -1.26547198891066        1.04909375327690       -0.03063724146616
C           -2.21839410980970        2.14774257574572       -0.05466907512788
C           -1.81645994093898       -0.19708851140562       -0.04757175853151
O           -3.01543477467472       -0.38324024612317       -0.07321220478477
N           -0.93846786819203       -1.30106374024644       -0.03542734907282
C           -1.47732389911151       -2.64208720045787       -0.05872875451476
H            3.77716130343139        1.17964035639883        1.03740306729415
H            4.00361213769863        1.14613979967061       -0.71772480180145
H            2.68159672645631        2.10590890857437       -0.01282409910791
H            3.57760361285958       -1.66957283251798        0.05559801711513
H           -1.65859901887017        3.08041238384194       -0.03118921316981
H           -2.82226046794164        2.09220226980769       -0.96019130520878
H           -2.87943805662327        2.08152916271908        0.80877275195682
H           -1.17996445502311       -3.19761121304569        0.83360026996591
H           -1.15137053140074       -3.17790306593888       -0.95322959373319
H           -2.56288843098839       -2.55209332968507       -0.07554261983091
H            1.36378233852081       -2.94621107993403       -0.00453454514203
25
 energy: -43.839693938607 gnorm: 0.003804370980 xtb: 6.6.1 (8d0f1dd)
C            3.25360253251390        1.18371968501784        0.07467253047581
N            2.31778537762146        0.10226188792638        0.02573298813850
C            2.60454746460963       -1.24606142605186        0.03628473273331
N            1.41941830019532       -1.94212521147298        0.00997294927679
C            0.40036050801272       -1.06191335392967        0.00078681379363
C            0.92664015692889        0.22362153426419        0.02391479638906
C            0.11803630525536        1.38294934499022        0.00106076482532
O            0.49769039416442        2.55825388321228        0.00359518437766
N           -1.26654989374734        1.04832465771944       -0.03078770535542
C           -2.21758742071004        2.14879286465963       -0.05395628987587
C           -1.81736968127734       -0.19739012833327       -0.04847347984501
O           -3.01668211816273       -0.38350020534974       -0.07706710146236
N           -0.93950292522342       -1.30144119205511       -0.03423675339011
C           -1.47644388556482       -2.64295677724881       -0.06095852484176
H            3.78225221945350        1.17886181533022        1.03097533602668
H            4.00175873970697        1.14730682437686       -0.72363987015163
H            2.68098064595061        2.10468462530146       -0.01442162282453
H            3.57652062935933       -1.66873830497110        0.06288038683153
H           -1.65852931754069        3.08229775347895       -0.02985739190931
H           -2.82304019516870        2.09507364364417       -0.95859349882612
H           -2.87705866413901        2.08196809736824        0.81057448227827
H           -1.17844445932678       -3.19832965947799        0.83137005680749
H           -1.14816483703994       -3.17714548368014       -0.95593403033203
H           -2.56207582751314       -2.55454304160273       -0.07883618641081
H            1.36260133573631       -2.94635655446579       -0.00629478421203
25
 energy: -43.839721899602 gnorm: 0.002059151453 xtb: 6.6.1 (8d0f1dd)
C            3.25377735172694        1.18318136516480        0.07682579703138
N            2.31761905883673        0.10230282524248        0.02627431648966
C            2.60449566290676       -1.24559655991984        0.03430920685237
N            1.42002999951713       -1.94200391810239        0.00860359574222
C            0.40085785177221       -1.06205438486524       -0.00025740550584
C            0.92654940424156        0.22373957459104        0.02358822321431
C            0.11829101828126        1.38298748490721        0.00044470360240
O            0.49700292283687        2.55833443358650        0.00367912663696
N           -1.26639516354978        1.04794969560145       -0.03112694094288
C           -2.21806564220047        2.14716471111375       -0.05474865874355
C           -1.81649334261578       -0.19756773269738       -0.04826638323948
O           -3.01550654661291       -0.38420046439236       -0.07433902821628
N           -0.93875457728644       -1.30114671943828       -0.03473849132692
C           -1.47716537445414       -2.64143611033065       -0.05998486172613
H            3.77979446460718        1.18049181278279        1.03453772825125
H            4.00377564996715        1.14457835021504       -0.71959397792767
H            2.68187301728171        2.10409204077490       -0.01535523112410
H            3.57659929715847       -1.66740594570757        0.05717987516924
H           -1.65863009837939        3.08039903252531       -0.03013938607917
H           -2.82216116009491        2.09202326775482       -0.96027722228052
H           -2.87829304731389        2.07924002570693        0.80921770337548
H           -1.17859616881839       -3.19574527279660        0.83278228658217
H           -1.15134006951356       -3.17594291964817       -0.95563420235064
H           -2.56250350108963       -2.54944073007387       -0.07596613347183
H            1.36398437688979       -2.94632858334396       -0.00825085749540
25
 energy: -43.839722331044 gnorm: 0.001742823729 xtb: 6.6.1 (8d0f1dd)
C            3.25294960893463        1.18353281651835        0.07675857544792
N            2.31770973212279        0.10162311518338        0.02470642264071
C            2.60424602707782       -1.24578700071783        0.03292982010766
N            1.42011979804676       -1.94204371113323        0.00922379291950
C            0.40072295743014       -1.06214891047768       -0.00226224673720
C            0.92674561744196        0.22353269407343        0.02132873528874
C            0.11862302314052        1.38361989067174       -0.00024866439760
O            0.49757058431599        2.55846957324616        0.00511225584265
N           -1.26616446565894        1.04859767194328       -0.03095076647144
C           -2.21789168030112        2.14780938816402       -0.05399509224013
C           -1.81642685444713       -0.19716222388148       -0.04854431447953
O           -3.01527360828524       -0.38350255355702       -0.07366913561167
N           -0.93866079320071       -1.30114213007364       -0.03583577841939
C           -1.47673021913675       -2.64208486880875       -0.06030267049630
H            3.77855204183076        1.18071588833253        1.03488057303033
H            4.00210714246906        1.14480095812686       -0.72024425931814
H            2.68108819571042        2.10480634364508       -0.01446802235282
H            3.57657230102768       -1.66828240497033        0.05702125039810
H           -1.65724415584370        3.08019570780454       -0.03003777109354
H           -2.82211139819272        2.09301232481972       -0.95944793903440
H           -2.87854512670039        2.08137007121600        0.80985541753288
H           -1.17925604008479       -3.19688610463607        0.83246667092246
H           -1.14958743472235       -3.17707268638688       -0.95499027640753
H           -2.56219761397291       -2.55191575796186       -0.07777573716535
H            1.36382774509270       -2.94644281248962       -0.00274705738886
25
 energy: -43.839723872295 gnorm: 0.001369859229 xtb: 6.6.1 (8d0f1dd)
C            3.25417000984749        1.18348393378527        0.07646107782324
N            2.31832203778093        0.10189995157168        0.02571168936071
C            2.60461612335271       -1.24578833479998        0.03431389243009
N            1.42024291404947       -1.94181099933265        0.00779895693920
C            0.40083202938589       -1.06190673973769       -0.00086023724522
C            0.92698542988424        0.22384909540652        0.02303538292291
C            0.11870681469186        1.38360416666252        0.00098134084024
O            0.49745272818632        2.55868778012042        0.00454588364133
N           -1.26644360008435        1.04847307482456       -0.03052650310653
C           -2.21855006309171        2.14750844922387       -0.05478412253899
C           -1.81671960529431       -0.19720523897697       -0.04765156440270
O           -3.01566671755012       -0.38369822515691       -0.07504821653624
N           -0.93875158414564       -1.30104294679804       -0.03446751469874
C           -1.47714598705006       -2.64190746202274       -0.05976068131790
H            3.78116743658400        1.17974747967573        1.03378454436287
H            4.00293620690376        1.14521438883309       -0.72104460465429
H            2.68252856025318        2.10491723859151       -0.01416678755464
H            3.57685049384667       -1.66855813156635        0.05958424532994
H           -1.65960976854243        3.08095205251446       -0.03065673994686
H           -2.82274944080749        2.09231195320030       -0.96024769068745
H           -2.87925829178305        2.08040097583603        0.80890410283525
H           -1.17908023859618       -3.19759234187584        0.83230180962752
H           -1.15099512174836       -3.17630447856368       -0.95519837117882
H           -2.56264266867624       -2.55150670287843       -0.07610948193042
H            1.36354768669788       -2.94611365988597       -0.00813662779744
25
 energy: -43.834940840761 gnorm: 0.078293798496 xtb: 6.6.1 (8d0f1dd)
C            3.27779979857934        1.19743821216799        0.04575421331643
N            2.33139508273783        0.08882313088618        0.02554405098120
C            2.59581083341726       -1.24684991708561        0.04130868699523
N            1.42141453981154       -1.95142403640981        0.01624860379959
C            0.39254556912270       -1.06769262561445        0.00511230974865
C            0.93593096924670        0.20242700167942        0.03386303279861
C            0.10256190772229        1.38941550661823        0.00401855623711
O            0.50445326677168        2.54754065289369        0.01453131579576
N           -1.25671773220052        1.04998804197078       -0.03123217975977
C           -2.21617511416343        2.14695251809993       -0.05874864263109
C           -1.82462043260144       -0.20259600415872       -0.05029908200142
O           -3.01571986985826       -0.38011283226660       -0.07807423410130
N           -0.93696978049088       -1.30569836970266       -0.03498789367879
C           -1.48395137317432       -2.64637189320186       -0.06067767480578
H            3.83529636949125        1.13554707233792        0.99213066755935
H            4.01741824274208        1.28398363659337       -0.76197011617239
H            2.66425273794786        2.10199870024295        0.05893517920978
H            3.56918926508569       -1.68220890974651        0.07559117653615
H           -1.65859523191761        3.08138605593497       -0.03477686939679
H           -2.81886052210141        2.08968214272458       -0.96552547791277
H           -2.87725865855499        2.08255497565572        0.80258819292782
H           -1.19151610170068       -3.19939919035881        0.83300596180780
H           -1.15987458760505       -3.18055212753961       -0.95460601508839
H           -2.56948893786111       -2.55200052811174       -0.07948818099536
H            1.35630042918565       -2.95391749166068        0.00194949755866
25
 energy: -43.837412810247 gnorm: 0.034334215380 xtb: 6.6.1 (8d0f1dd)
C            3.26023601092276        1.19760478535658        0.07317290620508
N            2.33056878575106        0.09957547730776        0.02401222001614
C            2.60901627874954       -1.24966976966472        0.03200568358139
N            1.42256882241009       -1.94589359017934        0.01183342346234
C            0.40164691152702       -1.05882672753658        0.00035729888523
C            0.93709314293960        0.21773467735342        0.01980985787878
C            0.11067668356439        1.38516781171329       -0.00009631884811
O            0.49956408827174        2.55584966365599        0.01273509279394
N           -1.25950717065977        1.04444072131497       -0.03233539337064
C           -2.21474215476082        2.14286427307352       -0.05847617609726
C           -1.82206735388535       -0.20207157212932       -0.05054552631041
O           -3.01961034383772       -0.38443199815523       -0.07851604618938
N           -0.93554524386630       -1.30060618167569       -0.03449475136784
C           -1.47916238966157       -2.64029783903245       -0.05915654196575
H            3.84080070383023        1.14610166145741        1.00208734894872
H            3.96306325483771        1.22161361098495       -0.76800729684767
H            2.66242194349570        2.10977922690882        0.06545187729391
H            3.57899101246110       -1.68819292132272        0.07181126444477
H           -1.64696165763209        3.07083135816158       -0.03526619113617
H           -2.81764482255693        2.08970735393014       -0.96523727768445
H           -2.87644911344747        2.08137168190072        0.80466746910737
H           -1.18454273772857       -3.19531133263432        0.83382256154743
H           -1.15286267283993       -3.17558190169464       -0.95331110078818
H           -2.56459087541658       -2.54426444203204       -0.07803422478694
H            1.35165956716432       -2.94858030511345        0.00190491995602
25
 energy: -43.838399925147 gnorm: 0.013745627445 xtb: 6.6.1 (8d0f1dd)
C            3.26545763154438        1.19817328683892        0.06493544954931
N            2.33387404913318        0.10341546961286        0.00385779678910
C            2.61295854308231       -1.25359692935455        0.02958913757515
N            1.42038171264524       -1.94673978524061        0.01735437355321
C            0.40367005177962       -1.06026609510234        0.00392377754335
C            0.93818088766862        0.22092688213181        0.01570645988117
C            0.11804126518059        1.37784120222928        0.00657629480322
O            0.50076570795749        2.55396716167836        0.01691370019379
N           -1.26181060871445        1.04235092350960       -0.02810834588000
C           -2.21560973993638        2.14324633929836       -0.05846393161903
C           -1.82009123426336       -0.20126036300398       -0.04781576357468
O           -3.02051995509995       -0.38363656363882       -0.07912329264400
N           -0.93910654814189       -1.30232503394590       -0.03069667002216
C           -1.48508458050766       -2.64194843242865       -0.06000088773330
H            3.83615278438211        1.14003637388584        0.99444391676203
H            3.98963540523059        1.25752261601657       -0.75629935887370
H            2.66783390938810        2.10703733393660        0.05897374243436
H            3.57879832109262       -1.69209234487346        0.07926104974755
H           -1.65503056218231        3.07573971818968       -0.03476432293892
H           -2.81771206107925        2.08838708394530       -0.96560382545069
H           -2.88068681205069        2.08171414559310        0.80260816807941
H           -1.19442316830330       -3.20200101067329        0.83175450651927
H           -1.16009026605169       -3.17950321141155       -0.95437334125422
H           -2.57073314766030       -2.54780783023623       -0.08082414585630
H            1.34976908453854       -2.95026721500826        0.01037059114437
25
 energy: -43.838501907498 gnorm: 0.008728724238 xtb: 6.6.1 (8d0f1dd)
C            3.26581102710826        1.19386915527060        0.06406683069658
N            2.32944818632729        0.10214357316941        0.01561561220222
C            2.60712730771089       -1.25378996957189        0.03945548521378
N            1.41663074308354       -1.94732458786581        0.01740133291700
C            0.40042955780116       -1.06288958975380        0.00839898578209
C            0.93309550412420        0.22003304481935        0.02802268822226
C            0.11781921681510        1.37682274866462        0.00428501384795
O            0.49703318648005        2.55323774586094        0.01221079180867
N           -1.26549606565399        1.04395029143644       -0.03297748429224
C           -2.21512231233733        2.14713438396626       -0.05977927992145
C           -1.82036263355612       -0.20007940075635       -0.05170845532489
O           -3.02007915852608       -0.38334669086907       -0.08127270125602
N           -0.94149474481842       -1.30273484743593       -0.03296442095674
C           -1.48065595443605       -2.64362548840953       -0.05946613903261
H            3.84063701644445        1.13859138793297        0.99218347102791
H            3.98921561764673        1.25799274792743       -0.76297743907100
H            2.66588797021599        2.10210492953431        0.06338147239796
H            3.57314414270874       -1.68784202721444        0.07710729015276
H           -1.65150570730436        3.07797224243217       -0.03626064860717
H           -2.82040066122557        2.09362113314951       -0.96493584848196
H           -2.87546504270686        2.08509228769907        0.80459216470919
H           -1.18350000974373       -3.19676257347354        0.83453595784475
H           -1.15260719861370       -3.18053101434085       -0.95315955455554
H           -2.56631699005435       -2.55354059804665       -0.07792782609423
H            1.35134767214234       -2.95118516217655       -0.00763222050095
25
 energy: -43.838594189014 gnorm: 0.005174501781 xtb: 6.6.1 (8d0f1dd)
C            3.26528153478250        1.19458314902248        0.06435947450665
N            2.33047424174910        0.10162574574163        0.01475875261842
C            2.60844851531359       -1.25292522573869        0.03790446220908
N            1.41930422885550       -1.94701536176202        0.01954089517748
C            0.40217183959186       -1.06447861807754        0.00517747107305
C            0.93387877268035        0.21929577591203        0.02535448289505
C            0.12025326985712        1.37749384756298        0.00280209370935
O            0.49787838611709        2.55357395679708        0.01359182309491
N           -1.26452870381447        1.04416093613736       -0.03176219550814
C           -2.21591136096270        2.14419828784828       -0.05861572216055
C           -1.81775586001801       -0.20006914444902       -0.05002366724646
O           -3.01695428458783       -0.38446394835996       -0.07654422792894
N           -0.93957948965361       -1.30275160173700       -0.03455901173151
C           -1.48369651519069       -2.64115807653930       -0.06122046262898
H            3.83640083614899        1.14248404591051        0.99611747558316
H            3.98989185359301        1.25126748674168       -0.76312846753954
H            2.66559934374269        2.10468292454688        0.05897818965557
H            3.57595004554114       -1.68503772609614        0.07319818430253
H           -1.65322365209545        3.07522887909313       -0.03397886414023
H           -2.81823356492996        2.08795811900325       -0.96550066970520