72
 energy: -103.204797657107 gnorm: 0.347775686423 xtb: 6.6.1 (8d0f1dd)
N           -1.63923602444579        2.88694542456418        2.31603117406664
C           -1.66503861335498        2.16067253838508        1.32302074043411
C           -2.77938209847521        2.05895279357126        0.33609977187693
C           -3.37342186658075        0.65406777655585        0.38523241679613
C           -4.28750164146794        0.23776217878150       -0.54390225076477
C           -4.81416436046964       -1.02852072226688       -0.53360576052203
O           -5.77388390163282       -1.54604007050111       -1.42496087297325
C           -6.09096543693170       -0.71226212986070       -2.31198475752925
C           -4.43420599613598       -1.90735331890179        0.44016777348249
O           -5.09670133304625       -3.15921369531893        0.37941343358029
C           -4.72927121365791       -4.03275598463772        1.34955657213375
C           -3.62662798274335       -1.46131471470560        1.37827578993498
C           -3.08041402312759       -0.19579499344717        1.35512976940396
C           -2.16865944419167        2.22105139952461       -0.99308105880469
C           -1.22784758221841        1.16448632532089       -1.63189277626948
C            0.02996407190464        1.09918922267012       -0.85227674023788
N            0.70388227512793       -0.07800008334383       -0.44426469522165
C            2.06085098113270       -0.06030888107424       -0.14054127717165
C            2.95117040568335       -0.55247097116381       -1.26991917047658
C            4.37363580440823       -0.43673260314787       -0.85504695991946
C            5.07790339634474        0.73093968654697       -1.07256897381252
C            6.39929064403645        0.84371759102460       -0.62867425090365
C            7.04557046689517       -0.20709060227449        0.02533986485442
O            8.34490909619564       -0.20896059226745        0.48642352991745
C            9.11373939109104        0.93409481069233        0.27024277067693
C            6.33744466771963       -1.39377435664947        0.25012625901912
O            7.04769554439624       -2.38190709060145        0.89164164276354
C            6.42341987492781       -3.61524085796206        1.11903347713164
C            5.01651794440391       -1.49796028286728       -0.22288713401189
C            0.03583224117058       -1.34969892105933       -0.49894759939983
C           -3.88904769489221        3.07606995784518        0.54470662923200
C           -4.62365480710150        2.84303210908371        1.86142518439186
C           -3.39317516351511        4.51532608703938        0.53780099006569
H           -4.48213917213669        0.91142721640747       -1.30934717037782
H           -6.51790653860141        0.24566861532156       -1.84745880310011
H           -7.08262225820815       -1.20138230116082       -2.94719450850851
H           -5.34795290286202       -0.28845309544859       -2.96053255465356
H           -4.96432679521889       -3.58102782975007        2.32253977509086
H           -5.35140159926784       -4.95256945494585        1.19660686693325
H           -3.68766999636170       -4.28286259395267        1.38378696532116
H           -3.15363374137992       -2.11696737794569        2.10787415859992
H           -2.21744081201732        0.12649311937436        2.02623168717157
H           -2.89853678553858        2.39411872418035       -1.64273834061712
H           -1.55601553490161        3.02788366720681       -0.82112542331273
H           -1.73247496636143        0.20931281184891       -1.55701559740656
H           -1.02051101940575        1.36197233952203       -2.67277508847614
H           -0.83260763501923        1.62873547901364        0.96539935954014
H            0.68140430438897        1.98274528221149       -0.93004138013614
H            2.23531666339913       -0.69080394607199        0.76891245175368
H            2.32174435345751        0.96035629800450        0.12148812422950
H            2.72770364960036        0.05814278948114       -2.10277916634000
H            2.69259083970354       -1.58881807159518       -1.49962614404722
H            4.61688466386129        1.56318935560058       -1.56340126828064
H            6.92248288608275        1.77601569026553       -0.81738444252245
H            8.66650517466324        1.81302709463536        0.66467670192216
H            9.16422188294417        1.18793824793466       -0.82420111463557
H           10.09792580481011        0.73981644212566        0.69741706365257
H            7.07807789778949       -4.23735683805555        1.60584790105357
H            5.47675591222041       -3.51025135983374        1.68221056329252
H            6.03538298859897       -4.08477894918769        0.17280984490474
H            4.47775703973626       -2.40301742921406       -0.05211526500523
H           -0.20691147846238       -1.67120539783852       -1.59662383093506
H           -0.86726559378486       -1.28560208111362        0.01693579134759
H            0.57788880709008       -2.09745605554426       -0.00068728357756
H           -4.62726000289743        2.94818155109747       -0.24330152446696
H           -3.81337320875741        2.93272591524489        2.56990606941288
H           -5.00326533064172        1.83326118811073        1.83096211958071
H           -5.42163322734601        3.52019129778528        2.04859045482994
H           -2.61957048379154        4.68411802516799        1.26057604020388
H           -3.01277557985461        4.75117790525646       -0.43890080589390
H           -4.21850074698569        5.18294879057191        0.77195272437100
H           -0.87511113439005        2.85787303762755        2.90155019510447
72
 energy: -103.274583038665 gnorm: 0.116693648859 xtb: 6.6.1 (8d0f1dd)
N           -1.66059065385775        2.88922311016980        2.33483144650984
C           -1.66714427530972        2.15615335567149        1.32335816929504
C           -2.78591359103423        2.04863334668397        0.33747341148196
C           -3.38186488524947        0.66048762770339        0.39243990734665
C           -4.29538444086750        0.23847479623291       -0.56232365672020
C           -4.82458485930518       -1.03108641625764       -0.54043348848622
O           -5.76322009506646       -1.55052561922130       -1.41635384441572
C           -6.14164909683533       -0.68064921459552       -2.33488537017366
C           -4.44619860954097       -1.92143389035605        0.45188258305011
O           -5.08215050812756       -3.15383577255003        0.37438961977200
C           -4.73572410949706       -4.03985813199375        1.36684020264483
C           -3.58223662486461       -1.48753163029946        1.40352579013951
C           -3.04242251338284       -0.21232535152605        1.37301193875573
C           -2.14958878365979        2.24278252376337       -1.01543467747547
C           -1.22904774988363        1.14531433682249       -1.60790065713296
C            0.04366968404191        1.09504244308331       -0.84901767026402
N            0.68927715818622       -0.07581161317190       -0.44752631297832
C            2.06168772010671       -0.06029322003780       -0.12624161538015
C            2.95588215669752       -0.55647949635005       -1.26778847676635
C            4.38656070799746       -0.44264353758957       -0.85946651520929
C            5.08918682214750        0.72998931957197       -1.06562863022936
C            6.40424127305309        0.84509036100938       -0.62800620826082
C            7.04336707846018       -0.20393336764755        0.02281519184820
O            8.33697671092364       -0.20377966102712        0.48030248920207
C            9.10664220719609        0.94126258397539        0.25587337876716
C            6.33287307185307       -1.39651051602172        0.24404666508518
O            7.03236939241097       -2.38394375280935        0.88462978075999
C            6.39553335691573       -3.61108414115552        1.10611973567554
C            5.02192387039219       -1.49942738992703       -0.21382766777103
C            0.02269341161523       -1.34468766015058       -0.51136199901328
C           -3.90108410339306        3.08369473815181        0.54218845676813
C           -4.61285181384719        2.83000304087185        1.86527380810951
C           -3.39502516513100        4.52065701702402        0.52729381432491
H           -4.50659227174258        0.92663747343974       -1.34014115036994
H           -6.55132495936796        0.25430222627971       -1.86161209468297
H           -7.02165310140694       -1.16945133727132       -2.93620064417209
H           -5.36624339823544       -0.30705264215419       -3.00610913840791
H           -4.97392296910437       -3.59904575309258        2.34375660802422
H           -5.34221021659381       -4.94512375893349        1.20304234978567
H           -3.67948306318013       -4.29680483409302        1.37733263938844
H           -3.15555176672473       -2.14205507881613        2.14163884318462
H           -2.23871865190402        0.10604092852520        2.05157463948699
H           -2.92780533616269        2.41902766103656       -1.70136456010539
H           -1.52687717966735        3.09030013202023       -0.85801915555968
H           -1.73909413189107        0.18894719582954       -1.55860800229895
H           -1.03430851597676        1.37237636430479       -2.66053780752547
H           -0.80815226728350        1.60376099950307        0.96588846835853
H            0.68649699496241        1.96933784359642       -0.92647859771639
H            2.23786249810442       -0.68784747116518        0.76938593583526
H            2.33397196065988        0.96412305769399        0.12713837980324
H            2.73439686442442        0.06306760070038       -2.12165660715472
H            2.69475235366958       -1.59078368709627       -1.50016182680872
H            4.62163535513152        1.56357389753754       -1.56281554985097
H            6.92395485577963        1.77391507873627       -0.81597791650460
H            8.66230746832084        1.82624769959851        0.69277045477235
H            9.18407032395294        1.17116483478833       -0.82700472409327
H           10.08797432751073        0.74190328420093        0.68574520507401
H            7.08910846277872       -4.24481564163016        1.61042761263173
H            5.47697518460215       -3.50021397307624        1.70288837207463
H            6.05521480150049       -4.08528367148387        0.16224578505847
H            4.47543043440735       -2.40971006712183       -0.05145534874258
H           -0.19418457649962       -1.66840982293078       -1.57181669014277
H           -0.90780334590575       -1.28235991788432        0.01735686220017
H            0.59851410933825       -2.10351276094441       -0.01219632103508
H           -4.63071337840417        2.95562688073164       -0.25938269379873
H           -3.82890858001821        2.92649643900955        2.60406434698239
H           -5.00967987116456        1.82265350365246        1.85066288713299
H           -5.41728161205705        3.52486588797503        2.04378386913057
H           -2.61894735912795        4.67676081804606        1.26398711361213
H           -3.00866993606573        4.76696296203027       -0.45145983014481
H           -4.21968710718130        5.18723817023673        0.76515409529571
H           -0.85069119701848        2.87184639206612        2.91819324978956
72
 energy: -103.281406185715 gnorm: 0.032893604493 xtb: 6.6.1 (8d0f1dd)
N           -1.67063641570389        2.89618288561620        2.33558685765247
C           -1.66953263864015        2.15708603654199        1.32352369246017
C           -2.79321391250829        2.03638579172083        0.34802046379689
C           -3.38955597253150        0.66276250184891        0.39128967544652
C           -4.29797228020745        0.23923174278055       -0.57046647945440
C           -4.83223800224373       -1.02987664332188       -0.54764175698254
O           -5.74314549267470       -1.56260175061021       -1.41566455905402
C           -6.17241719646644       -0.68029056156297       -2.35717728516058
C           -4.45810112959827       -1.92182575385527        0.45377446661618
O           -5.06979938765441       -3.14160232253273        0.36669839358291
C           -4.74231684393768       -4.04098513830838        1.37137381398092
C           -3.57135467457014       -1.48910085835863        1.40840437145554
C           -3.03443043530513       -0.21253896818047        1.37584219975725
C           -2.13800837943417        2.22727027024729       -1.01141960289126
C           -1.22173225340881        1.14229138680073       -1.60595350825839
C            0.05418412902533        1.09392816678107       -0.85419550016928
N            0.68187681341123       -0.07503626042168       -0.45361338502616
C            2.06145387287222       -0.06082709815287       -0.11770255100673
C            2.95597295492446       -0.55913268425896       -1.26484889248673
C            4.38952555686673       -0.44338644228453       -0.85994004781342
C            5.09179755018203        0.72979491923385       -1.06271471320723
C            6.40597134503269        0.84563110778480       -0.62885134119634
C            7.04375557407769       -0.20144966908279        0.02242202058204
O            8.33364739765650       -0.20264984729298        0.47994729003882
C            9.10869073383971        0.94057809398380        0.24768133078111
C            6.33171152349664       -1.39783021705227        0.24275354367811
O            7.02936041636495       -2.38266421263000        0.88400561691604
C            6.38593763379376       -3.60911175209137        1.09944625831414
C            5.02580681157093       -1.49892143961409       -0.20979852561765
C            0.02181410295529       -1.34565989580522       -0.52368377262752
C           -3.90662915301154        3.08723863896912        0.54709505279309
C           -4.61339524150691        2.83172620374333        1.86310745247477
C           -3.39830338830407        4.52159329118143        0.52984234457154
H           -4.50833134287193        0.93216351958866       -1.35051752532307
H           -6.53704703152962        0.23303500295836       -1.85624337020596
H           -7.01429485528208       -1.15201533572148       -2.89964715213803
H           -5.35475588835499       -0.31079350962448       -2.99162427508743
H           -4.97490245852782       -3.59204684377250        2.34119887321336
H           -5.34344969610331       -4.93770551319010        1.20169172677788
H           -3.67809743448882       -4.29248531363950        1.37312513239531
H           -3.15938858884927       -2.14631443484962        2.13656712375881
H           -2.24236989313042        0.09735510342357        2.03488769297919
H           -2.93405779768397        2.41519414978974       -1.70111095207619
H           -1.52217030084235        3.09030283489676       -0.85370076335249
H           -1.73772401774216        0.19181079667638       -1.56544683268554
H           -1.02940073246380        1.37590747658430       -2.66791527767553
H           -0.79857032771112        1.60392177389951        0.96185932255618
H            0.68460196825042        1.96889194335979       -0.92673074378159
H            2.23381853049194       -0.68774077737266        0.76768045386111
H            2.33386934175788        0.96602966238015        0.12755501766797
H            2.73277053267921        0.06517884988382       -2.12517617160154
H            2.69393787069608       -1.59098606724012       -1.50084768151978
H            4.61835560019335        1.56239131569549       -1.56335657344192
H            6.92355158151779        1.77350735464340       -0.81539434108483
H            8.66443295124017        1.82692799048065        0.69802643373240
H            9.18147339991800        1.17035796343790       -0.82328720247707
H           10.08899086744911        0.74385127573389        0.68672243295479
H            7.09490407237608       -4.24679314920176        1.61304837382966
H            5.48007711402671       -3.50353014590804        1.70301686835906
H            6.05533631817907       -4.08512014726087        0.16839676036847
H            4.47318859438397       -2.40985667449501       -0.05251645779428
H           -0.19592350048934       -1.66531692900542       -1.56054960124939
H           -0.91158172417990       -1.28369516904866        0.02140981046801
H            0.60737439814085       -2.10418292974570       -0.01242875811681
H           -4.63289786002864        2.95288787019060       -0.25714726421809
H           -3.83327750810387        2.93249048288775        2.60369791449327
H           -5.01394380836911        1.82553152565123        1.84836892864494
H           -5.42222192098978        3.53221289186837        2.04704514257628
H           -2.61863999336026        4.67631280763147        1.26797903725541
H           -3.01040088197255        4.76517450697892       -0.45028812258457
H           -4.22117102511681        5.18990592284575        0.76723711863623
H           -0.84042422586839        2.86670552866535        2.91141063570577
72
 energy: -103.281517689841 gnorm: 0.023587719073 xtb: 6.6.1 (8d0f1dd)
N           -1.67428151878153        2.89772484376845        2.33763777022390
C           -1.66837086273446        2.15852749016154        1.32613165589766
C           -2.78814646642677        2.03856203893509        0.34590974820022
C           -3.38286381784668        0.66312124267514        0.39203704735003
C           -4.29368763026903        0.24025134470437       -0.56344452673508
C           -4.83517201950342       -1.02583675307550       -0.54254718365763
O           -5.74709730629932       -1.54826065113976       -1.40903171000080
C           -6.18778934801517       -0.66385458080672       -2.36174918103775
C           -4.45818380067790       -1.92237799491841        0.45658491948629
O           -5.06732041345354       -3.14050445686206        0.37392761481125
C           -4.74063680836660       -4.04897072659606        1.37651758834696
C           -3.57036672390553       -1.48678831230805        1.40976572552599
C           -3.03261486069021       -0.21066057435193        1.37893726428574
C           -2.13730419819132        2.23574078330297       -1.01710252210363
C           -1.22755045317924        1.14380922202557       -1.59882528791027
C            0.05185315001161        1.09375780252281       -0.85037470513457
N            0.68022802333016       -0.07511726224732       -0.44963596526235
C            2.06285164984514       -0.06144430585012       -0.11708985140589
C            2.95608255994876       -0.55898864916420       -1.26592800008716
C            4.38897212808681       -0.44270375785992       -0.86174055645578
C            5.09236078103804        0.72933275430749       -1.06470378669191
C            6.40670159694243        0.84503338414763       -0.62949769180454
C            7.04485531042793       -0.20205619637854        0.02128955641247
O            8.33318502112482       -0.20290614728554        0.48093569324181
C            9.10865779488677        0.94070033950780        0.24662509783083
C            6.33225595222886       -1.39916607747610        0.24172655725317
O            7.03084767116365       -2.38277135240890        0.88455151385827
C            6.38479506517456       -3.60905522790853        1.09795977824737
C            5.02653021309424       -1.49938106369703       -0.21166284529488
C            0.02038679974350       -1.34626370987355       -0.52476258699160
C           -3.90304699462327        3.08799571457943        0.54543879212168
C           -4.60647275982075        2.82526775908342        1.86178375112357
C           -3.39579577140614        4.52173735323862        0.52487252837902
H           -4.50687116419455        0.93370091556725       -1.33981433772362
H           -6.56046409566971        0.24734363426306       -1.86636555905660
H           -6.98976893715933       -1.18268033221888       -2.95168582923223
H           -5.36032006195686       -0.30948078335295       -2.99251464339368
H           -4.97268367738875       -3.60470382393030        2.34682009168143
H           -5.34057840500665       -4.94520354251903        1.20186714950122
H           -3.67630320039613       -4.29869163164435        1.37552527456215
H           -3.16547383763470       -2.14493231708903        2.14358893161391
H           -2.25394922913559        0.10716143194993        2.05924450653132
H           -2.93342144583966        2.42735308635664       -1.70356183855345
H           -1.52704526213644        3.10200326984077       -0.86553777564835
H           -1.74407814343895        0.19392702365536       -1.55167184051081
H           -1.03670001668241        1.36765411140285       -2.66296995419878
H           -0.79893334642786        1.60147431090960        0.97034198478094
H            0.68243641685724        1.96814929266685       -0.92664151167643
H            2.23749649263023       -0.68767033279994        0.76684883798521
H            2.33508344383052        0.96482269577812        0.12657312477333
H            2.73330023077937        0.06497031856499       -2.12560246140747
H            2.69478620893680       -1.59056641722435       -1.50167800504973
H            4.61969685278964        1.56261482367024       -1.56439683120537
H            6.92469237531761        1.77313972357037       -0.81557938935339
H            8.66268409341959        1.82749493174393        0.69335121677356
H            9.18557359016753        1.16655823688827       -0.82416571983870
H           10.08756780563361        0.74431969696355        0.68896406239850
H            7.09162666327844       -4.24685346321061        1.61342054215124
H            5.47976039092402       -3.50096842128131        1.70116951026550
H            6.05945304070026       -4.08340693547616        0.16470870943026
H            4.47232397495689       -2.40912957058648       -0.05378527599057
H           -0.18972972059443       -1.66470304745522       -1.56423199117991
H           -0.91381884613261       -1.28432567979021        0.01875156435750
H            0.59958969804153       -2.10430794126563       -0.00768698076656
H           -4.62767639095992        2.95418651417171       -0.26061120527916
H           -3.82922213074103        2.92490364654022        2.60572296565593
H           -5.00588967147205        1.81885914636932        1.84999744456729
H           -5.41725608146804        3.52235059918600        2.04782571740949
H           -2.61655882096216        4.67787147830452        1.26201457069985
H           -3.00780802725377        4.76788139734848       -0.45454855172549
H           -4.21916769809191        5.18886633350887        0.76222043383862
H           -0.84585108477260        2.86123847976385        2.91369551855669
72
 energy: -103.282282102805 gnorm: 0.011935536801 xtb: 6.6.1 (8d0f1dd)
N           -1.67148375445919        2.89690152640119        2.33551741298482
C           -1.66807367825559        2.15663107658758        1.32492432831655
C           -2.78800561841653        2.03931863874516        0.34287159148035
C           -3.38141656221170        0.66043983714775        0.38946989070849
C           -4.29137649288477        0.23580847808171       -0.56478317189180
C           -4.82903501152076       -1.03163560116008       -0.54502133951983
O           -5.74408536327209       -1.55127741764344       -1.40966879860763
C           -6.17912735143384       -0.66362265567868       -2.36081166353375
C           -4.45215304476169       -1.92758482547986        0.45309824346593
O           -5.06775521901872       -3.14440938211632        0.37260054273722
C           -4.74050037346895       -4.04885989096090        1.37727587758807
C           -3.56804372507095       -1.49002245452084        1.40544260663173
C           -3.03121405384503       -0.21389112216227        1.37470414987584
C           -2.13866309116570        2.23662291353873       -1.02009462709784
C           -1.22778641884426        1.14494472418150       -1.60157283573357
C            0.05073188653052        1.09413082768873       -0.85036372798225
N            0.68150666426037       -0.07482822159406       -0.44857890742407
C            2.06374676763240       -0.06089314106619       -0.11850551793412
C            2.95649890522497       -0.55877771503482       -1.26643705382870
C            4.38807479014277       -0.44243082268839       -0.86068737259820
C            5.09142829562717        0.72943057683289       -1.06365370226140
C            6.40583879053147        0.84536156777285       -0.62753966002643
C            7.04455648811670       -0.20215712039685        0.02221414731245
O            8.33353335864569       -0.20302291147730        0.48052412138088
C            9.10746870778362        0.94216172780652        0.24870380508181
C            6.33194473006087       -1.39914668108070        0.24307436586859
O            7.03155345929487       -2.38334884589215        0.88489145352484
C            6.38615004947391       -3.60993337610244        1.10035247254852
C            5.02559696670046       -1.49957815446966       -0.21067605663574
C            0.02085984006576       -1.34599782880849       -0.52290189503120
C           -3.90447536909587        3.08650198251562        0.54501462649644
C           -4.61107788538110        2.82899503585766        1.86231798817848
C           -3.39704077164193        4.52029858793369        0.52695659606902
H           -4.50802729500140        0.92754128969928       -1.34133264970136
H           -6.54828521235227        0.24958410693153       -1.86385129427170
H           -7.02760374789275       -1.15108034455641       -2.91845523720259
H           -5.35838613156224       -0.32141289003089       -3.00482986613661
H           -4.97506895099140       -3.60056269421762        2.34536719150567
H           -5.34269419697010       -4.94481313848496        1.20436347536969
H           -3.67757871968420       -4.29871552713456        1.37734238218724
H           -3.16021532524318       -2.14849871652431        2.14110320602613
H           -2.24297297261592        0.10092833034646        2.05199978192392
H           -2.93142192448583        2.42870267923817       -1.70622345339642
H           -1.52852936474770        3.10092733300971       -0.86745814762785
H           -1.73951644912593        0.19088930468387       -1.56004133024732
H           -1.03363847370662        1.37278523231119       -2.66299459275576
H           -0.80130660896628        1.60097096666986        0.96728929730052
H            0.68399932804472        1.96828580283985       -0.92590991607119
H            2.23749057116336       -0.68684356120413        0.76733379026123
H            2.33547384026079        0.96484314570203        0.12639922965150
H            2.73490404176596        0.06411687916335       -2.12530036418093
H            2.69523901131237       -1.59080755011293       -1.50077118331957
H            4.62019679699870        1.56303609644422       -1.56271976846605
H            6.92425967409224        1.77352552263013       -0.81481508618871
H            8.66262911678043        1.82744738321856        0.69800779841283
H            9.18416653092796        1.16953847511392       -0.82367122813736
H           10.08754828337452        0.74301226821906        0.68558282515791
H            7.09198471872284       -4.24693270963836        1.61279361258001
H            5.48092655788136       -3.50017036377005        1.70572756675553
H            6.05887738993845       -4.08381046872725        0.16500806948710
H            4.47247593100579       -2.40937421650714       -0.05236227874814
H           -0.19172704576351       -1.66568280338424       -1.56554387337619
H           -0.91185452580274       -1.28462698201956        0.02057580229743
H            0.60037212857366       -2.10400393290278       -0.00982853428879
H           -4.62981430173615        2.95544910210177       -0.26111586361560
H           -3.83562381135531        2.92739862930122        2.60890122568351
H           -5.01375498451130        1.82375083588863        1.85359651790488
H           -5.41949243500651        3.52831817866938        2.04410294313031
H           -2.61930712978924        4.67503542625727        1.26515943145660
H           -3.00842334126622        4.76886714899444       -0.45145274770442
H           -4.22036388184315        5.18751017139581        0.76497791579873
H           -0.84274906016294        2.86441738951989        2.90852612016857
72
 energy: -103.282299591454 gnorm: 0.010800091668 xtb: 6.6.1 (8d0f1dd)
N           -1.67053701701594        2.89689494805940        2.33814477474262
C           -1.66852391722417        2.15634925758281        1.32692818917819
C           -2.79063287985623        2.03946764505152        0.34653894958736
C           -3.39038615778164        0.66395919844032        0.39221441759344
C           -4.29875370951054        0.23931335934962       -0.56490693841586
C           -4.83218820875524       -1.03044668699755       -0.54427599245743
O           -5.73605981016247       -1.56142469957583       -1.41347481979256
C           -6.16935117095185       -0.67093705832362       -2.36063010881550
C           -4.45748373693625       -1.92387777008242        0.45529796922833
O           -5.07204124615221       -3.14119797095730        0.36867869117599
C           -4.74088587911026       -4.04272403339662        1.37299652590969
C           -3.57548226795523       -1.48624346444441        1.40878172231600
C           -3.03936203067712       -0.21058800472474        1.37692949455008
C           -2.13810180335621        2.22927301869310       -1.01491804407590
C           -1.22591434806292        1.14259070926115       -1.60421195140354
C            0.05206550459021        1.09365544974605       -0.85271747062326
N            0.68222074847167       -0.07495767195463       -0.44994055962788
C            2.06343213765369       -0.06073934575154       -0.11868658980262
C            2.95605982623996       -0.55862707693753       -1.26626464707028