72
 energy: 0.000000000000 xtb: 6.6.1 (8d0f1dd)
N           -1.47310921155849        2.74401293103706        2.22063921685122
C           -1.55658879776851        2.16490285539332        1.13274273951491
C           -2.74549199786261        2.05621232186130        0.23826248438941
C           -3.31377553111525        0.64333411542669        0.32332512650568
C           -4.30230156009016        0.24487110156316       -0.58026161703006
C           -4.85238763031941       -1.02286490450319       -0.53363588718165
O           -5.81419972815119       -1.48606034185536       -1.36157882725342
C           -6.39655633239252       -0.60827000183299       -2.29568474302620
C           -4.39972501531283       -1.94646102182611        0.44396929121966
O           -4.98748311285188       -3.16145997157803        0.41085992006324
C           -4.66362127904578       -4.10093827755394        1.40909127743729
C           -3.42072513477031       -1.54561384810496        1.33436546260297
C           -2.88302799614223       -0.26315800396994        1.27400150770375
C           -2.19303798107274        2.30467000305896       -1.18742977106749
C           -1.26651538239283        1.17243369445008       -1.65249429687285
C            0.01082524939134        1.09745454476277       -0.89354803499847
N            0.61779393476578       -0.02034948052406       -0.57705522512502
C            2.00145210352228       -0.02376006389122       -0.15611399603240
C            2.92554934655222       -0.53865282675074       -1.27700088804721
C            4.35756843073516       -0.43050757231754       -0.83075544324989
C            5.07346135469827        0.73206409086248       -1.03980965825901
C            6.38627986649936        0.84224441421807       -0.60344822702769
C            7.00047264773336       -0.20824756335880        0.05722314418200
O            8.26703657141718       -0.21011313101264        0.52410943644933
C            9.06912227848686        0.92943601033931        0.31863058007678
C            6.27039964270142       -1.40439753960823        0.28033466008274
O            6.94829939911432       -2.38012925705718        0.92751999079483
C            6.31537317745639       -3.61583200086742        1.15217711710877
C            4.96302794628964       -1.49347471867959       -0.16064430359178
C           -0.05511211367372       -1.29906247805359       -0.62085686319744
C           -3.86758037025447        3.07992600430699        0.58498060215443
C           -4.49286159663096        2.77383493050346        1.94313289484366
C           -3.39165179876499        4.52917666589254        0.54797523472093
H           -4.66030026466202        0.94509067363451       -1.31640568823548
H           -6.85037928558380        0.25803162192116       -1.80468845313260
H           -7.17287442604349       -1.18600110843259       -2.79318157561361
H           -5.66836817451085       -0.26952966318766       -3.04040255244073
H           -4.88416720672258       -3.71589460520039        2.40913542187496
H           -5.29223570620378       -4.96637458756866        1.20969236903657
H           -3.61139813139015       -4.39919835331056        1.35529357841967
H           -3.07077796610445       -2.21868765711333        2.10002662693138
H           -2.14562754426994        0.02067850696302        2.01001344383370
H           -3.02188875377605        2.38238012313952       -1.88813545054866
H           -1.65198530896729        3.25146700677685       -1.20556284570283
H           -1.81103374245520        0.23006524641044       -1.62116301628650
H           -0.99335688527853        1.37490212198123       -2.69443256973690
H           -0.67628064361333        1.65183887049447        0.61785727145403
H            0.63525841192517        1.98466369793744       -0.92314021190751
H            2.11132552493482       -0.65949692842762        0.72532613231274
H            2.30680473056284        0.98978251704176        0.11078972794250
H            2.76694198818247        0.06750735147374       -2.17075252200790
H            2.67954581369920       -1.57455627803457       -1.51167743520200
H            4.62169998552446        1.56295612048703       -1.56123579000624
H            6.92357674630170        1.75715815945204       -0.79119596719031
H            8.65159112996149        1.81001823324363        0.81701555159939
H            9.20136171144928        1.14042857828877       -0.74698991949293
H           10.03428838009630        0.69003240176163        0.76064937965836
H            7.05567174969094       -4.23621171795340        1.65347565939075
H            5.43848001056755       -3.50813558175093        1.79970565785717
H            6.02060041905269       -4.09420497120334        0.21253282636366
H            4.40102758497114       -2.40127266373392       -0.00490198249042
H           -0.22071299714579       -1.61775583601871       -1.65116008982042
H           -1.01972258008625       -1.24102717432227       -0.10935206830928
H            0.55899954147532       -2.04486085926761       -0.12333730421426
H           -4.63991875734388        2.95501092798550       -0.18098088071825
H           -3.76095216473977        2.90314704960906        2.73380821053058
H           -4.87457614030224        1.75695641518947        1.97884603101694
H           -5.31925552549014        3.45579210326349        2.12325564252114
H           -2.60025590131176        4.69225046143352        1.27368918226171
H           -3.03987406413880        4.81897652321898       -0.43870975059559
H           -4.22191740670577        5.18069648090034        0.80616693961239
H           -0.59832433787845        2.77744694953323        2.72958984441332
72
 energy: -5.465734882890 xtb: 6.6.1 (8d0f1dd)
N           -1.48997749131662        2.77961070488039        2.23875642837145
C           -1.56315688503511        2.15408142031596        1.15724268911310
C           -2.74715831359333        2.06024480919558        0.24622780997520
C           -3.31872686642320        0.64990674776380        0.32832873538935
C           -4.30475256661491        0.24706994297141       -0.57533744886246
C           -4.85115901943576       -1.02188827080852       -0.53164893074517
O           -5.81766217323729       -1.48872085129723       -1.36320441684552
C           -6.39583275011963       -0.60872974050966       -2.29567714496117
C           -4.39982230773794       -1.94381065721968        0.44359590588839
O           -4.99083364476785       -3.16530886473641        0.40982607380745
C           -4.66339447508757       -4.10074231930794        1.40826213836319
C           -3.42436045369131       -1.54154152338955        1.33578614078448
C           -2.88996535986520       -0.25777846792230        1.27800144449783
C           -2.19504906221595        2.29949425048696       -1.18393086987442
C           -1.26125774733883        1.18345347675549       -1.67724107393249
C            0.01034817467979        1.12107893579912       -0.89952090085679
N            0.63175021560032       -0.04080342213634       -0.56531268429617
C            2.00739710436722       -0.03809171108709       -0.15784150456693
C            2.93567534236546       -0.54290769102741       -1.28031099870279
C            4.36385784108050       -0.43533094069420       -0.84258306704130
C            5.07804267038980        0.73037119181196       -1.04422610335374
C            6.38787448095387        0.84212770884016       -0.60197670399554
C            7.00114417015327       -0.20877377519247        0.05871320176096
O            8.27556472435699       -0.21175312796813        0.52773866227330
C            9.07080684744605        0.92929867193714        0.31937635100367
C            6.27238318538144       -1.40282602621966        0.28088995562127
O            6.95317580360340       -2.38257271709260        0.93128006468208
C            6.31597577393770       -3.61539625126976        1.15280265569844
C            4.96845566240552       -1.49496125298568       -0.16525594172566
C           -0.04983701254861       -1.30775458503615       -0.61802869017929
C           -3.87413826056367        3.07860015745429        0.58185958576781
C           -4.49719735661378        2.77620383628998        1.94242083138190
C           -3.39581123643018        4.52793903707991        0.54855749371359
H           -4.65773675109785        0.94495919474791       -1.31639663468585
H           -6.84808199192534        0.25880058469100       -1.80432041213011
H           -7.17297808005756       -1.18480889985069       -2.79504613952709
H           -5.66630007618509       -0.26861100002116       -3.03856956563092
H           -4.88256395937753       -3.71455757395628        2.40881968475689
H           -5.29094796127588       -4.96804318625398        1.21087494304334
H           -3.61030676437336       -4.39685924016145        1.35507744173108
H           -3.06968067645199       -2.21776991060241        2.09762761048840
H           -2.14531930947047        0.02438831079590        2.00618578357094
H           -3.02656863304110        2.38554122906378       -1.88399957182940
H           -1.65057599515489        3.24467722567771       -1.20031620028332
H           -1.79900506020812        0.23736647712971       -1.62927274593617
H           -1.02123568831676        1.38344874014983       -2.73113671765037
H           -0.68655644138125        1.64803401908515        0.65397979423270
H            0.64876897262069        1.99286113520225       -0.96207444942695
H            2.12374671292653       -0.66867871386275        0.72801429577529
H            2.30073689468658        0.98028388058783        0.10720981316071
H            2.76552766914772        0.06681440313306       -2.16923555375262
H            2.68297318612337       -1.57733371854463       -1.51407601599179
H            4.62304309484667        1.56214265813241       -1.56128505273074
H            6.92531747061468        1.75804212733385       -0.78803520396773
H            8.65066418399727        1.80999692685737        0.81641281013785
H            9.20043922097217        1.14081718448460       -0.74708839392762
H           10.03744229847834        0.69314986673917        0.76059678388870
H            7.05441429903868       -4.23845055277569        1.65452730454521
H            5.43745824537350       -3.50677049871337        1.79815834597165
H            6.01969724537710       -4.09229086451481        0.21242897641059
H            4.40343693559131       -2.40054783741614       -0.00598841476800
H           -0.22061308525153       -1.62529521509023       -1.65139452980032
H           -1.01560240989492       -1.24221632761969       -0.10866260939076
H            0.55858389760991       -2.05725682366224       -0.11913870270554
H           -4.64918828034135        2.95895189353197       -0.18390952556756
H           -3.75659850558154        2.90245182592439        2.72596403854830
H           -4.87531671683477        1.75748468434964        1.97801112806058
H           -5.32429960837999        3.45818078645733        2.12723453160600
H           -2.60087054701747        4.68241779915115        1.27239026805390
H           -3.03991648402128        4.81428477195424       -0.43795698916221
H           -4.22415024575655        5.18415363861208        0.80708364098055
H           -0.60829687722889        2.77974314051776        2.74222287386793
72
 energy: 21.664797928598 xtb: 6.6.1 (8d0f1dd)
N           -3.23667587191278        3.49994227746886        2.87967591251523
C           -3.01893972614266        2.35434905573372        2.42468739591353
C           -3.15849118043302        2.00102606723383        0.94344332878193
C           -3.89738361621444        0.67269624966402        0.83563983275834
C           -3.83494235015552       -0.00641690898341       -0.38497832132554
C           -4.50173978846910       -1.18780250089134       -0.60793192211653
O           -4.48605632028043       -1.87171115466292       -1.80009119074088
C           -3.73594142777498       -1.32546459229300       -2.85148258327018
C           -5.28490770915886       -1.74445949626313        0.42566606892392
O           -5.88176865224577       -2.94752904582856        0.13368940167034
C           -6.72193474528838       -3.51462569014574        1.09864168989117
C           -5.40330857389090       -1.05491436507310        1.61321163276116
C           -4.73009097009556        0.15293875749142        1.80889823447721
C           -1.65320381243741        1.91591004775334        0.37741068456229
C           -1.00766125970008        0.59305661544865       -0.07088855970043
C            0.42308294015318        0.74432605565755        0.29974931458103
N            1.19914939301827       -0.26614564145971        0.81139149630298
C            2.61046758833350       -0.16593176859668        0.58891132904449
C            3.03340271885911       -0.60159764050123       -0.83915388104918
C            4.52091899492406       -0.44601966242218       -0.98081364615931
C            5.06660757208650        0.77254363417045       -1.34174154924584
C            6.44393453508293        0.93944090911220       -1.40078405616390
C            7.29540180975608       -0.10604346040355       -1.08029631413310
O            8.65926303385440       -0.05229328727181       -1.08932689038949
C            9.27890096650064        1.14829983530034       -1.44442502983833
C            6.73909453436355       -1.35318848000340       -0.72357307335631
O            7.66470541403617       -2.33657255481247       -0.45262645053307
C            7.19703226083308       -3.61461238409029       -0.09632138171858
C            5.36557527589334       -1.51055554332837       -0.67420833977558
C            0.60565916843475       -1.53953595984105        0.99813506798258
C           -3.96769267596527        3.06490358130469        0.16002431415319
C           -5.36036188160111        3.27518458554808        0.73500962356637
C           -3.26063081811697        4.42182458096844        0.09922119216874
H           -3.23779541726040        0.42730800510837       -1.16566921122494
H           -4.11300136586776       -0.34978691338375       -3.15365691216992
H           -3.84619421946155       -2.02870221879671       -3.67306136694464
H           -2.67862170750760       -1.24133744358003       -2.58887207573708
H           -7.56734960755801       -2.86488411532073        1.34508781679434
H           -7.09916333617758       -4.43680481507658        0.65247530396463
H           -6.18172142696714       -3.76761868023759        2.02171890538208
H           -6.03459458740165       -1.43541898981855        2.39967959616857
H           -4.89331687578307        0.66895599580237        2.74027949203061
H           -1.27642644816102        2.41441109036010       -0.60402506375977
H           -1.06484183402969        2.24785151622487        1.24078686783963
H           -1.47422185290203       -0.28947733574079        0.36379426189594
H           -0.98453202569313        0.64535116143569       -1.24273524371442
H           -2.64511930336307        1.50460117475642        3.04428267252814
H            0.87932668534709        1.71035980439899        0.20751376725259
H            3.12493715578645       -0.78534989816352        1.31927225454143
H            2.91920520652393        0.87310786601923        0.72848105490469
H            2.51091163052462        0.02315272781097       -1.56444445038501
H            2.73505464505670       -1.63572136261179       -0.99845216241502
H            4.42582711387198        1.60395411680650       -1.58658525846509
H            6.84392290817672        1.89743142149525       -1.69364236336292
H            9.03231902594998        1.95912426432197       -0.75378562672901
H            9.01308433574096        1.44969188100290       -2.46393176342028
H           10.34902595963539        0.95115597734933       -1.39823927311674
H            8.10174854708110       -4.20943868428112        0.02142654162591
H            6.64809483023349       -3.59614785435052        0.84874300296161
H            6.57421029313863       -4.05325026017954       -0.87831625655069
H            4.93504625762156       -2.46035323139937       -0.40101835317389
H            0.05870432391345       -1.87194771466677        0.09428998047970
H           -0.11729029276409       -1.51456244967722        1.82381380690704
H            1.37103772546725       -2.27877360207277        1.22669349385146
H           -4.06768430074485        2.67333908134011       -0.85370926480052
H           -5.29684689652716        3.78082972543408        1.69519156531505
H           -5.90130521763849        2.34388144218745        0.86192454493053
H           -5.94188163166506        3.91085589204457        0.05840411699915
H           -3.01101111846907        4.75533637106359        1.10041926907948
H           -2.34928107714883        4.37622187368608       -0.49344874858314
H           -3.92672959733770        5.14927904784947       -0.35335134722645
H           -3.04309213713233        3.62164385383569        3.88038942393109
72
 energy: 26.112056556888 xtb: 6.6.1 (8d0f1dd)
N           -3.19436416172865        3.50259168850708        2.89080908988376
C           -3.02294067946800        2.33548758220322        2.42578466397999
C           -3.16083571708518        1.99956836595716        0.93301303613144
C           -3.90614012198592        0.67740591297406        0.83179032504586
C           -3.83549290579471       -0.00098258766006       -0.39589879680343
C           -4.50663523851569       -1.18026646740026       -0.61023459387950
O           -4.47586215548589       -1.89147964657414       -1.78684915239037
C           -3.71877629899355       -1.34416803057699       -2.85442720908316
C           -5.30785108813694       -1.72748473196945        0.42290151658553
O           -5.90420052259933       -2.93042768267876        0.11230105919491
C           -6.76867639018756       -3.49355071704550        1.06115062868145
C           -5.43404550332846       -1.04285525001748        1.61531823777492
C           -4.75253525236586        0.16600721030846        1.80237220621362
C           -1.66291105103151        1.93268573067240        0.30666342196225
C           -0.99161788796442        0.58096324992187       -0.01071781528360
C            0.43448112640345        0.74391372967927        0.38320441460929
N            1.21240074579974       -0.29766969287639        0.82031619069527
C            2.62528465555975       -0.16976602763745        0.60518794941598
C            3.03884124727418       -0.60077136533103       -0.83026011978552
C            4.52378555365904       -0.43850239523557       -0.97794812740421
C            5.06061399608407        0.78316532783138       -1.34332073838866
C            6.43980512019611        0.95105924744043       -1.40336833272898
C            7.29518590251912       -0.09582721029533       -1.08774436764702
O            8.65540573645746       -0.04100398852644       -1.11233921290869
C            9.27393406677470        1.15873880819850       -1.47572243313001
C            6.74577008813746       -1.34441899060581       -0.72722253946267
O            7.67690977760906       -2.32861368313728       -0.45988568975425
C            7.20431119820415       -3.61065386485062       -0.10566034673559
C            5.37038708260654       -1.50361401985582       -0.67086582385018
C            0.64054879701779       -1.56575605387491        1.02240911723297
C           -3.97777079176262        3.07072287286159        0.16665387557190
C           -5.36313924180988        3.28606673724108        0.75676704220513
C           -3.25837650044279        4.42047791324197        0.09600372409423
H           -3.21978026677408        0.42737575118313       -1.16803389230075
H           -4.08628189516247       -0.36264058708084       -3.15828832078340
H           -3.82679651880370       -2.04770332499750       -3.67467375230670
H           -2.65596512691111       -1.27054712098695       -2.58287815600399
H           -7.61554578540765       -2.83538784590652        1.29947113970304
H           -7.14442573651153       -4.41263746789315        0.60915831981214
H           -6.23706321883027       -3.75067123717318        1.99150835730484
H           -6.07949734650053       -1.40877379453636        2.40142813106972
H           -4.91218747353977        0.68095352138287        2.74449063290471
H           -1.33888269465407        2.28731113892765       -0.77118367291440
H           -1.06572661653910        2.39947290534544        1.10448656472292
H           -1.44779346661259       -0.27859013392057        0.48446844369358
H           -0.93416107452369        0.53993746826297       -1.18724585985471
H           -2.68806431438467        1.47864659710077        3.04673577236438
H            0.90646357426974        1.70647287376579        0.28635625462792
H            3.15075120864439       -0.77976369757563        1.33889428306836
H            2.91114609550647        0.87528491835500        0.73709727092858
H            2.50317370114965        0.02583292857617       -1.54106601599278
H            2.73943346026552       -1.63449741979993       -0.98519498416118
H            4.41278216248642        1.61085256783966       -1.58361762284531
H            6.84374801870664        1.90928975053220       -1.69743314511465
H            9.03211279031086        1.97096573283974       -0.78344382311904
H            9.00764624471859        1.46145933847644       -2.49883526631831
H           10.34691529157655        0.95961781407627       -1.42852584324310
H            8.10980861382434       -4.21005703968528        0.01778794437669
H            6.65145750614278       -3.58792348097106        0.84049997043040
H            6.57988010580161       -4.04413917562605       -0.89267517689943
H            4.93517049447370       -2.45026951087191       -0.38873686503218
H            0.06340992499924       -1.92774648824259        0.14170226214072
H           -0.04843620830406       -1.55266559976995        1.87762245264739
H            1.41673362478368       -2.30578190930278        1.23157895297687
H           -4.08466572744058        2.67535745041279       -0.85079155466996
H           -5.29484973507672        3.78245827439659        1.72868300463369
H           -5.90522770108066        2.35039929567354        0.88355772407285
H           -5.95430819611603        3.92680332505166        0.09282113106605
H           -2.99740762354915        4.75775972053972        1.09522430869473
H           -2.34998335587158        4.36076810589049       -0.50346205125848
H           -3.92318675542983        5.15393600333588       -0.35474741957157
H           -3.02399037249882        3.59708921844754        3.89956562925158
72
 energy: 31.255554521109 xtb: 6.6.1 (8d0f1dd)
N           -3.07218455018646        3.45539037590302        2.86255250903390
C           -2.92996603399173        2.29789978124027        2.36525204609210
C           -3.12361286806360        1.98527328973611        0.87917692792116
C           -3.92539047246134        0.68888287212927        0.80129927037792
C           -3.82103643742256       -0.02212612448109       -0.38479650826667
C           -4.50036525063837       -1.19911951340200       -0.61320237910616
O           -4.39117271867159       -1.93631718491133       -1.74893314053006
C           -3.67116391748968       -1.40379662365400       -2.82183740809820
C           -5.35941881855042       -1.70577395781337        0.38410183351396
O           -5.99106810618425       -2.86509075590045        0.06864215799935
C           -6.89053620228080       -3.43396849489288        0.98621725042844
C           -5.49723815057075       -0.98593215546713        1.56033365062527
C           -4.78841014351653        0.19284678941276        1.77705179027387
C           -1.73544338435495        1.87713695627417        0.06911870805470
C           -0.90670694014251        0.57802582533672        0.24844540044786
C            0.43068948288326        0.80252281489438        0.81319691711097
N            1.26475179841109       -0.28715016042628        0.94924426086111
C            2.65503038514378       -0.16384151643749        0.63736898423169
C            3.04071470381418       -0.59474622147480       -0.79413396313349
C            4.51660031628960       -0.42671614051921       -0.96556872980074
C            5.05976111575048        0.78946091372482       -1.33688105626837
C            6.43318193197640        0.96388387201165       -1.42163250849099
C            7.28986810512220       -0.07909407956080       -1.12880548035160
O            8.65417305373821       -0.02542825108267       -1.17363942491177
C            9.26762731292599        1.17988203630214       -1.55591991961319
C            6.75125625696813       -1.32990115038246       -0.74239614087927
O            7.66697966935617       -2.29701835547316       -0.48335797569771
C            7.22140447387718       -3.57624526132231       -0.12940104483222
C            5.38124433893575       -1.47837959501199       -0.66022729260158
C            0.70047169745826       -1.61387349617307        1.10920811640654
C           -3.98289633854641        3.08661436233373        0.18602194430277
C           -5.36106672431820        3.31089300854610        0.82507899998364
C           -3.25274939563471        4.42182322875599        0.08860773364701
H           -3.17159122859169        0.37558259146724       -1.14403344445604
H           -4.06406278611146       -0.42894751499945       -3.12279129501275
H           -3.80345857055400       -2.11287650275428       -3.63785774387530
H           -2.60815812775209       -1.30834877374703       -2.59375354794119
H           -7.73248594318216       -2.76513518057248        1.18998805254408
H           -7.26043142262033       -4.33608183095484        0.50027091251259
H           -6.40153924948835       -3.70272332370549        1.92869996373522
H           -6.16481612698295       -1.34871515463542        2.33053680448530
H           -4.95243236450615        0.71095792166218        2.70701426486854
H           -1.56655836620594        1.77061509333701       -1.16325250026081
H           -1.18577705690463        2.69280562064578        0.44889493233866
H           -1.45658437996616       -0.15571483387005        0.85224154020959
H           -0.70458345923331        0.27955007935630       -0.88363623408121
H           -2.76200552775406        1.40669806439786        2.99904455444981
H            0.92132445809639        1.72576763017801        0.55622030638715
H            3.22482795380843       -0.75868784632875        1.35831761243719
H            2.92770213074255        0.88647432937634        0.76681084932591
H            2.50050071299899        0.02362658953440       -1.51465698686680
H            2.75244860354916       -1.63652475761814       -0.95088280286896
H            4.40864701366241        1.61792261622715       -1.57528132155359
H            6.81937999954663        1.92437930925279       -1.72040821653450
H            9.02447469004570        1.99638418872640       -0.86773341431833
H            8.98718701080983        1.46829172612322       -2.57239039509867
H           10.33651784441879        0.98332597112601       -1.51991479623409
H            8.11922576103830       -4.17591795206538       -0.00238143399339
H            6.65843672893481       -3.56927475225229        0.80975593226178
H            6.60263198189404       -4.02362335278553       -0.91470496252782
H            4.95673389275172       -2.42668376430649       -0.36726335410153
H            0.05297706475962       -1.90297340360842        0.27423812539279
H            0.10870602398184       -1.63790358120857        2.03243006536295
H            1.52315619906743       -2.32796061523665        1.19750543227459
H           -4.15368281360806        2.70126248935919       -0.82382970102595
H           -5.26133709370954        3.77949342932157        1.79749223376718
H           -5.91145558852582        2.38041041718230        0.93012867522396
H           -5.93959638570994        3.97324761183807        0.18539667052145
H           -2.96671593288829        4.76012900054824        1.08067845195102
H           -2.36946851958593        4.33779342522665       -0.53656130667676
H           -3.91488012365097        5.15992001539860       -0.35698571877918
H           -2.97468599945098        3.53672876911187        3.87495459557425
72
 energy: 31.839425869597 xtb: 6.6.1 (8d0f1dd)
N           -3.07882021539386        3.46736779239742        2.86420873440887
C           -2.93640519303462        2.30446500236293        2.37015627904792
C           -3.12520027112811        1.98273020313816        0.88066936685454
C           -3.91656768466257        0.68155740916121        0.80883423662167
C           -3.82203175216765       -0.02286726785191       -0.38748093223732
C           -4.49408817155750       -1.20302168816767       -0.60700929217997
O           -4.40237985265041       -1.94091271840774       -1.74730744221374
C           -3.70174120949303       -1.39020009142668       -2.83347926748319
C           -5.33616406895289       -1.71693559097671        0.40062425861279
O           -5.95920528835139       -2.88590310094068        0.08080215911975
C           -6.84597751326363       -3.45677886835794        1.00337715182024
C           -5.46269365616432       -1.01027164731517        1.58427760063496
C           -4.76135627742113        0.17716025451413        1.78951883717423
C           -1.73526408406340        1.88044155090600        0.05470024627919
C           -0.90470314166030        0.60603690739157        0.26747293461400
C            0.43751742765054        0.83536492098471        0.81536882974805
N            1.25326366102159       -0.27203644458847        0.90636521782004
C            2.64528505287392       -0.15032375233103        0.62078817000190
C            3.03438139175398       -0.58884994512585       -0.81145487493308
C            4.51351897102669       -0.42692554136389       -0.97364760822659