72
 energy: 0.000000000000 xtb: 6.6.1 (8d0f1dd)
N           -1.47310921155849        2.74401293103706        2.22063921685122
C           -1.55658879776851        2.16490285539332        1.13274273951491
C           -2.74549199786261        2.05621232186130        0.23826248438941
C           -3.31377553111525        0.64333411542669        0.32332512650568
C           -4.30230156009016        0.24487110156316       -0.58026161703006
C           -4.85238763031941       -1.02286490450319       -0.53363588718165
O           -5.81419972815119       -1.48606034185536       -1.36157882725342
C           -6.39655633239252       -0.60827000183299       -2.29568474302620
C           -4.39972501531283       -1.94646102182611        0.44396929121966
O           -4.98748311285188       -3.16145997157803        0.41085992006324
C           -4.66362127904578       -4.10093827755394        1.40909127743729
C           -3.42072513477031       -1.54561384810496        1.33436546260297
C           -2.88302799614223       -0.26315800396994        1.27400150770375
C           -2.19303798107274        2.30467000305896       -1.18742977106749
C           -1.26651538239283        1.17243369445008       -1.65249429687285
C            0.01082524939134        1.09745454476277       -0.89354803499847
N            0.61779393476578       -0.02034948052406       -0.57705522512502
C            2.00145210352228       -0.02376006389122       -0.15611399603240
C            2.92554934655222       -0.53865282675074       -1.27700088804721
C            4.35756843073516       -0.43050757231754       -0.83075544324989
C            5.07346135469827        0.73206409086248       -1.03980965825901
C            6.38627986649936        0.84224441421807       -0.60344822702769
C            7.00047264773336       -0.20824756335880        0.05722314418200
O            8.26703657141718       -0.21011313101264        0.52410943644933
C            9.06912227848686        0.92943601033931        0.31863058007678
C            6.27039964270142       -1.40439753960823        0.28033466008274
O            6.94829939911432       -2.38012925705718        0.92751999079483
C            6.31537317745639       -3.61583200086742        1.15217711710877
C            4.96302794628964       -1.49347471867959       -0.16064430359178
C           -0.05511211367372       -1.29906247805359       -0.62085686319744
C           -3.86758037025447        3.07992600430699        0.58498060215443
C           -4.49286159663096        2.77383493050346        1.94313289484366
C           -3.39165179876499        4.52917666589254        0.54797523472093
H           -4.66030026466202        0.94509067363451       -1.31640568823548
H           -6.85037928558380        0.25803162192116       -1.80468845313260
H           -7.17287442604349       -1.18600110843259       -2.79318157561361
H           -5.66836817451085       -0.26952966318766       -3.04040255244073
H           -4.88416720672258       -3.71589460520039        2.40913542187496
H           -5.29223570620378       -4.96637458756866        1.20969236903657
H           -3.61139813139015       -4.39919835331056        1.35529357841967
H           -3.07077796610445       -2.21868765711333        2.10002662693138
H           -2.14562754426994        0.02067850696302        2.01001344383370
H           -3.02188875377605        2.38238012313952       -1.88813545054866
H           -1.65198530896729        3.25146700677685       -1.20556284570283
H           -1.81103374245520        0.23006524641044       -1.62116301628650
H           -0.99335688527853        1.37490212198123       -2.69443256973690
H           -0.67628064361333        1.65183887049447        0.61785727145403
H            0.63525841192517        1.98466369793744       -0.92314021190751
H            2.11132552493482       -0.65949692842762        0.72532613231274
H            2.30680473056284        0.98978251704176        0.11078972794250
H            2.76694198818247        0.06750735147374       -2.17075252200790
H            2.67954581369920       -1.57455627803457       -1.51167743520200
H            4.62169998552446        1.56295612048703       -1.56123579000624
H            6.92357674630170        1.75715815945204       -0.79119596719031
H            8.65159112996149        1.81001823324363        0.81701555159939
H            9.20136171144928        1.14042857828877       -0.74698991949293
H           10.03428838009630        0.69003240176163        0.76064937965836
H            7.05567174969094       -4.23621171795340        1.65347565939075
H            5.43848001056755       -3.50813558175093        1.79970565785717
H            6.02060041905269       -4.09420497120334        0.21253282636366
H            4.40102758497114       -2.40127266373392       -0.00490198249042
H           -0.22071299714579       -1.61775583601871       -1.65116008982042
H           -1.01972258008625       -1.24102717432227       -0.10935206830928
H            0.55899954147532       -2.04486085926761       -0.12333730421426
H           -4.63991875734388        2.95501092798550       -0.18098088071825
H           -3.76095216473977        2.90314704960906        2.73380821053058
H           -4.87457614030224        1.75695641518947        1.97884603101694
H           -5.31925552549014        3.45579210326349        2.12325564252114
H           -2.60025590131176        4.69225046143352        1.27368918226171
H           -3.03987406413880        4.81897652321898       -0.43870975059559
H           -4.22191740670577        5.18069648090034        0.80616693961239
H           -0.59832433787845        2.77744694953323        2.72958984441332
72
 energy: -5.643502237792 xtb: 6.6.1 (8d0f1dd)
N           -1.49963945087984        2.79042930695514        2.23919170363138
C           -1.55100785387784        2.15929791962951        1.15516637768271
C           -2.74489902891033        2.06442730074165        0.24912950960049
C           -3.31027258708364        0.65208870180361        0.32887964057677
C           -4.29396932723995        0.24697618518100       -0.57559104412238
C           -4.83584757736476       -1.02284098042686       -0.53102180624691
O           -5.80124719363619       -1.49388461586121       -1.36881079693667
C           -6.37643841122568       -0.61564807839981       -2.30182146444786
C           -4.38567553206739       -1.94112652856647        0.44403090758591
O           -4.97416406528661       -3.16913841051367        0.40877936570869
C           -4.64326539891983       -4.10155756292457        1.40535431162205
C           -3.41449518778830       -1.53858276754283        1.34004438399216
C           -2.88340572844993       -0.25471985930101        1.28184783400459
C           -2.19187442784497        2.31046268789679       -1.17869247046233
C           -1.26794033227417        1.18333062979169       -1.67310988053827
C            0.00078458975122        1.11817398592849       -0.90906938608108
N            0.63042755006808       -0.05784458103358       -0.56012826148833
C            1.99857687797645       -0.03781753965739       -0.16326105974307
C            2.92864434579629       -0.52419721517690       -1.29464644405664
C            4.35194649803915       -0.42451438435533       -0.85155201519535
C            5.07470229412850        0.73585483480867       -1.05542323850196
C            6.38475322509482        0.84044036804569       -0.61261342443525
C            6.98714225572988       -0.21279922457662        0.05174417260277
O            8.26437261436343       -0.22262294379425        0.52591278239024
C            9.06348599585653        0.91345656313331        0.32029453480296
C            6.25252997249769       -1.39948588689872        0.27539233155665
O            6.92664371303363       -2.38411149663047        0.93239060954393
C            6.28218432142847       -3.61106919071443        1.15430133643751
C            4.94892212687473       -1.48631622781500       -0.17188161359617
C           -0.01672036482730       -1.33514285640362       -0.59094015425217
C           -3.87238916445155        3.07778093527833        0.58600033365664
C           -4.49854727754090        2.77536597047142        1.94610603854275
C           -3.40386644367790        4.53149472462172        0.54961608912040
H           -4.64705058776516        0.94415265880719       -1.31778969909487
H           -6.83406516002886        0.25154015873205       -1.81379342655809
H           -7.15041510148090       -1.19430365884135       -2.80372221606299
H           -5.64651571377294       -0.27339244719031       -3.04368364015003
H           -4.86704715418055       -3.72020879402609        2.40735824277992
H           -5.26587071216848       -4.97206187875893        1.20474759718737
H           -3.58867350503702       -4.39364227851587        1.35498538873845
H           -3.06178414806725       -2.21321701625702        2.10430528475399
H           -2.14398000836617        0.03112495060101        2.01420703140105
H           -3.02343543752291        2.40590302805145       -1.87793720880396
H           -1.64092118181330        3.25289075897497       -1.18847374672149
H           -1.81163253912794        0.24044835852869       -1.63537585450191
H           -1.02004642791280        1.39126252667432       -2.72237972129006
H           -0.68562304808484        1.65218977514915        0.66338772943494
H            0.64845839344012        1.97771503460312       -0.96097402932890
H            2.11872044259308       -0.68564102578814        0.71210082289863
H            2.29090649554028        0.97706917119755        0.11819161507995
H            2.75594220841579        0.09891509066224       -2.17302213122711
H            2.67244323906254       -1.55423625946798       -1.54614601285879
H            4.62580677638092        1.56768288574391       -1.57801613305117
H            6.92820162474312        1.75235207658497       -0.80055272340618
H            8.64731292133337        1.79812929191916        0.81461063622950
H            9.20114379728544        1.12416199053247       -0.74579301878557
H           10.02704361203052        0.67270022872741        0.76641516994812
H            7.01460225442811       -4.23476293518280        1.66427462657765
H            5.40039488418840       -3.49711035936662        1.79397652965716
H            5.99062234878315       -4.09236893991442        0.21440049790157
H            4.37768771147247       -2.38795754325876       -0.01139975894392
H           -0.15397709521645       -1.69845629290717       -1.61023765799137
H           -1.01494384394692       -1.27510010980906       -0.14940285073272
H            0.62679096006982       -2.04577102711090       -0.05055210967751
H           -4.64728883952280        2.95338490509043       -0.17987187944173
H           -3.76298358944157        2.90836746084093        2.73258411442023
H           -4.87305140640001        1.75514672083621        1.98298669120745
H           -5.32879732650310        3.45418430228428        2.12612790964156
H           -2.61183094119593        4.69310485533612        1.27421048712368
H           -3.05009327074562        4.81857265126277       -0.43745105208206
H           -4.23675669226664        5.18210465705488        0.80643268088051
H           -0.60820642268883        2.79208713938868        2.73160586876838
72
 energy: -4.825077636174 xtb: 6.6.1 (8d0f1dd)
N           -1.50780808191886        2.80921530637188        2.24499248673139
C           -1.55244073920886        2.16629043704038        1.16748798320929
C           -2.74290379675492        2.06904271857513        0.25534349901813
C           -3.30514514026938        0.65613536228243        0.33325929008165
C           -4.28444615416352        0.24803089557216       -0.57420280887555
C           -4.82262329867406       -1.02349349050928       -0.53137039601691
O           -5.78280459983245       -1.49848255447713       -1.37331017260092
C           -6.35640340991851       -0.62223001988407       -2.30907075370082
C           -4.37287565234712       -1.94022998885055        0.44503604413011
O           -4.95662954510800       -3.17091362315383        0.40715644188369
C           -4.62357770966583       -4.10301217799611        1.40306448659491
C           -3.40642307515650       -1.53428435309575        1.34467245242271
C           -2.87953260402501       -0.24883653233841        1.28821155166322
C           -2.18758559554352        2.31874242533227       -1.17136127991890
C           -1.27195439983292        1.18829779642097       -1.68078186964983
C           -0.00102220255939        1.10511138132379       -0.92641186619328
N            0.62636513318156       -0.07222396691222       -0.55863340771478
C            1.99514103229427       -0.04403291677765       -0.16858234202128
C            2.92292154441936       -0.50808424829142       -1.31039945381866
C            4.34532212520296       -0.41577383558007       -0.86584335138665
C            5.07434222032355        0.74040621257279       -1.06945682016584
C            6.38354496182956        0.83828920811048       -0.62262537379219
C            6.97797881621843       -0.21688425648150        0.04610628396393
O            8.25406798698269       -0.23398602896092        0.52351779150052
C            9.05826223820885        0.89908137007026        0.32041474221909
C            6.23555445369460       -1.39840176135456        0.27092941087905
O            6.90074249611668       -2.38550622500901        0.93347430213268
C            6.24792579607326       -3.60778732031440        1.15524282912632
C            4.93305233293227       -1.47887641505680       -0.18056657268156
C            0.01668109674072       -1.36796288855386       -0.56050604435030
C           -3.87608724060082        3.07792887981243        0.58833318797697
C           -4.50360228951062        2.77579041730036        1.94794501479968
C           -3.41452397023465        4.53367154939657        0.55063151408183
H           -4.63586678094905        0.94389640349307       -1.31834362730183
H           -6.81843514106706        0.24422747443628       -1.82382479562361
H           -7.12627007531680       -1.20343576054075       -2.81434457587265
H           -5.62397597337356       -0.27809476852782       -3.04754035080044
H           -4.85199631880485       -3.72471637681580        2.40524374820230
H           -5.24064803109646       -4.97675160497151        1.19917251015285
H           -3.56726763533834       -4.38885036535193        1.35514768970241
H           -3.05359480046648       -2.20801964055435        2.10964073892975
H           -2.14257654993555        0.03955382724652        2.02194248811090
H           -3.01972526994275        2.42735684809841       -1.86903084414257
H           -1.62942076679857        3.25688551858076       -1.17410683610430
H           -1.81977793248243        0.24879381967144       -1.64748920964820
H           -1.03316472262204        1.40420895113861       -2.73198185215544
H           -0.68642161021710        1.65416852601726        0.68908918353177
H            0.65162975148205        1.96332578782833       -0.97620837737648
H            2.12014524719324       -0.70661875065478        0.69571936104585
H            2.28015368942056        0.96843291956929        0.12731987770757
H            2.74658469966174        0.12994349940640       -2.17621721971223
H            2.66622599897995       -1.53353113707686       -1.57978777238791
H            4.63078070601955        1.57342784491993       -1.59483924563574
H            6.93294620808571        1.74623024590180       -0.81226000984273
H            8.64292298304684        1.78569846774938        0.81204922644280
H            9.20100057550440        1.10842276147309       -0.74530523887446
H           10.01894333826048        0.65509191715397        0.77091140094342
H            6.97281164026525       -4.23347537149005        1.67331455020606
H            5.36249832691395       -3.48639736108211        1.78801426076678
H            5.96010931181764       -4.09125375080197        0.21528959577624
H            4.35460057495470       -2.37536648686368       -0.01696079246670
H           -0.08133095500115       -1.77670208171659       -1.56459723785914
H           -1.01006002551864       -1.31103952104096       -0.18831938603925
H            0.68776219653741       -2.03852322028938        0.02600745265436
H           -4.64989261264250        2.94942988970132       -0.17831982778460
H           -3.77006279447472        2.91462828357968        2.73512219695628
H           -4.87287845843711        1.75368587202310        1.98651314816076
H           -5.33747901723492        3.45110634266492        2.12552169469430
H           -2.62464757421654        4.69897889503333        1.27628433516657
H           -3.06014958048983        4.81988953906764       -0.43631353362396
H           -4.25055100275694        5.18150246972172        0.80512296547946
H           -0.61958251443602        2.81551512285113        2.74259423976202
72
 energy: -2.976154053090 xtb: 6.6.1 (8d0f1dd)
N           -1.51493820922492        2.83210191747357        2.24798723939364
C           -1.55286116630474        2.17552041109880        1.17834077429589
C           -2.74079235801686        2.07373828834749        0.26164409512197
C           -3.30022475001715        0.66024295876035        0.33767169790072
C           -4.27501933266863        0.24903171591220       -0.57309919688275
C           -4.80967039765263       -1.02412949933252       -0.53181428418973
O           -5.76473123128475       -1.50311709907748       -1.37780520271409
C           -6.33720981413520       -0.62894980173076       -2.31606377773210
C           -4.36058364438117       -1.93915796737058        0.44619566114263
O           -4.93947574049680       -3.17257994916750        0.40567922410285
C           -4.60381548144492       -4.10465626659280        1.40048034040191
C           -3.39883740706478       -1.52990616012364        1.34940168872372
C           -2.87601530015054       -0.24294783379932        1.29464112404422
C           -2.18390330452882        2.32695639112175       -1.16397032802391
C           -1.27666722624428        1.19293657420203       -1.68801731092892
C           -0.00368334047265        1.08617400737816       -0.94216889812442
N            0.62224193878864       -0.09067951455815       -0.55768855181185
C            1.99120223755497       -0.04966843507022       -0.17529472028421
C            2.91728561267246       -0.49091869015227       -1.32627416087899
C            4.33862378596276       -0.40680166651396       -0.87951571008381
C            5.07447212883285        0.74454964142581       -1.08367663447119
C            6.38284047651699        0.83577178374184       -0.63303244411289
C            6.96901991738218       -0.22105547377059        0.04048407101987
O            8.24381493627288       -0.24533654480377        0.52141555004028
C            9.05347134442885        0.88439330955735        0.32122631803139
C            6.21860346039199       -1.39708574243152        0.26691264107568
O            6.87494349353525       -2.38660306120915        0.93495550442017
C            6.21367764992475       -3.60418525587637        1.15595309504435
C            4.91705934777460       -1.47111690773339       -0.18828717761755
C            0.05028753103664       -1.40247274263899       -0.52663006796618
C           -3.87968518614859        3.07791451584489        0.59058016411412
C           -4.50758683937237        2.77572214633708        1.94997909390832
C           -3.42482803879086        4.53563160342674        0.55115775888715
H           -4.62383412808838        0.94305863534930       -1.32021349576467
H           -6.80328814712202        0.23673867344471       -1.83328543059409
H           -7.10345183580868       -1.21260628587293       -2.82403738035332
H           -5.60289956206823       -0.28305384553811       -3.05181596098127
H           -4.83651453826356       -3.72994089676130        2.40308676176073
H           -5.21548154038615       -4.98145988357362        1.19327055850888
H           -3.54588624618119       -4.38452568447681        1.35459295247220
H           -3.04562415758369       -2.20281151519535        2.11487321068089
H           -2.14060889967133        0.04738624279945        2.02901430945437
H           -3.01766571494271        2.44718824609851       -1.85889334301632
H           -1.61972625712160        3.26168428156243       -1.16048761563144
H           -1.83007804461469        0.25730868163057       -1.66300166154346
H           -1.04519516128082        1.42066849968692       -2.73947902820191
H           -0.68823464529781        1.65091782146383        0.71727900189955
H            0.65443314167579        1.94306277458930       -0.99085989480017
H            2.12140633090836       -0.72755969319371        0.67696466272703
H            2.26884097522105        0.95996274707438        0.13662553959890
H            2.73809099551754        0.16237358662016       -2.17917521858528
H            2.65931139228359       -1.51127654713750       -1.61375698823324
H            4.63601884609422        1.57878969219818       -1.61151010918965
H            6.93790375675068        1.74000419155813       -0.82368657910210
H            8.63950517373946        1.77313496816949        0.81026724192839
H            9.20190775570926        1.09231859756838       -0.74401321489534
H           10.01098032155888        0.63656047271211        0.77626162948853
H            6.93085598551146       -4.23223332493862        1.68176357433284
H            5.32454191126678       -3.47572672669593        1.78173537256409
H            5.92980075180631       -4.08900524355767        0.21545753206047
H            4.33150279800610       -2.36241838771730       -0.02117958368118
H           -0.00998406420588       -1.85340851725568       -1.51489478690522
H           -1.00105822419498       -1.34788039448559       -0.22564953418073
H            0.74765216505041       -2.03526282206861        0.10421713960753
H           -4.65259908947890        2.94455157656809       -0.17640532456058
H           -3.77541477402232        2.92017071972544        2.73726547427197
H           -4.87185670185844        1.75183125616806        1.99012049604764
H           -5.34478218581261        3.44756608925591        2.12584002267212
H           -2.63666613730767        4.70418081839053        1.27758333407252
H           -3.07031672660291        4.82136899377302       -0.43581037254107
H           -4.26364634389666        5.18065360300034        0.80410612113222
H           -0.63039292582195        2.84077201421381        2.75127748073451
72
 energy: -0.387954824951 xtb: 6.6.1 (8d0f1dd)
N           -1.52277990285629        2.85182942837225        2.25113243965459
C           -1.55356920507390        2.18387815129853        1.18850013553789
C           -2.73831831896059        2.07847204492946        0.26704671407497
C           -3.29392936455866        0.66391997270951        0.34107145984086
C           -4.26488186870830        0.24984714612366       -0.57234806840876
C           -4.79611952874454       -1.02483063487349       -0.53224792644992
O           -5.74647511848818       -1.50739748771846       -1.38188456335756
C           -6.31746097622465       -0.63513970238403       -2.32273015745092
C           -4.34727150706129       -1.93825356083265        0.44713966305086
O           -4.92167546385846       -3.17411668801198        0.40452752189578
C           -4.58341368612106       -4.10596821153035        1.39843125788631
C           -3.38990008276808       -1.52581376464480        1.35357713113585
C           -2.87103915415730       -0.23736603396188        1.30021395833016
C           -2.17909047671555        2.33580080353152       -1.15711138612970
C           -1.28096616362399        1.19729742457237       -1.69431982340463
C           -0.00656723229296        1.06471690504561       -0.95518008129225
N            0.61730806175698       -0.11237144827332       -0.55873127874357
C            1.98649456411940       -0.05639316970132       -0.18261724596718
C            2.91116343456330       -0.47477324192460       -1.34153560779479
C            4.33123736391895       -0.39731084670505       -0.89200559745765
C            5.07361036538156        0.74947283604531       -1.09631220522264
C            6.38118719245867        0.83405477272527       -0.64199153132221
C            6.95933030859550       -0.22468436345354        0.03554820187155
O            8.23305117578110       -0.25610834533842        0.51903994645350
C            9.04805912162880        0.87016473007829        0.32088822680144
C            6.20120992484125       -1.39547114868525        0.26329809074921
O            6.84908057587178       -2.38745163115145        0.93628086205070
C            6.17998890433878       -3.60053422180733        1.15752052783733
C            4.90055741743337       -1.46292948321201       -0.19534230549671
C            0.08072888478233       -1.43761856903742       -0.49543556119029
C           -3.88243111623240        3.07795019420198        0.59342835660177
C           -4.51102986869140        2.77518723509353        1.95238957902749
C           -3.43470458639224        4.53784999702538        0.55243164879056
H           -4.61246182676515        0.94254156734901       -1.32129138014119
H           -6.78772113714952        0.22976780610875       -1.84258653927253
H           -7.07990261740735       -1.22107295532385       -2.83380234333147
H           -5.58097504229220       -0.28748685873111       -3.05546236794679
H           -4.82050396475890       -3.73460733412814        2.40131323246492
H           -5.18956198606535       -4.98592287024256        1.18812089482037
H           -3.52385314861622       -4.37972285238713        1.35471998761807
H           -3.03671216406044       -2.19763490057635        2.11998231850086
H           -2.13846926660659        0.05552105946328        2.03628263273016
H           -3.01350162159916        2.46869088029958       -1.85018441947491
H           -1.60815796511056        3.26658808225762       -1.14692416499850
H           -1.84100526293860        0.26613491025313       -1.67742557871699
H           -1.05627350263208        1.43594051937320       -2.74587893505797
H           -0.68862738561998        1.65237831683715        0.74150925550846
H            0.65763980570164        1.91986050743657       -1.00170386855157
H            2.12290015816765       -0.74790595750047        0.65832701547091
H            2.25597620796368        0.95044005113613        0.14590883863029
H            2.72905808030313        0.19252395139981       -2.18203916525254
H            2.65314435523018       -1.49035762926055       -1.64612916700950
H            4.64038033029922        1.58485316663430       -1.62677415820417
H            6.94202867320578        1.73443200649136       -0.83385066304351
H            8.63563638016512        1.76114235004910        0.80719695801189
H            9.20155014782432        1.07626323741052       -0.74400676592874
H           10.00269324509151        0.61884938875940        0.77998743409651
H            6.88997008632168       -4.23017388692776        1.69112656176503
H            5.28754009528508       -3.46506114131799        1.77675012945432
H            5.89974820401164       -4.08782204525844        0.21716084281773
H            4.30836653501638       -2.34952832827235       -0.02623289200646
H            0.06192328544847       -1.92813758130473       -1.46735558851841
H           -0.98961995706393       -1.38842567253483       -0.26392682782589
H            0.79619896251515       -2.03436033184166        0.18655743550363
H           -4.65428359361907        2.93988479440630       -0.17395773068001
H           -3.78069247212670        2.92490432153612        2.74027762981294
H           -4.87044111922594        1.74958827093417        1.99378036087541
H           -5.35169103565105        3.44337295130142        2.12623364557188
H           -2.64826646841509        4.71024507608730        1.27953416390721
H           -3.08026380801954        4.82340637341084       -0.43455210933353
H           -4.27664477790216        5.17960183840541        0.80374274669092
H           -0.64109681985363        2.86502084964121        2.75850247260527
72
 energy: 2.948677750594 xtb: 6.6.1 (8d0f1dd)
N           -1.53169472877935        2.87254043492663        2.25488541056583
C           -1.55533779571098        2.19328071399554        1.19940458091683
C           -2.73642968376024        2.08348742582779        0.27318003373444
C           -3.28820722401928        0.66781316475473        0.34512435638306
C           -4.25488501564286        0.25077639645426       -0.57142303796162
C           -4.78256891897645       -1.02546229191761       -0.53261394617304
O           -5.72800445897543       -1.51161217517086       -1.38597415705095
C           -6.29744566276843       -0.64146294552461       -2.32961813555972
C           -4.33414691489784       -1.93724812479314        0.44834441336863
O           -4.90393417876325       -3.17548692679187        0.40349188172779
C           -4.56309472520664       -4.10729717837847        1.39637063950718
C           -3.38149025523445       -1.52155324443905        1.35827604516944
C           -2.86673311304923       -0.23154521758865        1.30648338481673
C           -2.17404324766679        2.34437347262463       -1.14918825156558
C           -1.28482975935454        1.20162985637400       -1.69894116713976
C           -0.00919699370040        1.04190502223920       -0.96551751525038
N            0.61398868800428       -0.13602597839426       -0.56053858202949
C            1.98392804427020       -0.06268529507236       -0.19132902444274
C            2.90546513872214       -0.45838017637600       -1.35807152684091
C            4.32452117791592       -0.38825140055462       -0.90628499144697