25
 energy: 55.315444410348 xtb: 6.6.1 (8d0f1dd)
C            3.46082645381840        0.92132496765671        0.15497605832461
N            2.51375693422955       -0.15035234987758        0.03485293692628
C            2.83247324165289       -1.42599045117861       -0.06839822057812
N            1.70460417580947       -2.17369907056334       -0.10597495647853
C            0.62986378041760       -1.31715887793585       -0.01263604857396
C            1.15493868204862       -0.03567858703291        0.06431464019429
C            0.24917401101328        1.13922283052446        0.21360388935251
O            0.71648213208293        2.26378896466477        0.27203566268851
N           -1.05254977427252        0.83527979957418        0.29425102966072
C           -3.64287489388619        3.58074731048439       -0.42216627924431
C           -1.59486822851634       -0.34406435278112        0.20263276948596
O           -2.75529143145610       -0.64512325900713        0.23733030912402
N           -0.66516999521794       -1.56456471640230        0.00542187961727
C           -1.20286356920400       -2.90341173368774       -0.00870967322066
H            3.99635485820012        0.81352363475028        1.09660103902111
H            4.17395122108126        0.89727095445418       -0.66936735799473
H            2.90183036055439        1.85739198747448        0.14282154788813
H            3.81713801179453       -1.80165874025507       -0.20720660533220
H           -2.83013919504917        4.25689615590490       -0.36257044779006
H           -3.93686971722832        3.20004163453525       -1.36823242865971
H           -4.17481027973264        3.28786901391588        0.45011390713556
H           -0.79893151392636       -3.51679688260402        0.79752323446989
H           -1.02754953728671       -3.39754925711507       -0.96930940769948
H           -2.27583660567587       -2.81425581726194        0.15405526899711
H            1.71249433416887       -3.17772715517004       -0.19409441171699
