      -----------------------------------------------------------      
     |                   =====================                   |     
     |                           x T B                           |     
     |                   =====================                   |     
     |                         S. Grimme                         |     
     |          Mulliken Center for Theoretical Chemistry        |     
     |                    University of Bonn                     |     
      -----------------------------------------------------------      

   * xtb version 6.6.1 (8d0f1dd) compiled by 'conda@1efc2f54142f' on 2023-08-01

   xtb is free software: you can redistribute it and/or modify it under
   the terms of the GNU Lesser General Public License as published by
   the Free Software Foundation, either version 3 of the License, or
   (at your option) any later version.
   
   xtb is distributed in the hope that it will be useful,
   but WITHOUT ANY WARRANTY; without even the implied warranty of
   MERCHANTABILITY or FITNESS FOR A PARTICULAR PURPOSE.  See the
   GNU Lesser General Public License for more details.
   
   Cite this work as:
   * C. Bannwarth, E. Caldeweyher, S. Ehlert, A. Hansen, P. Pracht,
     J. Seibert, S. Spicher, S. Grimme, WIREs Comput. Mol. Sci., 2020, 11,
     e01493. DOI: 10.1002/wcms.1493
   
   for GFN2-xTB:
   * C. Bannwarth, S. Ehlert and S. Grimme., J. Chem. Theory Comput., 2019,
     15, 1652-1671. DOI: 10.1021/acs.jctc.8b01176
   for GFN1-xTB:
   * S. Grimme, C. Bannwarth, P. Shushkov, J. Chem. Theory Comput., 2017,
     13, 1989-2009. DOI: 10.1021/acs.jctc.7b00118
   for GFN0-xTB:
   * P. Pracht, E. Caldeweyher, S. Ehlert, S. Grimme, ChemRxiv, 2019, preprint.
     DOI: 10.26434/chemrxiv.8326202.v1
   for GFN-FF:
   * S. Spicher and S. Grimme, Angew. Chem. Int. Ed., 2020, 59, 15665-15673.
     DOI: 10.1002/anie.202004239
   
   for ALPB and GBSA implicit solvation:
   * S. Ehlert, M. Stahn, S. Spicher, S. Grimme, J. Chem. Theory Comput.,
     2021, 17, 4250-4261. DOI: 10.1021/acs.jctc.1c00471
   
   for DFT-D4:
   * E. Caldeweyher, C. Bannwarth and S. Grimme, J. Chem. Phys., 2017,
     147, 034112. DOI: 10.1063/1.4993215
   * E. Caldeweyher, S. Ehlert, A. Hansen, H. Neugebauer, S. Spicher,
     C. Bannwarth and S. Grimme, J. Chem. Phys., 2019, 150, 154122.
     DOI: 10.1063/1.5090222
   * E. Caldeweyher, J.-M. Mewes, S. Ehlert and S. Grimme, Phys. Chem. Chem. Phys.
     2020, 22, 8499-8512. DOI: 10.1039/D0CP00502A
   
   for sTDA-xTB:
   * S. Grimme and C. Bannwarth, J. Chem. Phys., 2016, 145, 054103.
     DOI: 10.1063/1.4959605
   
   in the mass-spec context:
   * V. Asgeirsson, C. Bauer and S. Grimme, Chem. Sci., 2017, 8, 4879.
     DOI: 10.1039/c7sc00601b
   * J. Koopman and S. Grimme, ACS Omega 2019, 4, 12, 15120-15133.
     DOI: 10.1021/acsomega.9b02011
   
   for metadynamics refer to:
   * S. Grimme, J. Chem. Theory Comput., 2019, 155, 2847-2862
     DOI: 10.1021/acs.jctc.9b00143
   
   for SPH calculations refer to:
   * S. Spicher and S. Grimme, J. Chem. Theory Comput., 2021, 17, 1701-1714
     DOI: 10.1021/acs.jctc.0c01306
   
   with help from (in alphabetical order)
   P. Atkinson, C. Bannwarth, F. Bohle, G. Brandenburg, E. Caldeweyher
   M. Checinski, S. Dohm, S. Ehlert, S. Ehrlich, I. Gerasimov, C. Hölzer
   A. Katbashev, J. Koopman, C. Lavigne, S. Lehtola, F. März, M. Müller,
   F. Musil, H. Neugebauer, J. Pisarek, C. Plett, P. Pracht, F. Pultar,
   J. Seibert, P. Shushkov, S. Spicher, M. Stahn, M. Steiner, T. Strunk,
   J. Stückrath, T. Rose, and J. Unsleber
   
 * started run on 2024/06/05 at 19:58:50.530     

           -------------------------------------------------
          |                Calculation Setup                |
           -------------------------------------------------

          program call               : xtb struc.xyz --opt loose --input .xc1 --gfn2
          hostname                   : n-62-29-9
          coordinate file            : struc.xyz
          omp threads                :                     1

   ID    Z sym.   atoms
    1    6 C      1, 3, 5-7, 10, 11, 14
    2    7 N      2, 4, 9, 13
    3    8 O      8, 12
    4    1 H      15-25
constraining bond 9 13 to    4.8400000 Å, actual value:    2.3869999 Å

           -------------------------------------------------
          |                 G F N 2 - x T B                 |
           -------------------------------------------------

        Reference                      10.1021/acs.jctc.8b01176
      * Hamiltonian:
        H0-scaling (s, p, d)           1.850000    2.230000    2.230000
        zeta-weighting                 0.500000
      * Dispersion:
        s8                             2.700000
        a1                             0.520000
        a2                             5.000000
        s9                             5.000000
      * Repulsion:
        kExp                           1.500000    1.000000
        rExp                           1.000000
      * Coulomb:
        alpha                          2.000000
        third order                    shell-resolved
        anisotropic                    true
        a3                             3.000000
        a5                             4.000000
        cn-shift                       1.200000
        cn-exp                         4.000000
        max-rad                        5.000000


          ...................................................
          :                      SETUP                      :
          :.................................................:
          :  # basis functions                  67          :
          :  # atomic orbitals                  67          :
          :  # shells                           39          :
          :  # electrons                        74          :
          :  max. iterations                   250          :
          :  Hamiltonian                  GFN2-xTB          :
          :  restarted?                      false          :
          :  GBSA solvation                  false          :
          :  PC potential                    false          :
          :  electronic temp.         7500.0000000     K    :
          :  accuracy                    1.0000000          :
          :  -> integral cutoff          0.2500000E+02      :
          :  -> integral neglect         0.1000000E-07      :
          :  -> SCF convergence          0.1000000E-05 Eh   :
          :  -> wf. convergence          0.1000000E-03 e    :
          :  Broyden damping             0.4000000          :
          ...................................................

 iter      E             dE          RMSdq      gap      omega  full diag
   1    -42.5960780 -0.425961E+02  0.440E+00    3.52       0.0  T
   2    -42.7780033 -0.181925E+00  0.248E+00    3.37       1.0  T
   3    -42.7871777 -0.917437E-02  0.149E+00    3.50       1.0  T
   4    -42.7817164  0.546128E-02  0.642E-01    3.42       1.0  T
   5    -42.7911189 -0.940247E-02  0.115E-01    3.49       1.0  T
   6    -42.7912109 -0.920486E-04  0.685E-02    3.46       1.0  T
   7    -42.7912647 -0.537856E-04  0.265E-02    3.48       1.0  T
   8    -42.7912686 -0.385526E-05  0.113E-02    3.47       1.8  T
   9    -42.7912697 -0.111307E-05  0.441E-03    3.47       4.5  T
  10    -42.7912698 -0.733569E-07  0.139E-03    3.47      14.4  T
  11    -42.7912698 -0.243437E-08  0.602E-04    3.47      33.2  T
  12    -42.7912698 -0.222032E-08  0.181E-04    3.47     110.6  T

   *** convergence criteria satisfied after 12 iterations ***

         #    Occupation            Energy/Eh            Energy/eV
      -------------------------------------------------------------
         1        2.0000           -0.9116047             -24.8060
       ...           ...                  ...                  ...
        31        1.9942           -0.6212459             -16.9050
        32        1.9930           -0.6166804             -16.7807
        33        1.9876           -0.6031136             -16.4116
        34        1.9710           -0.5827317             -15.8569
        35        1.9403           -0.5651917             -15.3796
        36        1.9387           -0.5645672             -15.3627
        37        1.9155           -0.5566412             -15.1470 (HOMO)
        38        0.1907           -0.4290919             -11.6762 (LUMO)
        39        0.0640           -0.4015676             -10.9272
        40        0.0206           -0.3740689             -10.1789
        41        0.0006           -0.2879107              -7.8344
        42        0.0000           -0.2065811              -5.6214
       ...           ...                  ...                  ...
        67                          0.5613577              15.2753
      -------------------------------------------------------------
                  HL-Gap            0.1275493 Eh            3.4708 eV
             Fermi-level           -0.4825284 Eh          -13.1303 eV

 SCC (total)                   0 d,  0 h,  0 min,  0.038 sec
 SCC setup                      ...        0 min,  0.000 sec (  0.958%)
 Dispersion                     ...        0 min,  0.000 sec (  1.136%)
 classical contributions        ...        0 min,  0.000 sec (  0.306%)
 integral evaluation            ...        0 min,  0.007 sec ( 18.099%)
 iterations                     ...        0 min,  0.018 sec ( 48.353%)
 molecular gradient             ...        0 min,  0.012 sec ( 30.739%)
 printout                       ...        0 min,  0.000 sec (  0.370%)

         :::::::::::::::::::::::::::::::::::::::::::::::::::::
         ::                     SUMMARY                     ::
         :::::::::::::::::::::::::::::::::::::::::::::::::::::
         :: total energy             -31.516129609850 Eh    ::
         :: gradient norm              6.556706955453 Eh/a0 ::
         :: HOMO-LUMO gap              3.470793873671 eV    ::
         ::.................................................::
         :: SCC energy               -42.791269777655 Eh    ::
         :: -> isotropic ES            0.136760385929 Eh    ::
         :: -> anisotropic ES         -0.005341405309 Eh    ::
         :: -> anisotropic XC          0.011501049227 Eh    ::
         :: -> dispersion             -0.022650340738 Eh    ::
         :: repulsion energy           0.531105277918 Eh    ::
         :: add. restraining          10.743920730878 Eh    ::
         :: total charge               1.000000000010 e     ::
         :::::::::::::::::::::::::::::::::::::::::::::::::::::

      ----------------------------------------------------------- 
     |                   =====================                   |
     |                        A N C O P T                        |
     |                   =====================                   |
     |               Approximate Normal Coordinate               |
     |                Rational Function Optimizer                |
      ----------------------------------------------------------- 

          ...................................................
          :                      SETUP                      :
          :.................................................:
          :   optimization level             loose          :
          :   max. optcycles                   200          :
          :   ANC micro-cycles                  20          :
          :   degrees of freedom                69          :
          :.................................................:
          :   RF solver                   davidson          :
          :   write xtbopt.log                true          :
          :   linear?                        false          :
          :   energy convergence         0.5000000E-04 Eh   :
          :   grad. convergence          0.4000000E-02 Eh/α :
          :   maxmium RF displ.          1.0000000          :
          :   Hlow (freq-cutoff)         0.1000000E-01      :
          :   Hmax (freq-cutoff)         5.0000000          :
          :   S6 in model hess.         20.0000000          :
          ...................................................

generating ANC from model Hessian ...
Using Lindh-Hessian (1995)
 Shifting diagonal of input Hessian by    1.8117349852848592     
 Lowest  eigenvalues of input Hessian
    0.010000    0.750446    0.000000    0.000000    0.000000    0.000000
    0.000000    0.000000    1.814564    1.815939    1.817341    1.821189
    1.821677    1.823358    1.823725    1.826099    1.830829    1.836549
 Highest eigenvalues
    3.955700    4.021575    4.064971    4.213527    4.331032    5.125211


........................................................................
.............................. CYCLE    1 ..............................
........................................................................

 iter      E             dE          RMSdq      gap      omega  full diag
   1    -42.7912698 -0.427913E+02  0.838E-05    3.47       0.0  T
   2    -42.7912698 -0.247127E-10  0.452E-05    3.47     442.9  T
   3    -42.7912698 -0.149214E-11  0.279E-05    3.47     715.8  T
     SCC iter.                  ...        0 min,  0.005 sec
     gradient                   ...        0 min,  0.012 sec
 * total energy  :   -31.5161296 Eh     change       -0.2401990E-09 Eh
   gradient norm :     6.5567067 Eh/α   predicted     0.0000000E+00 (-100.00%)
   displ. norm   :     0.6994954 α      lambda       -0.4574401E+01
   maximum displ.:     0.6567503 α      in ANC's #69, #68, #48, ...

........................................................................
.............................. CYCLE    2 ..............................
........................................................................

 iter      E             dE          RMSdq      gap      omega  full diag
   1    -42.6835488 -0.426835E+02  0.115E+00    2.90       0.0  T
   2    -42.6932122 -0.966340E-02  0.810E-01    3.15       1.0  T
   3    -42.7007851 -0.757294E-02  0.352E-01    3.13       1.0  T
   4    -42.7005009  0.284228E-03  0.177E-01    3.07       1.0  T
   5    -42.7011921 -0.691188E-03  0.445E-02    3.12       1.0  T
   6    -42.7012031 -0.110294E-04  0.277E-02    3.11       1.0  T
   7    -42.7012082 -0.512644E-05  0.871E-03    3.12       2.3  T
   8    -42.7012094 -0.113453E-05  0.349E-03    3.12       5.7  T
   9    -42.7012096 -0.180482E-06  0.164E-03    3.12      12.2  T
  10    -42.7012096 -0.693970E-08  0.851E-04    3.12      23.5  T
  11    -42.7012096 -0.656710E-08  0.264E-04    3.12      75.8  T
     SCC iter.                  ...        0 min,  0.016 sec
     gradient                   ...        0 min,  0.011 sec
 * total energy  :   -35.4718719 Eh     change       -0.3955742E+01 Eh
   gradient norm :     4.7771435 Eh/α   predicted    -0.3406534E+01 ( -13.88%)
   displ. norm   :     0.7749587 α      lambda       -0.3689788E+01
   maximum displ.:     0.7186342 α      in ANC's #69, #50, #60, ...

........................................................................
.............................. CYCLE    3 ..............................
........................................................................

 iter      E             dE          RMSdq      gap      omega  full diag
   1    -42.3945291 -0.423945E+02  0.192E+00    2.08       0.0  T
   2    -42.3471976  0.473314E-01  0.217E+00    2.28       1.0  T
   3    -42.4908884 -0.143691E+00  0.698E-01    2.17       1.0  T
   4    -42.4862254  0.466299E-02  0.439E-01    2.13       1.0  T
   5    -42.4911081 -0.488267E-02  0.147E-01    2.14       1.0  T
   6    -42.4917951 -0.686958E-03  0.454E-02    2.15       1.0  T
   7    -42.4918089 -0.138508E-04  0.292E-02    2.16       1.0  T
   8    -42.4918150 -0.610685E-05  0.175E-02    2.15       1.1  T
   9    -42.4918244 -0.940435E-05  0.491E-03    2.15       4.1  T
  10    -42.4918247 -0.244370E-06  0.231E-03    2.15       8.7  T
  11    -42.4918248 -0.978342E-07  0.954E-04    2.15      21.0  T
  12    -42.4918248 -0.116836E-07  0.450E-04    2.15      44.5  T
     SCC iter.                  ...        0 min,  0.017 sec
     gradient                   ...        0 min,  0.011 sec
 * total energy  :   -38.4350340 Eh     change       -0.2963162E+01 Eh
   gradient norm :     2.9623759 Eh/α   predicted    -0.2952866E+01 (  -0.35%)
   displ. norm   :     0.7473378 α      lambda       -0.2190253E+01
   maximum displ.:     0.5903813 α      in ANC's #69, #50, #60, ...

........................................................................
.............................. CYCLE    4 ..............................
........................................................................

 iter      E             dE          RMSdq      gap      omega  full diag
   1    -42.2837030 -0.422837E+02  0.158E+00    1.81       0.0  T
   2    -42.2156788  0.680242E-01  0.176E+00    0.86       1.0  T
   3    -42.3110703 -0.953915E-01  0.839E-01    1.69       1.0  T
   4    -42.3049391  0.613128E-02  0.702E-01    1.20       1.0  T
   5    -42.3245872 -0.196481E-01  0.134E-01    1.43       1.0  T
   6    -42.3247987 -0.211555E-03  0.599E-02    1.40       1.0  T
   7    -42.3248615 -0.628091E-04  0.403E-02    1.42       1.0  T
   8    -42.3248962 -0.346145E-04  0.126E-02    1.41       1.6  T
   9    -42.3248973 -0.116516E-05  0.631E-03    1.41       3.2  T
  10    -42.3248980 -0.633554E-06  0.235E-03    1.41       8.5  T
  11    -42.3248980 -0.620432E-07  0.935E-04    1.41      21.4  T
  12    -42.3248980 -0.876834E-08  0.469E-04    1.41      42.6  T
     SCC iter.                  ...        0 min,  0.017 sec
     gradient                   ...        0 min,  0.011 sec
 * total energy  :   -40.2448909 Eh     change       -0.1809857E+01 Eh
   gradient norm :     1.9469427 Eh/α   predicted    -0.1706825E+01 (  -5.69%)
   displ. norm   :     0.7392340 α      lambda       -0.1432044E+01
   maximum displ.:     0.5325258 α      in ANC's #69, #60, #50, ...

........................................................................
.............................. CYCLE    5 ..............................
........................................................................

 iter      E             dE          RMSdq      gap      omega  full diag
   1    -42.2062815 -0.422063E+02  0.143E+00    0.91       0.0  T
   2    -42.1996568  0.662471E-02  0.112E+00    0.89       1.0  T
   3    -42.2178288 -0.181720E-01  0.666E-01    1.18       1.0  T
   4    -42.2134829  0.434591E-02  0.698E-01    0.60       1.0  T
   5    -42.2312388 -0.177560E-01  0.212E-01    1.07       1.0  T
   6    -42.2329847 -0.174583E-02  0.397E-02    0.96       1.0  T
   7    -42.2330032 -0.185247E-04  0.224E-02    0.97       1.0  T
   8    -42.2330072 -0.398810E-05  0.951E-03    0.97       2.1  T
   9    -42.2330088 -0.165167E-05  0.399E-03    0.97       5.0  T
  10    -42.2330091 -0.262761E-06  0.186E-03    0.97      10.7  T
  11    -42.2330092 -0.849276E-07  0.775E-04    0.97      25.8  T
  12    -42.2330092  0.395026E-09  0.415E-04    0.97      48.1  T
     SCC iter.                  ...        0 min,  0.017 sec
     gradient                   ...        0 min,  0.011 sec
 * total energy  :   -41.3209565 Eh     change       -0.1076066E+01 Eh
   gradient norm :     0.9615496 Eh/α   predicted    -0.1107305E+01 (   2.90%)
   displ. norm   :     0.5328288 α      lambda       -0.5078680E+00
   maximum displ.:     0.3808756 α      in ANC's #69, #60, #41, ...

........................................................................
.............................. CYCLE    6 ..............................
........................................................................

 iter      E             dE          RMSdq      gap      omega  full diag
   1    -42.1691023 -0.421691E+02  0.109E+00    0.47       0.0  T
   2    -42.1639775  0.512486E-02  0.958E-01    0.78       1.0  T
   3    -42.1867485 -0.227711E-01  0.403E-01    0.51       1.0  T
   4    -42.1872096 -0.461046E-03  0.239E-01    0.72       1.0  T
   5    -42.1857403  0.146932E-02  0.267E-01    0.47       1.0  T
   6    -42.1890723 -0.333201E-02  0.519E-02    0.63       1.0  T
   7    -42.1891716 -0.993242E-04  0.211E-02    0.60       1.0  T
   8    -42.1891789 -0.733943E-05  0.885E-03    0.60       2.3  T
   9    -42.1891800 -0.102515E-05  0.282E-03    0.60       7.1  T
  10    -42.1891802 -0.197501E-06  0.103E-03    0.60      19.5  T
  11    -42.1891802  0.391389E-08  0.801E-04    0.60      25.0  T
  12    -42.1891802 -0.149293E-07  0.253E-04    0.60      78.9  T
     SCC iter.                  ...        0 min,  0.017 sec
     gradient                   ...        0 min,  0.011 sec
 * total energy  :   -41.6300480 Eh     change       -0.3090915E+00 Eh
   gradient norm :     0.3122777 Eh/α   predicted    -0.3260278E+00 (   5.48%)
   displ. norm   :     0.2084271 α      lambda       -0.5981341E-01
   maximum displ.:     0.0806982 α      in ANC's #69, #8, #41, ...

........................................................................
.............................. CYCLE    7 ..............................
........................................................................

 iter      E             dE          RMSdq      gap      omega  full diag
   1    -42.1912216 -0.421912E+02  0.325E-01    0.49       0.0  T
   2    -42.1903738  0.847860E-03  0.321E-01    0.64       1.0  T
   3    -42.1924745 -0.210074E-02  0.172E-01    0.45       1.0  T
   4    -42.1921845  0.289981E-03  0.177E-01    0.62       1.0  T
   5    -42.1932827 -0.109816E-02  0.600E-02    0.53       1.0  T
   6    -42.1933686 -0.859461E-04  0.307E-02    0.55       1.0  T
   7    -42.1934109 -0.422409E-04  0.895E-03    0.54       2.2  T
   8    -42.1934111 -0.218730E-06  0.540E-03    0.54       3.7  T
   9    -42.1934118 -0.683591E-06  0.135E-03    0.54      14.8  T
  10    -42.1934118 -0.219173E-07  0.658E-04    0.54      30.4  T
  11    -42.1934118 -0.249810E-08  0.243E-04    0.54      82.4  T
     SCC iter.                  ...        0 min,  0.015 sec
     gradient                   ...        0 min,  0.011 sec
 * total energy  :   -41.6753565 Eh     change       -0.4530852E-01 Eh
   gradient norm :     0.2737773 Eh/α   predicted    -0.3121521E-01 ( -31.11%)
   displ. norm   :     0.3327852 α      lambda       -0.7136840E-01
   maximum displ.:     0.1143164 α      in ANC's #8, #16, #17, ...

........................................................................
.............................. CYCLE    8 ..............................
........................................................................

 iter      E             dE          RMSdq      gap      omega  full diag
   1    -42.2134849 -0.422135E+02  0.440E-01    0.50       0.0  T
   2    -42.2126587  0.826165E-03  0.390E-01    0.65       1.0  T
   3    -42.2142352 -0.157648E-02  0.248E-01    0.41       1.0  T
   4    -42.2137920  0.443181E-03  0.286E-01    0.68       1.0  T
   5    -42.2166393 -0.284730E-02  0.526E-02    0.55       1.0  T
   6    -42.2166790 -0.397088E-04  0.308E-02    0.55       1.0  T
   7    -42.2167048 -0.258030E-04  0.902E-03    0.54       2.2  T
   8    -42.2167056 -0.799851E-06  0.225E-03    0.54       8.9  T
   9    -42.2167056 -0.466779E-07  0.156E-03    0.54      12.8  T
  10    -42.2167057 -0.196934E-07  0.553E-04    0.54      36.2  T
  11    -42.2167057 -0.813762E-08  0.341E-04    0.54      58.7  T
     SCC iter.                  ...        0 min,  0.016 sec
     gradient                   ...        0 min,  0.011 sec
 * total energy  :   -41.7304695 Eh     change       -0.5511303E-01 Eh
   gradient norm :     0.2644854 Eh/α   predicted    -0.3963788E-01 ( -28.08%)
   displ. norm   :     0.4173772 α      lambda       -0.7060033E-01
   maximum displ.:     0.1510160 α      in ANC's #16, #8, #17, ...

........................................................................
.............................. CYCLE    9 ..............................
........................................................................

 iter      E             dE          RMSdq      gap      omega  full diag
   1    -42.2437637 -0.422438E+02  0.506E-01    0.52       0.0  T
   2    -42.2411946  0.256906E-02  0.446E-01    0.69       1.0  T
   3    -42.2436273 -0.243275E-02  0.286E-01    0.43       1.0  T
   4    -42.2442405 -0.613186E-03  0.298E-01    0.72       1.0  T
   5    -42.2467556 -0.251503E-02  0.782E-02    0.57       1.0  T
   6    -42.2469240 -0.168393E-03  0.391E-02    0.59       1.0  T
   7    -42.2469580 -0.340575E-04  0.151E-02    0.57       1.3  T
   8    -42.2469631 -0.509186E-05  0.477E-03    0.57       4.2  T
   9    -42.2469635 -0.436962E-06  0.179E-03    0.57      11.1  T
  10    -42.2469635  0.552092E-10  0.935E-04    0.57      21.4  T
  11    -42.2469636 -0.284477E-07  0.250E-04    0.57      80.0  T
     SCC iter.                  ...        0 min,  0.015 sec
     gradient                   ...        0 min,  0.011 sec
 * total energy  :   -41.7819771 Eh     change       -0.5150758E-01 Eh
   gradient norm :     0.2074672 Eh/α   predicted    -0.4144995E-01 ( -19.53%)
   displ. norm   :     0.3424962 α      lambda       -0.3940625E-01
   maximum displ.:     0.1275674 α      in ANC's #16, #8, #17, ...

........................................................................
.............................. CYCLE   10 ..............................
........................................................................

 iter      E             dE          RMSdq      gap      omega  full diag
   1    -42.2645252 -0.422645E+02  0.398E-01    0.50       0.0  T
   2    -42.2624310  0.209421E-02  0.359E-01    0.67       1.0  T
   3    -42.2643215 -0.189049E-02  0.229E-01    0.44       1.0  T
   4    -42.2650325 -0.711047E-03  0.201E-01    0.66       1.0  T
   5    -42.2660982 -0.106570E-02  0.524E-02    0.55       1.0  T
   6    -42.2661853 -0.871304E-04  0.205E-02    0.56       1.0  T
   7    -42.2661921 -0.676806E-05  0.971E-03    0.56       2.1  T
   8    -42.2661938 -0.171596E-05  0.356E-03    0.55       5.6  T
   9    -42.2661940 -0.225766E-06  0.114E-03    0.55      17.6  T
  10    -42.2661940 -0.439328E-08  0.593E-04    0.55      33.7  T
  11    -42.2661941 -0.966947E-08  0.193E-04    0.55     103.6  T
     SCC iter.                  ...        0 min,  0.016 sec
     gradient                   ...        0 min,  0.011 sec
 * total energy  :   -41.8091515 Eh     change       -0.2717434E-01 Eh
   gradient norm :     0.1763017 Eh/α   predicted    -0.2201437E-01 ( -18.99%)
   displ. norm   :     0.2439081 α      lambda       -0.2104098E-01
   maximum displ.:     0.0908228 α      in ANC's #16, #17, #36, ...

........................................................................
.............................. CYCLE   11 ..............................
........................................................................

 iter      E             dE          RMSdq      gap      omega  full diag
   1    -42.2770014 -0.422770E+02  0.279E-01    0.48       0.0  T
   2    -42.2764421  0.559270E-03  0.243E-01    0.61       1.0  T
   3    -42.2767678 -0.325713E-03  0.173E-01    0.43       1.0  T
   4    -42.2772693 -0.501487E-03  0.117E-01    0.59       1.0  T
   5    -42.2776700 -0.400643E-03  0.334E-02    0.52       1.0  T
   6    -42.2777003 -0.303564E-04  0.111E-02    0.52       1.8  T
   7    -42.2777028 -0.253511E-05  0.638E-03    0.52       3.1  T
   8    -42.2777037 -0.841310E-06  0.298E-03    0.52       6.7  T
   9    -42.2777038 -0.156643E-06  0.723E-04    0.52      27.7  T
  10    -42.2777039 -0.828214E-08  0.392E-04    0.52      51.0  T
     SCC iter.                  ...        0 min,  0.014 sec
     gradient                   ...        0 min,  0.011 sec
 * total energy  :   -41.8252755 Eh     change       -0.1612405E-01 Eh
   gradient norm :     0.1735688 Eh/α   predicted    -0.1114651E-01 ( -30.87%)
   displ. norm   :     0.2882097 α      lambda       -0.2501597E-01
   maximum displ.:     0.1053781 α      in ANC's #16, #17, #36, ...

........................................................................
.............................. CYCLE   12 ..............................
........................................................................

 iter      E             dE          RMSdq      gap      omega  full diag
   1    -42.2905613 -0.422906E+02  0.336E-01    0.50       0.0  T
   2    -42.2910852 -0.523887E-03  0.231E-01    0.54       1.0  T
   3    -42.2911994 -0.114196E-03  0.153E-01    0.45       1.0  T
   4    -42.2905880  0.611440E-03  0.167E-01    0.61       1.0  T
   5    -42.2915825 -0.994500E-03  0.357E-02    0.49       1.0  T
   6    -42.2916342 -0.517842E-04  0.994E-03    0.51       2.0  T
   7    -42.2916359 -0.165412E-05  0.489E-03    0.51       4.1  T
   8    -42.2916360 -0.752239E-07  0.326E-03    0.51       6.1  T
   9    -42.2916363 -0.309385E-06  0.777E-04    0.51      25.7  T
  10    -42.2916363 -0.933430E-08  0.445E-04    0.51      45.0  T
     SCC iter.                  ...        0 min,  0.014 sec
     gradient                   ...        0 min,  0.011 sec
 * total energy  :   -41.8436710 Eh     change       -0.1839547E-01 Eh
   gradient norm :     0.1541873 Eh/α   predicted    -0.1354696E-01 ( -26.36%)
   displ. norm   :     0.2644839 α      lambda       -0.2033881E-01
   maximum displ.:     0.0919168 α      in ANC's #16, #17, #12, ...

........................................................................
.............................. CYCLE   13 ..............................
........................................................................

 iter      E             dE          RMSdq      gap      omega  full diag
   1    -42.3049312 -0.423049E+02  0.340E-01    0.62       0.0  T
   2    -42.3036933  0.123792E-02  0.280E-01    0.42       1.0  T
   3    -42.3040913 -0.398064E-03  0.266E-01    0.69       1.0  T
   4    -42.3062481 -0.215676E-02  0.968E-02    0.53       1.0  T
   5    -42.3063543 -0.106198E-03  0.377E-02    0.55       1.0  T
   6    -42.3064045 -0.502691E-04  0.167E-02    0.54       1.2  T
   7    -42.3064119 -0.737207E-05  0.509E-03    0.55       3.9  T
   8    -42.3064120 -0.465981E-07  0.309E-03    0.55       6.5  T
   9    -42.3064122 -0.220905E-06  0.791E-04    0.55      25.3  T
  10    -42.3064122 -0.877271E-08  0.355E-04    0.55      56.3  T
     SCC iter.                  ...        0 min,  0.014 sec
     gradient                   ...        0 min,  0.011 sec
 * total energy  :   -41.8582716 Eh     change       -0.1460066E-01 Eh
   gradient norm :     0.1218673 Eh/α   predicted    -0.1088084E-01 ( -25.48%)
   displ. norm   :     0.2097220 α      lambda       -0.1384245E-01
   maximum displ.:     0.0761932 α      in ANC's #12, #17, #41, ...

........................................................................
.............................. CYCLE   14 ..............................
........................................................................

 iter      E             dE          RMSdq      gap      omega  full diag
   1    -42.3212735 -0.423213E+02  0.343E-01    0.76       0.0  T
   2    -42.3121838  0.908970E-02  0.528E-01    0.33       1.0  T
   3    -42.3231517 -0.109679E-01  0.170E-01    0.70       1.0  T
   4    -42.3236896 -0.537872E-03  0.779E-02    0.62       1.0  T
   5    -42.3237440 -0.543790E-04  0.376E-02    0.62       1.0  T
   6    -42.3237919 -0.479195E-04  0.146E-02    0.61       1.4  T
   7    -42.3237966 -0.467747E-05  0.620E-03    0.62       3.2  T
   8    -42.3237970 -0.459602E-06  0.287E-03    0.62       7.0  T
   9    -42.3237973 -0.203324E-06  0.984E-04    0.62      20.3  T
  10    -42.3237973 -0.146650E-07  0.424E-04    0.62      47.2  T
     SCC iter.                  ...        0 min,  0.015 sec
     gradient                   ...        0 min,  0.011 sec
 * total energy  :   -41.8676828 Eh     change       -0.9411114E-02 Eh
   gradient norm :     0.1008761 Eh/α   predicted    -0.7225668E-02 ( -23.22%)
   displ. norm   :     0.1272154 α      lambda       -0.7001152E-02
   maximum displ.:     0.0547729 α      in ANC's #12, #41, #17, ...

........................................................................
.............................. CYCLE   15 ..............................
........................................................................

 iter      E             dE          RMSdq      gap      omega  full diag
   1    -42.3378084 -0.423378E+02  0.210E-01    0.75       0.0  T
   2    -42.3335420  0.426642E-02  0.368E-01    0.46       1.0  T
   3    -42.3387174 -0.517543E-02  0.845E-02    0.69       1.0  T
   4    -42.3387470 -0.295295E-04  0.510E-02    0.64       1.0  T
   5    -42.3387867 -0.396972E-04  0.239E-02    0.66       1.0  T
   6    -42.3388059 -0.192248E-04  0.812E-03    0.66       2.5  T
   7    -42.3388067 -0.834621E-06  0.468E-03    0.66       4.3  T
   8    -42.3388071 -0.379318E-06  0.184E-03    0.66      10.9  T
   9    -42.3388072 -0.838318E-07  0.595E-04    0.66      33.6  T
  10    -42.3388072 -0.396440E-08  0.194E-04    0.66     103.1  T
     SCC iter.                  ...        0 min,  0.014 sec
     gradient                   ...        0 min,  0.011 sec
 * total energy  :   -41.8727352 Eh     change       -0.5052464E-02 Eh
   gradient norm :     0.0956381 Eh/α   predicted    -0.3557241E-02 ( -29.59%)
   displ. norm   :     0.1359411 α      lambda       -0.6643306E-02
   maximum displ.:     0.0640706 α      in ANC's #12, #41, #1, ...

........................................................................
.............................. CYCLE   16 ..............................
........................................................................

 iter      E             dE          RMSdq      gap      omega  full diag
   1    -42.3561675 -0.423562E+02  0.171E-01    0.69       0.0  T
   2    -42.3558278  0.339722E-03  0.161E-01    0.61       1.0  T
   3    -42.3560381 -0.210324E-03  0.115E-01    0.73       1.0  T
   4    -42.3562738 -0.235655E-03  0.691E-02    0.63       1.0  T
   5    -42.3564118 -0.138004E-03  0.219E-02    0.67       1.0  T
   6    -42.3564264 -0.146569E-04  0.833E-03    0.67       2.4  T
   7    -42.3564278 -0.134912E-05  0.398E-03    0.67       5.0  T
   8    -42.3564280 -0.246345E-06  0.150E-03    0.67      13.3  T
   9    -42.3564281 -0.571842E-07  0.414E-04    0.67      48.3  T
  10    -42.3564281 -0.125573E-08  0.199E-04    0.67     100.6  T
     SCC iter.                  ...        0 min,  0.014 sec
     gradient                   ...        0 min,  0.011 sec
 * total energy  :   -41.8777130 Eh     change       -0.4977763E-02 Eh
   gradient norm :     0.0950304 Eh/α   predicted    -0.3383299E-02 ( -32.03%)
   displ. norm   :     0.1963718 α      lambda       -0.8011043E-02
   maximum displ.:     0.0950351 α      in ANC's #12, #1, #41, ...

........................................................................
.............................. CYCLE   17 ..............................
........................................................................

 iter      E             dE          RMSdq      gap      omega  full diag
   1    -42.3764902 -0.423765E+02  0.241E-01    0.60       0.0  T
   2    -42.3754743  0.101594E-02  0.221E-01    0.76       1.0  T
   3    -42.3757395 -0.265239E-03  0.203E-01    0.55       1.0  T
   4    -42.3769006 -0.116105E-02  0.510E-02    0.65       1.0  T
   5    -42.3769389 -0.383278E-04  0.184E-02    0.65       1.1  T
   6    -42.3769462 -0.726554E-05  0.863E-03    0.65       2.3  T
   7    -42.3769477 -0.150397E-05  0.428E-03    0.65       4.7  T
   8    -42.3769480 -0.345839E-06  0.129E-03    0.65      15.5  T
   9    -42.3769481 -0.332576E-07  0.349E-04    0.65      57.3  T
  10    -42.3769481 -0.432742E-09  0.212E-04    0.65      94.2  T
     SCC iter.                  ...        0 min,  0.014 sec
     gradient                   ...        0 min,  0.011 sec
 * total energy  :   -41.8834093 Eh     change       -0.5696330E-02 Eh
   gradient norm :     0.0947707 Eh/α   predicted    -0.4160056E-02 ( -26.97%)
   displ. norm   :     0.2541117 α      lambda       -0.7355255E-02
   maximum displ.:     0.1509789 α      in ANC's #1, #12, #36, ...

........................................................................
.............................. CYCLE   18 ..............................
........................................................................

 iter      E             dE          RMSdq      gap      omega  full diag
   1    -42.3909328 -0.423909E+02  0.296E-01    0.54       0.0  T
   2    -42.3875319  0.340091E-02  0.351E-01    0.80       1.0  T
   3    -42.3908442 -0.331234E-02  0.199E-01    0.53       1.0  T
   4    -42.3917082 -0.863969E-03  0.493E-02    0.61       1.0  T
   5    -42.3917507 -0.424454E-04  0.218E-02    0.61       1.0  T
   6    -42.3917664 -0.157336E-04  0.823E-03    0.62       2.4  T
   7    -42.3917673 -0.903053E-06  0.396E-03    0.61       5.0  T
   8    -42.3917675 -0.235170E-06  0.159E-03    0.62      12.6  T
   9    -42.3917676 -0.646582E-07  0.507E-04    0.62      39.5  T
  10    -42.3917676 -0.285052E-08  0.263E-04    0.61      75.9  T
     SCC iter.                  ...        0 min,  0.014 sec
     gradient                   ...        0 min,  0.011 sec
 * total energy  :   -41.8882953 Eh     change       -0.4886007E-02 Eh
   gradient norm :     0.0896654 Eh/α   predicted    -0.3915284E-02 ( -19.87%)
   displ. norm   :     0.3107593 α      lambda       -0.7309807E-02
   maximum displ.:     0.2237969 α      in ANC's #1, #12, #2, ...

........................................................................
.............................. CYCLE   19 ..............................
........................................................................

 iter      E             dE          RMSdq      gap      omega  full diag
   1    -42.3976165 -0.423976E+02  0.327E-01    0.51       0.0  T
   2    -42.3935253  0.409120E-02  0.396E-01    0.79       1.0  T
   3    -42.3976912 -0.416594E-02  0.206E-01    0.50       1.0  T
   4    -42.3984715 -0.780239E-03  0.727E-02    0.60       1.0  T
   5    -42.3985851 -0.113684E-03  0.321E-02    0.58       1.0  T
   6    -42.3986199 -0.347533E-04  0.938E-03    0.59       2.1  T
   7    -42.3986210 -0.113643E-05  0.468E-03    0.59       4.3  T
   8    -42.3986213 -0.226522E-06  0.169E-03    0.59      11.9  T
   9    -42.3986213 -0.640336E-07  0.593E-04    0.59      33.7  T
  10    -42.3986213 -0.350745E-08  0.269E-04    0.59      74.5  T
     SCC iter.                  ...        0 min,  0.014 sec
     gradient                   ...        0 min,  0.011 sec
 * total energy  :   -41.8928451 Eh     change       -0.4549772E-02 Eh
   gradient norm :     0.0965026 Eh/α   predicted    -0.4007888E-02 ( -11.91%)
   displ. norm   :     0.1911308 α      lambda       -0.6178009E-02
   maximum displ.:     0.0993478 α      in ANC's #12, #1, #36, ...

........................................................................
.............................. CYCLE   20 ..............................
........................................................................

 iter      E             dE          RMSdq      gap      omega  full diag
   1    -42.4008071 -0.424008E+02  0.234E-01    0.55       0.0  T
   2    -42.4004326  0.374477E-03  0.193E-01    0.64       1.0  T
   3    -42.4002665  0.166102E-03  0.177E-01    0.50       1.0  T
   4    -42.4010382 -0.771727E-03  0.945E-02    0.62       1.0  T
   5    -42.4012285 -0.190303E-03  0.347E-02    0.57       1.0  T
   6    -42.4012692 -0.407142E-04  0.113E-02    0.58       1.8  T
   7    -42.4012723 -0.306433E-05  0.371E-03    0.58       5.4  T
   8    -42.4012723  0.180513E-08  0.194E-03    0.58      10.3  T
   9    -42.4012724 -0.117436E-06  0.555E-04    0.58      36.1  T
  10    -42.4012724 -0.427237E-08  0.231E-04    0.58      86.6  T
     SCC iter.                  ...        0 min,  0.014 sec
     gradient                   ...        0 min,  0.011 sec
 * total energy  :   -41.8977573 Eh     change       -0.4912190E-02 Eh
   gradient norm :     0.1111890 Eh/α   predicted    -0.3202165E-02 ( -34.81%)
   displ. norm   :     0.3240664 α      lambda       -0.1307907E-01
   maximum displ.:     0.1932053 α      in ANC's #12, #36, #6, ...
 * RMSD in coord.:     0.9250546 α      energy gain  -0.1038163E+02 Eh

generating ANC from model Hessian ...
Using Lindh-Hessian (1995)
 Shifting diagonal of input Hessian by    1.1000835762519444E-002
 Lowest  eigenvalues of input Hessian
    0.010000    0.010895    0.000000    0.000000    0.000000    0.000000
    0.000000    0.000000    0.011195    0.011920    0.013024    0.013189
    0.014777    0.016752    0.017682    0.019191    0.022444    0.023837
 Highest eigenvalues
    2.094083    2.105314    2.114667    2.190276    2.288081    3.251975


........................................................................
.............................. CYCLE   21 ..............................
........................................................................

 iter      E             dE          RMSdq      gap      omega  full diag
   1    -42.4027029 -0.424027E+02  0.437E-01    0.56       0.0  T
   2    -42.4031210 -0.418085E-03  0.274E-01    0.63       1.0  T
   3    -42.4018877  0.123327E-02  0.268E-01    0.48       1.0  T
   4    -42.4029014 -0.101374E-02  0.204E-01    0.68       1.0  T
   5    -42.4040191 -0.111768E-02  0.606E-02    0.56       1.0  T
   6    -42.4041366 -0.117525E-03  0.221E-02    0.59       1.0  T
   7    -42.4041497 -0.130325E-04  0.643E-03    0.59       3.1  T
   8    -42.4041499 -0.202548E-06  0.289E-03    0.58       6.9  T
   9    -42.4041501 -0.213950E-06  0.885E-04    0.58      22.6  T
  10    -42.4041501 -0.915044E-08  0.433E-04    0.58      46.2  T
     SCC iter.                  ...        0 min,  0.014 sec
     gradient                   ...        0 min,  0.011 sec
 * total energy  :   -41.9083191 Eh     change       -0.1056185E-01 Eh
   gradient norm :     0.1455709 Eh/α   predicted     0.0000000E+00 (-100.00%)
   displ. norm   :     0.4953167 α      lambda       -0.3572246E-01
   maximum displ.:     0.3112585 α      in ANC's #17, #2, #27, ...

........................................................................
.............................. CYCLE   22 ..............................
........................................................................

 iter      E             dE          RMSdq      gap      omega  full diag
   1    -42.4235785 -0.424236E+02  0.981E-01    0.56       0.0  T
   2    -42.4238584 -0.279919E-03  0.595E-01    0.52       1.0  T
   3    -42.4150406  0.881776E-02  0.524E-01    0.81       1.0  T
   4    -42.4226097 -0.756910E-02  0.228E-01    0.45       1.0  T
   5    -42.4246272 -0.201747E-02  0.431E-02    0.59       1.0  T
   6    -42.4246914 -0.642388E-04  0.166E-02    0.57       1.2  T
   7    -42.4246953 -0.392325E-05  0.908E-03    0.58       2.2  T
   8    -42.4246959 -0.587961E-06  0.504E-03    0.58       4.0  T
   9    -42.4246965 -0.532214E-06  0.206E-03    0.58       9.7  T
  10    -42.4246966 -0.944793E-07  0.770E-04    0.58      26.0  T
  11    -42.4246966 -0.888036E-08  0.380E-04    0.58      52.6  T
     SCC iter.                  ...        0 min,  0.016 sec
     gradient                   ...        0 min,  0.011 sec
 * total energy  :   -41.9434770 Eh     change       -0.3515792E-01 Eh
   gradient norm :     0.1245870 Eh/α   predicted    -0.2224329E-01 ( -36.73%)
   displ. norm   :     0.8939107 α      lambda       -0.8737564E-01
   maximum displ.:     0.4351922 α      in ANC's #17, #43, #27, ...

........................................................................
.............................. CYCLE   23 ..............................
........................................................................

 iter      E             dE          RMSdq      gap      omega  full diag
   1    -42.4128927 -0.424129E+02  0.177E+00    1.07       0.0  T
   2    -42.3638295  0.490632E-01  0.160E+00    0.19       1.0  T
   3    -42.3811901 -0.173606E-01  0.136E+00    1.53       1.0  T
   4    -42.4333257 -0.521355E-01  0.318E-01    0.77       1.0  T
   5    -42.4347070 -0.138134E-02  0.782E-02    0.81       1.0  T
   6    -42.4347766 -0.695989E-04  0.467E-02    0.81       1.0  T
   7    -42.4347837 -0.705246E-05  0.253E-02    0.81       1.0  T
   8    -42.4347986 -0.149730E-04  0.110E-02    0.82       1.8  T
   9    -42.4348024 -0.380519E-05  0.284E-03    0.82       7.0  T
  10    -42.4348026 -0.121556E-06  0.136E-03    0.82      14.7  T
  11    -42.4348026  0.316339E-08  0.771E-04    0.82      25.9  T
  12    -42.4348026 -0.151583E-07  0.211E-04    0.82      95.0  T
     SCC iter.                  ...        0 min,  0.017 sec
     gradient                   ...        0 min,  0.011 sec
 * total energy  :   -42.0020340 Eh     change       -0.5855695E-01 Eh
   gradient norm :     0.2333784 Eh/α   predicted    -0.7859774E-01 (  34.22%)
   displ. norm   :     0.5228720 α      lambda       -0.3189420E-01
   maximum displ.:     0.3381695 α      in ANC's #13, #17, #9, ...

........................................................................
.............................. CYCLE   24 ..............................
........................................................................

 iter      E             dE          RMSdq      gap      omega  full diag
   1    -42.4241490 -0.424241E+02  0.108E+00    1.81       0.0  T
   2    -42.3115446  0.112604E+00  0.206E+00    0.31       1.0  T
   3    -42.4750488 -0.163504E+00  0.386E-01    0.85       1.0  T
   4    -42.4722171  0.283171E-02  0.389E-01    0.73       1.0  T
   5    -42.4736115 -0.139440E-02  0.251E-01    0.74       1.0  T
   6    -42.4755144 -0.190290E-02  0.738E-02    0.85       1.0  T
   7    -42.4757016 -0.187255E-03  0.214E-02    0.87       1.0  T
   8    -42.4757066 -0.495217E-05  0.150E-02    0.87       1.3  T
   9    -42.4757085 -0.188106E-05  0.560E-03    0.87       3.6  T
  10    -42.4757090 -0.522339E-06  0.140E-03    0.88      14.3  T
  11    -42.4757090 -0.101863E-07  0.698E-04    0.88      28.7  T
  12    -42.4757090  0.106811E-08  0.432E-04    0.88      46.3  T
     SCC iter.                  ...        0 min,  0.017 sec
     gradient                   ...        0 min,  0.011 sec
 * total energy  :   -41.9880426 Eh     change        0.1399138E-01 Eh
   gradient norm :     0.3726483 Eh/α   predicted    -0.2030701E-01 (-245.14%)
   displ. norm   :     0.4988633 α      lambda       -0.8120737E-01
   maximum displ.:     0.3971832 α      in ANC's #17, #2, #18, ...

........................................................................
.............................. CYCLE   25 ..............................
........................................................................

 iter      E             dE          RMSdq      gap      omega  full diag
   1    -42.4849193 -0.424849E+02  0.771E-01    0.79       0.0  T
   2    -42.4681002  0.168191E-01  0.100E+00    1.69       1.0  T
   3    -42.4957677 -0.276675E-01  0.401E-01    1.05       1.0  T
   4    -42.4942974  0.147034E-02  0.292E-01    1.20       1.0  T
   5    -42.4960400 -0.174263E-02  0.933E-02    1.07       1.0  T
   6    -42.4963300 -0.290025E-03  0.301E-02    1.07       1.0  T
   7    -42.4963501 -0.200382E-04  0.103E-02    1.08       1.9  T
   8    -42.4963510 -0.930280E-06  0.372E-03    1.08       5.4  T
   9    -42.4963513 -0.298399E-06  0.194E-03    1.08      10.3  T
  10    -42.4963514 -0.581993E-07  0.879E-04    1.08      22.7  T
  11    -42.4963514 -0.217171E-07  0.250E-04    1.08      79.9  T
     SCC iter.                  ...        0 min,  0.015 sec
     gradient                   ...        0 min,  0.011 sec
 * total energy  :   -42.0267774 Eh     change       -0.3873480E-01 Eh
   gradient norm :     0.1094354 Eh/α   predicted    -0.5070863E-01 (  30.91%)
   displ. norm   :     0.6658074 α      lambda       -0.3104059E-01
   maximum displ.:     0.5054219 α      in ANC's #13, #17, #27, ...

........................................................................
.............................. CYCLE   26 ..............................
........................................................................

 iter      E             dE          RMSdq      gap      omega  full diag
   1    -42.4776527 -0.424777E+02  0.677E-01    0.61       0.0  T
   2    -42.4406568  0.369958E-01  0.121E+00    1.65       1.0  T
   3    -42.4893233 -0.486664E-01  0.428E-01    1.05       1.0  T
   4    -42.4905041 -0.118082E-02  0.144E-01    0.89       1.0  T
   5    -42.4909020 -0.397869E-03  0.508E-02    0.91       1.0  T
   6    -42.4909645 -0.625593E-04  0.265E-02    0.93       1.0  T
   7    -42.4909758 -0.112854E-04  0.134E-02    0.93       1.5  T
   8    -42.4909773 -0.146381E-05  0.743E-03    0.92       2.7  T
   9    -42.4909791 -0.187399E-05  0.201E-03    0.92       9.9  T
  10    -42.4909791 -0.976009E-09  0.121E-03    0.92      16.5  T
  11    -42.4909792 -0.280876E-07  0.321E-04    0.92      62.3  T
  12    -42.4909792 -0.119380E-08  0.151E-04    0.92     132.3  T
     SCC iter.                  ...        0 min,  0.017 sec
     gradient                   ...        0 min,  0.011 sec
 * total energy  :   -42.0195507 Eh     change        0.7226671E-02 Eh
   gradient norm :     0.1271361 Eh/α   predicted    -0.2240045E-01 (-409.97%)
   displ. norm   :     0.3251603 α      lambda       -0.2915658E-01
   maximum displ.:     0.1511523 α      in ANC's #13, #43, #10, ...

........................................................................
.............................. CYCLE   27 ..............................
........................................................................

 iter      E             dE          RMSdq      gap      omega  full diag
   1    -42.4973054 -0.424973E+02  0.548E-01    1.36       0.0  T
   2    -42.4598435  0.374619E-01  0.111E+00    0.47       1.0  T
   3    -42.5062790 -0.464355E-01  0.240E-01    1.04       1.0  T
   4    -42.5057867  0.492333E-03  0.157E-01    1.00       1.0  T
   5    -42.5063096 -0.522910E-03  0.591E-02    1.03       1.0  T
   6    -42.5064137 -0.104083E-03  0.275E-02    1.06       1.0  T
   7    -42.5064369 -0.232051E-04  0.827E-03    1.06       2.4  T
   8    -42.5064372 -0.299130E-06  0.503E-03    1.07       4.0  T
   9    -42.5064376 -0.401839E-06  0.252E-03    1.06       7.9  T
  10    -42.5064377 -0.177229E-06  0.799E-04    1.06      25.0  T
  11    -42.5064377 -0.711713E-08  0.307E-04    1.06      65.1  T
     SCC iter.                  ...        0 min,  0.015 sec
     gradient                   ...        0 min,  0.011 sec
 * total energy  :   -42.0398861 Eh     change       -0.2033532E-01 Eh
   gradient norm :     0.0560955 Eh/α   predicted    -0.1611967E-01 ( -20.73%)
   displ. norm   :     0.4176416 α      lambda       -0.1302530E-01
   maximum displ.:     0.2385117 α      in ANC's #13, #10, #17, ...

........................................................................
.............................. CYCLE   28 ..............................
........................................................................

 iter      E             dE          RMSdq      gap      omega  full diag
   1    -42.5270589 -0.425271E+02  0.563E-01    1.64       0.0  T
   2    -42.4714851  0.555738E-01  0.135E+00    0.47       1.0  T
   3    -42.5405428 -0.690578E-01  0.228E-01    1.16       1.0  T
   4    -42.5398552  0.687618E-03  0.195E-01    1.14       1.0  T
   5    -42.5407316 -0.876367E-03  0.938E-02    1.17       1.0  T
   6    -42.5409811 -0.249485E-03  0.395E-02    1.21       1.0  T
   7    -42.5410295 -0.483926E-04  0.990E-03    1.22       2.0  T
   8    -42.5410307 -0.120782E-05  0.417E-03    1.22       4.8  T
   9    -42.5410309 -0.287424E-06  0.129E-03    1.23      15.5  T
  10    -42.5410310 -0.144272E-07  0.613E-04    1.23      32.6  T
  11    -42.5410310 -0.354665E-08  0.219E-04    1.23      91.2  T
     SCC iter.                  ...        0 min,  0.016 sec
     gradient                   ...        0 min,  0.011 sec
 * total energy  :   -42.0438990 Eh     change       -0.4012889E-02 Eh
   gradient norm :     0.0424513 Eh/α   predicted    -0.7648618E-02 (  90.60%)
   displ. norm   :     0.2900428 α      lambda       -0.5689159E-02
   maximum displ.:     0.1523174 α      in ANC's #13, #9, #10, ...

........................................................................
.............................. CYCLE   29 ..............................
........................................................................

 iter      E             dE          RMSdq      gap      omega  full diag
   1    -42.5324671 -0.425325E+02  0.201E-01    1.10       0.0  T
   2    -42.5286945  0.377262E-02  0.381E-01    1.44       1.0  T
   3    -42.5334413 -0.474682E-02  0.123E-01    1.25       1.0  T
   4    -42.5335448 -0.103427E-03  0.410E-02    1.21       1.0  T
   5    -42.5335776 -0.328039E-04  0.128E-02    1.21       1.6  T
   6    -42.5335823 -0.471353E-05  0.425E-03    1.21       4.7  T
   7    -42.5335826 -0.297199E-06  0.227E-03    1.21       8.8  T
   8    -42.5335827 -0.841518E-07  0.115E-03    1.21      17.4  T
   9    -42.5335827 -0.332688E-07  0.376E-04    1.21      53.2  T
  10    -42.5335827  0.164030E-08  0.304E-04    1.21      65.7  T
     SCC iter.                  ...        0 min,  0.014 sec
     gradient                   ...        0 min,  0.011 sec
 * total energy  :   -42.0477279 Eh     change       -0.3828907E-02 Eh
   gradient norm :     0.0201994 Eh/α   predicted    -0.3083882E-02 ( -19.46%)
   displ. norm   :     0.4192877 α      lambda       -0.3091350E-02
   maximum displ.:     0.2485871 α      in ANC's #10, #2, #9, ...

........................................................................
.............................. CYCLE   30 ..............................
........................................................................

 iter      E             dE          RMSdq      gap      omega  full diag
   1    -42.5325304 -0.425325E+02  0.216E-01    1.32       0.0  T
   2    -42.5310210  0.150940E-02  0.223E-01    1.11       1.0  T
   3    -42.5323474 -0.132640E-02  0.157E-01    1.33       1.0  T
   4    -42.5329887 -0.641259E-03  0.411E-02    1.25       1.0  T
   5    -42.5330200 -0.313254E-04  0.152E-02    1.25       1.3  T
   6    -42.5330298 -0.980401E-05  0.434E-03    1.25       4.6  T
   7    -42.5330300 -0.207537E-06  0.232E-03    1.25       8.6  T
   8    -42.5330300 -0.516160E-07  0.109E-03    1.25      18.3  T
   9    -42.5330301 -0.202413E-07  0.399E-04    1.25      50.1  T
  10    -42.5330301 -0.735206E-09  0.212E-04    1.25      94.2  T
     SCC iter.                  ...        0 min,  0.014 sec
     gradient                   ...        0 min,  0.011 sec
 * total energy  :   -42.0498161 Eh     change       -0.2088271E-02 Eh
   gradient norm :     0.0265116 Eh/α   predicted    -0.1817413E-02 ( -12.97%)
   displ. norm   :     0.6751091 α      lambda       -0.4333621E-02
   maximum displ.:     0.4782538 α      in ANC's #10, #9, #13, ...

........................................................................
.............................. CYCLE   31 ..............................
........................................................................

 iter      E             dE          RMSdq      gap      omega  full diag
   1    -42.5120608 -0.425121E+02  0.535E-01    0.91       0.0  T
   2    -42.4947750  0.172859E-01  0.762E-01    1.67       1.0  T
   3    -42.5171876 -0.224126E-01  0.229E-01    1.10       1.0  T
   4    -42.5176353 -0.447765E-03  0.102E-01    1.15       1.0  T
   5    -42.5177429 -0.107525E-03  0.285E-02    1.15       1.0  T
   6    -42.5177670 -0.241486E-04  0.885E-03    1.15       2.3  T
   7    -42.5177686 -0.159680E-05  0.443E-03    1.16       4.5  T
   8    -42.5177690 -0.409593E-06  0.221E-03    1.16       9.1  T
   9    -42.5177692 -0.161525E-06  0.620E-04    1.16      32.2  T
  10    -42.5177692 -0.694556E-08  0.313E-04    1.16      63.8  T
     SCC iter.                  ...        0 min,  0.014 sec
     gradient                   ...        0 min,  0.011 sec
 * total energy  :   -42.0468071 Eh     change        0.3009042E-02 Eh
   gradient norm :     0.0795933 Eh/α   predicted    -0.3154418E-02 (-204.83%)
   displ. norm   :     0.3251256 α      lambda       -0.9002357E-02
   maximum displ.:     0.2548210 α      in ANC's #2, #13, #9, ...

........................................................................
.............................. CYCLE   32 ..............................
........................................................................

 iter      E             dE          RMSdq      gap      omega  full diag
   1    -42.5277419 -0.425277E+02  0.449E-01    1.51       0.0  T
   2    -42.5053683  0.223736E-01  0.796E-01    0.76       1.0  T
   3    -42.5323867 -0.270185E-01  0.187E-01    1.33       1.0  T
   4    -42.5330388 -0.652043E-03  0.715E-02    1.26       1.0  T
   5    -42.5330642 -0.253787E-04  0.213E-02    1.24       1.0  T
   6    -42.5330805 -0.163293E-04  0.757E-03    1.25       2.6  T
   7    -42.5330819 -0.142770E-05  0.266E-03    1.25       7.5  T
   8    -42.5330820 -0.805310E-07  0.129E-03    1.25      15.6  T
   9    -42.5330820 -0.283070E-07  0.536E-04    1.25      37.3  T
  10    -42.5330820 -0.389825E-08  0.237E-04    1.25      84.3  T
     SCC iter.                  ...        0 min,  0.014 sec
     gradient                   ...        0 min,  0.011 sec
 * total energy  :   -42.0519933 Eh     change       -0.5186207E-02 Eh
   gradient norm :     0.0257265 Eh/α   predicted    -0.4976984E-02 (  -4.03%)
   displ. norm   :     0.3147164 α      lambda       -0.2374378E-02
   maximum displ.:     0.1789919 α      in ANC's #2, #11, #8, ...

........................................................................
.............................. CYCLE   33 ..............................
........................................................................

 iter      E             dE          RMSdq      gap      omega  full diag
   1    -42.5365473 -0.425365E+02  0.284E-01    1.40       0.0  T
   2    -42.5332350  0.331224E-02  0.332E-01    1.11       1.0  T
   3    -42.5366180 -0.338302E-02  0.177E-01    1.39       1.0  T
   4    -42.5373282 -0.710144E-03  0.271E-02    1.31       1.0  T
   5    -42.5373422 -0.140400E-04  0.103E-02    1.31       1.9  T
   6    -42.5373458 -0.360823E-05  0.398E-03    1.30       5.0  T
   7    -42.5373461 -0.274538E-06  0.190E-03    1.31      10.5  T
   8    -42.5373461 -0.477672E-07  0.717E-04    1.31      27.9  T
   9    -42.5373462 -0.115146E-07  0.304E-04    1.31      65.7  T
     SCC iter.                  ...        0 min,  0.013 sec
     gradient                   ...        0 min,  0.011 sec
 * total energy  :   -42.0525107 Eh     change       -0.5173613E-03 Eh
   gradient norm :     0.0256689 Eh/α   predicted    -0.1304778E-02 ( 152.20%)
   displ. norm   :     0.3958192 α      lambda       -0.2840326E-02
   maximum displ.:     0.1943244 α      in ANC's #2, #10, #6, ...

........................................................................
.............................. CYCLE   34 ..............................
........................................................................

 iter      E             dE          RMSdq      gap      omega  full diag
   1    -42.5379772 -0.425380E+02  0.252E-01    1.45       0.0  T
   2    -42.5345479  0.342939E-02  0.330E-01    1.16       1.0  T
   3    -42.5384038 -0.385596E-02  0.142E-01    1.42       1.0  T
   4    -42.5388000 -0.396138E-03  0.338E-02    1.36       1.0  T
   5    -42.5388226 -0.226246E-04  0.763E-03    1.36       2.6  T
   6    -42.5388235 -0.869865E-06  0.370E-03    1.36       5.4  T
   7    -42.5388235 -0.567907E-07  0.243E-03    1.36       8.2  T
   8    -42.5388237 -0.157795E-06  0.810E-04    1.36      24.7  T
   9    -42.5388237 -0.120330E-07  0.372E-04    1.36      53.7  T
     SCC iter.                  ...        0 min,  0.013 sec
     gradient                   ...        0 min,  0.011 sec
 * total energy  :   -42.0544685 Eh     change       -0.1957882E-02 Eh
   gradient norm :     0.0195273 Eh/α   predicted    -0.1642677E-02 ( -16.10%)
   displ. norm   :     0.5318654 α      lambda       -0.3056313E-02
   maximum displ.:     0.2627022 α      in ANC's #10, #6, #11, ...

........................................................................
.............................. CYCLE   35 ..............................
........................................................................

 iter      E             dE          RMSdq      gap      omega  full diag
   1    -42.5414296 -0.425414E+02  0.219E-01    1.38       0.0  T
   2    -42.5407655  0.664085E-03  0.200E-01    1.25       1.0  T
   3    -42.5409983 -0.232757E-03  0.152E-01    1.42       1.0  T
   4    -42.5416141 -0.615832E-03  0.563E-02    1.31       1.0  T
   5    -42.5417109 -0.967336E-04  0.125E-02    1.34       1.6  T
   6    -42.5417146 -0.373090E-05  0.564E-03    1.34       3.5  T
   7    -42.5417151 -0.470687E-06  0.294E-03    1.34       6.8  T
   8    -42.5417152 -0.147258E-06  0.107E-03    1.34      18.7  T
   9    -42.5417152 -0.145485E-07  0.505E-04    1.34      39.6  T
  10    -42.5417152 -0.125870E-08  0.255E-04    1.34      78.4  T
     SCC iter.                  ...        0 min,  0.014 sec
     gradient                   ...        0 min,  0.011 sec
 * total energy  :   -42.0567355 Eh     change       -0.2266971E-02 Eh
   gradient norm :     0.0305373 Eh/α   predicted    -0.1960448E-02 ( -13.52%)
   displ. norm   :     0.6524937 α      lambda       -0.3444621E-02
   maximum displ.:     0.2970308 α      in ANC's #6, #11, #10, ...

........................................................................
.............................. CYCLE   36 ..............................
........................................................................

 iter      E             dE          RMSdq      gap      omega  full diag
   1    -42.5393500 -0.425394E+02  0.248E-01    1.37       0.0  T
   2    -42.5390384  0.311617E-03  0.179E-01    1.27       1.0  T
   3    -42.5380534  0.984997E-03  0.206E-01    1.47       1.0  T
   4    -42.5394476 -0.139420E-02  0.623E-02    1.31       1.0  T
   5    -42.5395859 -0.138347E-03  0.988E-03    1.34       2.0  T
   6    -42.5395870 -0.102028E-05  0.502E-03    1.34       4.0  T
   7    -42.5395870 -0.251546E-07  0.298E-03    1.34       6.7  T
   8    -42.5395871 -0.120769E-06  0.110E-03    1.34      18.2  T
   9    -42.5395871 -0.889106E-08  0.708E-04    1.34      28.3  T
  10    -42.5395871 -0.860088E-08  0.319E-04    1.34      62.7  T
     SCC iter.                  ...        0 min,  0.014 sec
     gradient                   ...        0 min,  0.011 sec
 * total energy  :   -42.0594643 Eh     change       -0.2728788E-02 Eh
   gradient norm :     0.0456171 Eh/α   predicted    -0.2455589E-02 ( -10.01%)
   displ. norm   :     0.5339134 α      lambda       -0.5105575E-02
   maximum displ.:     0.2552854 α      in ANC's #11, #6, #14, ...

........................................................................
.............................. CYCLE   37 ..............................
........................................................................

 iter      E             dE          RMSdq      gap      omega  full diag
   1    -42.5495681 -0.425496E+02  0.236E-01    1.27       0.0  T
   2    -42.5483755  0.119254E-02  0.245E-01    1.48       1.0  T
   3    -42.5497948 -0.141931E-02  0.141E-01    1.26       1.0  T
   4    -42.5501692 -0.374369E-03  0.802E-02    1.37       1.0  T
   5    -42.5503002 -0.130975E-03  0.355E-02    1.33       1.0  T
   6    -42.5503491 -0.489155E-04  0.575E-03    1.33       3.5  T
   7    -42.5503494 -0.350907E-06  0.341E-03    1.34       5.9  T
   8    -42.5503495 -0.904966E-07  0.135E-03    1.33      14.8  T
   9    -42.5503495 -0.189190E-07  0.537E-04    1.33      37.2  T
  10    -42.5503495 -0.103560E-08  0.284E-04    1.34      70.3  T
     SCC iter.                  ...        0 min,  0.014 sec
     gradient                   ...        0 min,  0.011 sec
 * total energy  :   -42.0626672 Eh     change       -0.3202948E-02 Eh
   gradient norm :     0.0461330 Eh/α   predicted    -0.3280509E-02 (   2.42%)
   displ. norm   :     0.5894651 α      lambda       -0.5224016E-02
   maximum displ.:     0.3359208 α      in ANC's #11, #6, #14, ...

........................................................................
.............................. CYCLE   38 ..............................
........................................................................

 iter      E             dE          RMSdq      gap      omega  full diag
   1    -42.5423068 -0.425423E+02  0.286E-01    1.43       0.0  T
   2    -42.5414818  0.825018E-03  0.213E-01    1.27       1.0  T
   3    -42.5401200  0.136179E-02  0.264E-01    1.54       1.0  T
   4    -42.5425224 -0.240238E-02  0.453E-02    1.37       1.0  T
   5    -42.5425799 -0.575090E-04  0.162E-02    1.38       1.2  T
   6    -42.5425884 -0.844094E-05  0.638E-03    1.37       3.1  T
   7    -42.5425887 -0.315916E-06  0.287E-03    1.37       7.0  T
   8    -42.5425888 -0.124033E-06  0.112E-03    1.37      17.9  T
   9    -42.5425888 -0.114092E-07  0.489E-04    1.37      40.9  T
  10    -42.5425888 -0.117851E-08  0.171E-04    1.37     117.2  T
     SCC iter.                  ...        0 min,  0.014 sec
     gradient                   ...        0 min,  0.011 sec
 * total energy  :   -42.0662307 Eh     change       -0.3563414E-02 Eh
   gradient norm :     0.0469444 Eh/α   predicted    -0.3519602E-02 (  -1.23%)
   displ. norm   :     0.4106301 α      lambda       -0.5359176E-02
   maximum displ.:     0.1983655 α      in ANC's #14, #3, #11, ...

........................................................................
.............................. CYCLE   39 ..............................
........................................................................

 iter      E             dE          RMSdq      gap      omega  full diag
   1    -42.5584497 -0.425584E+02  0.241E-01    1.46       0.0  T
   2    -42.5579319  0.517787E-03  0.188E-01    1.31       1.0  T
   3    -42.5574028  0.529122E-03  0.202E-01    1.53       1.0  T
   4    -42.5586827 -0.127985E-02  0.570E-02    1.39       1.0  T
   5    -42.5587607 -0.780040E-04  0.128E-02    1.41       1.6  T
   6    -42.5587644 -0.377459E-05  0.554E-03    1.40       3.6  T
   7    -42.5587649 -0.413669E-06  0.297E-03    1.40       6.7  T
   8    -42.5587649 -0.808695E-07  0.142E-03    1.40      14.1  T
   9    -42.5587650 -0.587255E-07  0.502E-04    1.40      39.8  T
  10    -42.5587650 -0.183886E-08  0.273E-04    1.40      73.3  T
     SCC iter.                  ...        0 min,  0.014 sec
     gradient                   ...        0 min,  0.011 sec
 * total energy  :   -42.0694759 Eh     change       -0.3245228E-02 Eh
   gradient norm :     0.0300875 Eh/α   predicted    -0.3131412E-02 (  -3.51%)
   displ. norm   :     0.7014387 α      lambda       -0.5504483E-02
   maximum displ.:     0.3473420 α      in ANC's #6, #11, #5, ...

........................................................................
.............................. CYCLE   40 ..............................
........................................................................

 iter      E             dE          RMSdq      gap      omega  full diag
   1    -42.5610702 -0.425611E+02  0.291E-01    1.45       0.0  T
   2    -42.5603830  0.687172E-03  0.232E-01    1.31       1.0  T
   3    -42.5598239  0.559057E-03  0.217E-01    1.54       1.0  T
   4    -42.5610174 -0.119349E-02  0.101E-01    1.36       1.0  T
   5    -42.5614284 -0.410991E-03  0.217E-02    1.41       1.0  T
   6    -42.5614422 -0.138268E-04  0.600E-03    1.40       3.3  T
   7    -42.5614423 -0.120695E-06  0.308E-03    1.40       6.5  T
   8    -42.5614425 -0.107579E-06  0.111E-03    1.40      17.9  T
   9    -42.5614425 -0.120389E-07  0.540E-04    1.40      37.0  T
  10    -42.5614425 -0.949527E-09  0.209E-04    1.40      95.9  T
     SCC iter.                  ...        0 min,  0.014 sec
     gradient                   ...        0 min,  0.011 sec
 * total energy  :   -42.0738929 Eh     change       -0.4416983E-02 Eh
   gradient norm :     0.0324318 Eh/α   predicted    -0.4106398E-02 (  -7.03%)
   displ. norm   :     0.6485889 α      lambda       -0.5511196E-02
   maximum displ.:     0.2590855 α      in ANC's #6, #14, #2, ...

........................................................................
.............................. CYCLE   41 ..............................
........................................................................

 iter      E             dE          RMSdq      gap      omega  full diag
   1    -42.5696691 -0.425697E+02  0.261E-01    1.36       0.0  T
   2    -42.5696550  0.140551E-04  0.154E-01    1.40       1.0  T
   3    -42.5680814  0.157360E-02  0.200E-01    1.25       1.0  T
   4    -42.5696901 -0.160873E-02  0.412E-02    1.39       1.0  T
   5    -42.5697431 -0.529744E-04  0.950E-03    1.37       2.1  T
   6    -42.5697451 -0.203316E-05  0.531E-03    1.38       3.8  T
   7    -42.5697455 -0.393386E-06  0.251E-03    1.37       8.0  T
   8    -42.5697456 -0.103200E-06  0.944E-04    1.37      21.2  T
   9    -42.5697457 -0.122387E-07  0.447E-04    1.37      44.7  T
     SCC iter.                  ...        0 min,  0.013 sec
     gradient                   ...        0 min,  0.011 sec
 * total energy  :   -42.0775801 Eh     change       -0.3687267E-02 Eh
   gradient norm :     0.0326516 Eh/α   predicted    -0.3914801E-02 (   6.17%)
   displ. norm   :     0.6813941 α      lambda       -0.4295343E-02
   maximum displ.:     0.2893639 α      in ANC's #6, #14, #11, ...

........................................................................
.............................. CYCLE   42 ..............................
........................................................................

 iter      E             dE          RMSdq      gap      omega  full diag
   1    -42.5711333 -0.425711E+02  0.324E-01    1.34       0.0  T
   2    -42.5709033  0.230031E-03  0.246E-01    1.36       1.0  T
   3    -42.5711885 -0.285185E-03  0.162E-01    1.33       1.0  T
   4    -42.5715040 -0.315509E-03  0.912E-02    1.40       1.0  T
   5    -42.5717846 -0.280596E-03  0.344E-02    1.33       1.0  T
   6    -42.5718305 -0.459608E-04  0.815E-03    1.35       2.5  T
   7    -42.5718314 -0.829777E-06  0.407E-03    1.35       4.9  T
   8    -42.5718314 -0.459502E-07  0.183E-03    1.35      10.9  T
   9    -42.5718315 -0.470010E-07  0.728E-04    1.35      27.5  T
  10    -42.5718315 -0.227544E-08  0.317E-04    1.35      63.2  T
     SCC iter.                  ...        0 min,  0.014 sec
     gradient                   ...        0 min,  0.011 sec
 * total energy  :   -42.0794360 Eh     change       -0.1855889E-02 Eh
   gradient norm :     0.0595786 Eh/α   predicted    -0.3144834E-02 (  69.45%)
   displ. norm   :     0.4249770 α      lambda       -0.7795901E-02
   maximum displ.:     0.1963174 α      in ANC's #14, #11, #6, ...
 * RMSD in coord.:     1.2629954 α      energy gain  -0.1816787E+00 Eh

generating ANC from model Hessian ...
Using Lindh-Hessian (1995)
 Shifting diagonal of input Hessian by    9.2003729260277424E-003
 Lowest  eigenvalues of input Hessian
    0.000000    0.000000    0.000000    0.000000    0.000000    0.000000
    0.010000    0.010688    0.012065    0.012859    0.013559    0.014351
    0.016191    0.017907    0.018585    0.022627    0.026382    0.029144
 Highest eigenvalues
    2.047526    2.145342    2.214923    2.245958    2.443158    3.070386


........................................................................
.............................. CYCLE   43 ..............................
........................................................................

 iter      E             dE          RMSdq      gap      omega  full diag
   1    -42.5879989 -0.425880E+02  0.393E-01    1.24       0.0  T
   2    -42.5866460  0.135285E-02  0.441E-01    1.57       1.0  T
   3    -42.5918489 -0.520287E-02  0.205E-01    1.22       1.0  T
   4    -42.5926809 -0.832049E-03  0.140E-01    1.40       1.0  T
   5    -42.5930417 -0.360748E-03  0.501E-02    1.33       1.0  T
   6    -42.5931047 -0.629758E-04  0.195E-02    1.33       1.0  T
   7    -42.5931155 -0.108180E-04  0.575E-03    1.33       3.5  T
   8    -42.5931158 -0.295964E-06  0.301E-03    1.33       6.6  T
   9    -42.5931159 -0.662380E-07  0.134E-03    1.33      14.9  T
  10    -42.5931159 -0.227925E-07  0.576E-04    1.33      34.7  T
  11    -42.5931159 -0.132101E-08  0.203E-04    1.33      98.3  T
     SCC iter.                  ...        0 min,  0.015 sec
     gradient                   ...        0 min,  0.011 sec
 * total energy  :   -42.0779293 Eh     change        0.1506705E-02 Eh
   gradient norm :     0.0987497 Eh/α   predicted     0.0000000E+00 (-100.00%)
   displ. norm   :     0.2899562 α      lambda       -0.1077931E-01
   maximum displ.:     0.1174446 α      in ANC's #3, #1, #12, ...

........................................................................
.............................. CYCLE   44 ..............................
........................................................................

 iter      E             dE          RMSdq      gap      omega  full diag
   1    -42.5845690 -0.425846E+02  0.276E-01    1.33       0.0  T
   2    -42.5848956 -0.326580E-03  0.199E-01    1.27       1.0  T
   3    -42.5848491  0.464991E-04  0.146E-01    1.39       1.0  T
   4    -42.5844881  0.360996E-03  0.153E-01    1.22       1.0  T
   5    -42.5853627 -0.874585E-03  0.221E-02    1.32       1.0  T
   6    -42.5853790 -0.163647E-04  0.549E-03    1.32       3.6  T
   7    -42.5853793 -0.265735E-06  0.319E-03    1.32       6.3  T
   8    -42.5853794 -0.100360E-06  0.180E-03    1.32      11.1  T
   9    -42.5853795 -0.683656E-07  0.583E-04    1.32      34.3  T
  10    -42.5853795 -0.522564E-08  0.275E-04    1.32      72.7  T
     SCC iter.                  ...        0 min,  0.014 sec
     gradient                   ...        0 min,  0.011 sec
 * total energy  :   -42.0846668 Eh     change       -0.6737489E-02 Eh
   gradient norm :     0.0240372 Eh/α   predicted    -0.5855473E-02 ( -13.09%)
   displ. norm   :     0.4065177 α      lambda       -0.3179277E-02
   maximum displ.:     0.2487147 α      in ANC's #1, #3, #12, ...

........................................................................
.............................. CYCLE   45 ..............................
........................................................................

 iter      E             dE          RMSdq      gap      omega  full diag
   1    -42.5832204 -0.425832E+02  0.166E-01    1.33       0.0  T
   2    -42.5831374  0.830313E-04  0.137E-01    1.25       1.0  T
   3    -42.5831702 -0.327934E-04  0.108E-01    1.37       1.0  T
   4    -42.5833847 -0.214556E-03  0.694E-02    1.27       1.0  T
   5    -42.5835276 -0.142850E-03  0.117E-02    1.31       1.7  T
   6    -42.5835321 -0.455369E-05  0.366E-03    1.31       5.5  T
   7    -42.5835323 -0.199304E-06  0.193E-03    1.31      10.4  T
   8    -42.5835323 -0.238332E-07  0.110E-03    1.31      18.1  T
   9    -42.5835324 -0.214644E-07  0.321E-04    1.31      62.4  T
  10    -42.5835324 -0.122925E-08  0.158E-04    1.31     126.5  T
     SCC iter.                  ...        0 min,  0.014 sec
     gradient                   ...        0 min,  0.011 sec
 * total energy  :   -42.0869369 Eh     change       -0.2270068E-02 Eh
   gradient norm :     0.0193618 Eh/α   predicted    -0.1852369E-02 ( -18.40%)
   displ. norm   :     0.4926863 α      lambda       -0.2276479E-02
   maximum displ.:     0.3090645 α      in ANC's #1, #3, #7, ...

........................................................................
.............................. CYCLE   46 ..............................
........................................................................

 iter      E             dE          RMSdq      gap      omega  full diag
   1    -42.5847188 -0.425847E+02  0.119E-01    1.31       0.0  T
   2    -42.5847139  0.486882E-05  0.758E-02    1.29       1.0  T
   3    -42.5844437  0.270185E-03  0.880E-02    1.35       1.0  T
   4    -42.5846983 -0.254552E-03  0.371E-02    1.28       1.0  T
   5    -42.5847503 -0.520683E-04  0.678E-03    1.30       2.9  T
   6    -42.5847514 -0.107335E-05  0.229E-03    1.30       8.7  T
   7    -42.5847514  0.756157E-08  0.158E-03    1.30      12.7  T
   8    -42.5847515 -0.569698E-07  0.449E-04    1.30      44.6  T
   9    -42.5847515 -0.240050E-08  0.220E-04    1.30      91.0  T
     SCC iter.                  ...        0 min,  0.013 sec
     gradient                   ...        0 min,  0.011 sec
 * total energy  :   -42.0887562 Eh     change       -0.1819283E-02 Eh
   gradient norm :     0.0252694 Eh/α   predicted    -0.1414570E-02 ( -22.25%)
   displ. norm   :     0.5961496 α      lambda       -0.2296692E-02
   maximum displ.:     0.4007631 α      in ANC's #1, #3, #2, ...

........................................................................
.............................. CYCLE   47 ..............................
........................................................................

 iter      E             dE          RMSdq      gap      omega  full diag
   1    -42.5864363 -0.425864E+02  0.148E-01    1.31       0.0  T
   2    -42.5864141  0.221539E-04  0.893E-02    1.28       1.0  T
   3    -42.5857708  0.643285E-03  0.128E-01    1.38       1.0  T
   4    -42.5864379 -0.667092E-03  0.192E-02    1.29       1.0  T
   5    -42.5864517 -0.137645E-04  0.630E-03    1.30       3.2  T
   6    -42.5864529 -0.117455E-05  0.247E-03    1.30       8.1  T
   7    -42.5864529 -0.385233E-07  0.779E-04    1.30      25.7  T
   8    -42.5864529 -0.339313E-08  0.363E-04    1.30      55.1  T
     SCC iter.                  ...        0 min,  0.012 sec
     gradient                   ...        0 min,  0.011 sec
 * total energy  :   -42.0908286 Eh     change       -0.2072411E-02 Eh
   gradient norm :     0.0288704 Eh/α   predicted    -0.1556467E-02 ( -24.90%)
   displ. norm   :     0.7048164 α      lambda       -0.2972626E-02
   maximum displ.:     0.4887276 α      in ANC's #1, #3, #2, ...

........................................................................
.............................. CYCLE   48 ..............................
........................................................................

 iter      E             dE          RMSdq      gap      omega  full diag
   1    -42.5909515 -0.425910E+02  0.193E-01    1.32       0.0  T
   2    -42.5909665 -0.149511E-04  0.113E-01    1.28       1.0  T
   3    -42.5905288  0.437623E-03  0.121E-01    1.38       1.0  T
   4    -42.5908630 -0.334187E-03  0.625E-02    1.27       1.0  T
   5    -42.5910235 -0.160480E-03  0.114E-02    1.30       1.7  T
   6    -42.5910277 -0.416363E-05  0.368E-03    1.30       5.4  T
   7    -42.5910279 -0.217013E-06  0.194E-03    1.30      10.3  T
   8    -42.5910279 -0.382513E-07  0.665E-04    1.30      30.1  T
   9    -42.5910279 -0.896959E-08  0.295E-04    1.30      67.7  T
     SCC iter.                  ...        0 min,  0.013 sec
     gradient                   ...        0 min,  0.011 sec
 * total energy  :   -42.0934971 Eh     change       -0.2668490E-02 Eh
   gradient norm :     0.0224864 Eh/α   predicted    -0.2224671E-02 ( -16.63%)
   displ. norm   :     0.7608759 α      lambda       -0.3281016E-02
   maximum displ.:     0.5599042 α      in ANC's #1, #3, #2, ...

........................................................................
.............................. CYCLE   49 ..............................
[...]
C           -1.69761225150593        1.41147084206072       -1.49432645969068
O           -1.88208831630077        0.27600050657950       -1.72480736125649
N           -0.11987278041202       -2.91106089044409        0.49305042936144
C           -1.32821264109068       -3.03225050284752        1.20074157885171
H            1.56378524367159        2.06191309678587        0.40205887215412
H            3.09683588287401        1.50820799067734       -0.29858957158960
H            1.76818892388699        1.95614158419218       -1.36866987245327
H            3.23503865965087       -0.77006509644216       -1.32329028239147
H           -1.29634826028546        2.23444612766674        1.41882831516661
H           -0.22491434971286        2.83389331775875       -1.16445259024997
H           -1.79704909518023        3.23384917904310       -0.49069055079541
H           -1.19566418984368       -3.80271057189191        1.96472641461454
H           -2.10793164174693       -3.38483378902724        0.51862847088940
H           -1.65469485410437       -2.09679178256693        1.67138620201960
H            2.02416532845141       -2.96228608177860       -0.76038596754864

 Bond Distances (Angstroems)
 ---------------------------
C1-N2=1.4397         C1-H15=1.0877        C1-H16=1.0901        C1-H17=1.0926        N2-C1=1.4397         N2-C3=1.3320         
N2-C6=1.3904         C3-N2=1.3320         C3-N4=1.3318         C3-H18=1.0725        N4-C3=1.3318         N4-C5=1.3930         
N4-H25=1.0099        C5-N4=1.3930         C5-C6=1.4690         C5-N13=1.2962        C6-N2=1.3904         C6-C5=1.4690         
C6-C7=1.4535         C7-C6=1.4535         C7-O8=1.2249         C7-N9=1.4432         O8-C7=1.2249         N9-C7=1.4432         
N9-C10=1.4673        N9-H19=1.0172        C10-N9=1.4673        C10-C11=1.4469       C10-H20=1.1000       C10-H21=1.0968       
C11-C10=1.4469       C11-O12=1.1732       O12-C11=1.1732       N13-C5=1.2962        N13-C14=1.4056       C14-N13=1.4056       
C14-H22=1.0931       C14-H23=1.0943       C14-H24=1.0969       H15-C1=1.0877        H16-C1=1.0901        H17-C1=1.0926        
H18-C3=1.0725        H19-N9=1.0172        H20-C10=1.1000       H21-C10=1.0968       H22-C14=1.0931       H23-C14=1.0943       
H24-C14=1.0969       H25-N4=1.0099        
 C  H  Rav=1.0916 sigma=0.0076  Rmin=1.0725  Rmax=1.1000     9
 C  C  Rav=1.4564 sigma=0.0093  Rmin=1.4469  Rmax=1.4690     3
 N  H  Rav=1.0135 sigma=0.0037  Rmin=1.0099  Rmax=1.0172     2
 N  C  Rav=1.3888 sigma=0.0548  Rmin=1.2962  Rmax=1.4673     9
 O  C  Rav=1.1991 sigma=0.0258  Rmin=1.1732  Rmax=1.2249     2

 selected bond angles (degree)
 --------------------
H15-C1-N2=109.99               H16-C1-N2=109.20               H16-C1-H15=109.11              H17-C1-N2=110.72               
H17-C1-H15=109.96              H17-C1-H16=107.81              C3-N2-C1=121.98                C6-N2-C1=127.84                
C6-N2-C3=109.87                N4-C3-N2=109.52                H18-C3-N2=124.84               H18-C3-N4=125.63               
C5-N4-C3=111.16                H25-N4-C3=127.12               H25-N4-C5=121.69               C6-C5-N4=103.64                
N13-C5-N4=114.62               N13-C5-C6=141.74               C5-C6-N2=105.75                C7-C6-N2=124.11                
C7-C6-C5=129.79                O8-C7-C6=120.83                N9-C7-C6=122.31                N9-C7-O8=116.78                
C10-N9-C7=121.91               H19-N9-C7=105.44               H19-N9-C10=111.89              C11-C10-N9=113.20              
H20-C10-N9=110.97              H20-C10-C11=108.26             H21-C10-N9=108.82              H21-C10-C11=109.16             
H21-C10-H20=106.18             

 selected dihedral angles (degree)
 ---------------------------------
C3-N2-C1-H15=208.60           C3-N2-C1-H16=328.30           C3-N2-C1-H17= 86.87           C6-N2-C1-H15= 21.55           
C6-N2-C1-H16=141.26           C6-N2-C1-H17=259.82           N4-C3-N2-C1=173.73            N4-C3-N2-C6=359.65            
H18-C3-N2-C1=354.93           H18-C3-N2-C6=180.84           C5-N4-C3-N2=358.73            C5-N4-C3-H18=177.52           
H25-N4-C3-N2=180.89           H25-N4-C3-H18=359.68          C6-C5-N4-C3=  2.22            C6-C5-N4-H25=180.20           
N13-C5-N4-C3=181.80           N13-C5-N4-H25=359.77          C5-C6-N2-C1=188.06            C5-C6-N2-C3=  1.71            
C7-C6-N2-C1=  1.87            C7-C6-N2-C3=175.51            N2-C6-C5-N4=357.68            N2-C6-C5-N13=178.31           
C7-C6-C5-N4=184.36            C7-C6-C5-N13=  4.98           O8-C7-C6-N2=204.52            O8-C7-C6-C5= 16.75            
N9-C7-C6-N2= 21.11            N9-C7-C6-C5=193.35            C10-N9-C7-C6= 63.45           C10-N9-C7-O8=240.18           
H19-N9-C7-C6=192.33           H19-N9-C7-O8=  9.06           C11-C10-N9-C7= 16.83          C11-C10-N9-H19=250.80         
H20-C10-N9-C7=254.87          H20-C10-N9-H19=128.83         H21-C10-N9-C7=138.38          H21-C10-N9-H19= 12.35         
           -------------------------------------------------
          |                Final Singlepoint                |
           -------------------------------------------------

          ...................................................
          :                      SETUP                      :
          :.................................................:
          :  # basis functions                  67          :
          :  # atomic orbitals                  67          :
          :  # shells                           39          :
          :  # electrons                        74          :
          :  max. iterations                   250          :
          :  Hamiltonian                  GFN2-xTB          :
          :  restarted?                      false          :
          :  GBSA solvation                  false          :
          :  PC potential                    false          :
          :  electronic temp.         7500.0000000     K    :
          :  accuracy                    1.0000000          :
          :  -> integral cutoff          0.2500000E+02      :
          :  -> integral neglect         0.1000000E-07      :
          :  -> SCF convergence          0.1000000E-05 Eh   :
          :  -> wf. convergence          0.1000000E-03 e    :
          :  Broyden damping             0.4000000          :
          ...................................................

 iter      E             dE          RMSdq      gap      omega  full diag
   1    -42.6383590 -0.426384E+02  0.169E-04    1.32       0.0  T
   2    -42.6383590  0.147139E-09  0.140E-04    1.32     143.2  T
   3    -42.6383590 -0.202135E-09  0.113E-04    1.32     177.7  T

   *** convergence criteria satisfied after 3 iterations ***

         #    Occupation            Energy/Eh            Energy/eV
      -------------------------------------------------------------
         1        2.0000           -0.9077350             -24.7007
       ...           ...                  ...                  ...
        31        1.9929           -0.6095865             -16.5877
        32        1.9925           -0.6083092             -16.5529
        33        1.9755           -0.5800112             -15.7829
        34        1.9644           -0.5710582             -15.5393
        35        1.9185           -0.5507932             -14.9878
        36        1.7307           -0.5199677             -14.1490
        37        1.5090           -0.5024472             -13.6723 (HOMO)
        38        0.5726           -0.4540845             -12.3563 (LUMO)
        39        0.1815           -0.4210503             -11.4574
        40        0.1470           -0.4155886             -11.3087
        41        0.0250           -0.3719587             -10.1215
        42        0.0018           -0.3088334              -8.4038
       ...           ...                  ...                  ...
        67                          0.6369760              17.3330
      -------------------------------------------------------------
                  HL-Gap            0.0483627 Eh            1.3160 eV
             Fermi-level           -0.4757784 Eh          -12.9466 eV

 SCC (total)                   0 d,  0 h,  0 min,  0.021 sec
 SCC setup                      ...        0 min,  0.000 sec (  0.835%)
 Dispersion                     ...        0 min,  0.000 sec (  0.944%)
 classical contributions        ...        0 min,  0.000 sec (  0.315%)
 integral evaluation            ...        0 min,  0.004 sec ( 20.791%)
 iterations                     ...        0 min,  0.005 sec ( 22.926%)
 molecular gradient             ...        0 min,  0.011 sec ( 53.488%)
 printout                       ...        0 min,  0.000 sec (  0.642%)

         :::::::::::::::::::::::::::::::::::::::::::::::::::::
         ::                     SUMMARY                     ::
         :::::::::::::::::::::::::::::::::::::::::::::::::::::
         :: total energy             -42.130461401545 Eh    ::
         :: gradient norm              0.003777145984 Eh/a0 ::
         :: HOMO-LUMO gap              1.316016126499 eV    ::
         ::.................................................::
         :: SCC energy               -42.638359039065 Eh    ::
         :: -> isotropic ES            0.127079356566 Eh    ::
         :: -> anisotropic ES         -0.010358312835 Eh    ::
         :: -> anisotropic XC          0.019196609493 Eh    ::
         :: -> dispersion             -0.022614052721 Eh    ::
         :: repulsion energy           0.507412711404 Eh    ::
         :: add. restraining           0.000197574069 Eh    ::
         :: total charge               1.000000000003 e     ::
         :::::::::::::::::::::::::::::::::::::::::::::::::::::

           -------------------------------------------------
          |                Property Printout                |
           -------------------------------------------------

    * Orbital Energies and Occupations

         #    Occupation            Energy/Eh            Energy/eV
      -------------------------------------------------------------
         1        2.0000           -0.9077350             -24.7007
       ...           ...                  ...                  ...
        25        1.9994           -0.6685294             -18.1916
        26        1.9990           -0.6556862             -17.8421
        27        1.9986           -0.6489839             -17.6597
        28        1.9980           -0.6400842             -17.4176
        29        1.9980           -0.6393728             -17.3982
        30        1.9976           -0.6358229             -17.3016
        31        1.9929           -0.6095865             -16.5877
        32        1.9925           -0.6083092             -16.5529
        33        1.9755           -0.5800112             -15.7829
        34        1.9644           -0.5710582             -15.5393
        35        1.9185           -0.5507932             -14.9878
        36        1.7307           -0.5199677             -14.1490
        37        1.5090           -0.5024472             -13.6723 (HOMO)
        38        0.5726           -0.4540845             -12.3563 (LUMO)
        39        0.1815           -0.4210503             -11.4574
        40        0.1470           -0.4155886             -11.3087
        41        0.0250           -0.3719587             -10.1215
        42        0.0018           -0.3088334              -8.4038
        43        0.0000           -0.1771199              -4.8197
        44        0.0000           -0.1734135              -4.7188
        45        0.0000           -0.1269820              -3.4554
        46                         -0.0697211              -1.8972
        47                         -0.0632135              -1.7201
        48                         -0.0565278              -1.5382
       ...                                ...                  ...
        67                          0.6369760              17.3330
      -------------------------------------------------------------
                  HL-Gap            0.0483627 Eh            1.3160 eV
             Fermi-level           -0.4757784 Eh          -12.9466 eV

     #   Z          covCN         q      C6AA      α(0)
     1   6 C        3.695    -0.087    22.342     6.762
     2   7 N        2.816     0.047    20.416     6.711
     3   6 C        2.962     0.059    26.669     8.471
     4   7 N        2.799    -0.065    22.490     7.043
     5   6 C        2.933     0.142    24.904     8.184
     6   6 C        3.027    -0.022    28.535     8.762
     7   6 C        2.745     0.260    22.624     7.788
     8   8 O        0.859    -0.376    21.216     6.176
     9   7 N        2.680    -0.216    25.719     7.532
    10   6 C        3.734    -0.007    20.784     6.506
    11   6 C        1.838     0.194    26.551     8.324
    12   8 O        0.856    -0.151    17.292     5.575
    13   7 N        1.838    -0.174    25.568     7.493
    14   6 C        3.692    -0.046    21.592     6.649
    15   1 H        0.925     0.111     1.692     2.034
    16   1 H        0.925     0.101     1.779     2.086
    17   1 H        0.924     0.088     1.899     2.155
    18   1 H        0.926     0.111     1.689     2.032
    19   1 H        0.860     0.215     1.033     1.592
    20   1 H        0.923     0.125     1.571     1.960
    21   1 H        0.924     0.134     1.505     1.919
    22   1 H        0.924     0.109     1.703     2.041
    23   1 H        0.924     0.106     1.727     2.055
    24   1 H        0.924     0.111     1.689     2.032
    25   1 H        0.860     0.232     0.956     1.532

 Mol. C6AA /au·bohr⁶  :       6564.333582
 Mol. C8AA /au·bohr⁸  :     151198.511238
 Mol. α(0) /au        :        123.415784


Wiberg/Mayer (AO) data.
largest (>0.10) Wiberg bond orders for each atom

 ---------------------------------------------------------------------------
     #   Z sym  total        # sym  WBO       # sym  WBO       # sym  WBO
 ---------------------------------------------------------------------------
     1   6 C    3.931 --     2 N    0.992    16 H    0.968    15 H    0.963
                            17 H    0.958
     2   7 N    3.608 --     3 C    1.336     6 C    1.139     1 C    0.992
     3   6 C    3.786 --     2 N    1.336     4 N    1.322    18 H    0.953
     4   7 N    3.529 --     3 C    1.322     5 C    1.104    25 H    0.917
     5   6 C    3.912 --    13 N    1.515     6 C    1.149     4 N    1.104
     6   6 C    3.681 --     5 C    1.149     2 N    1.139     7 C    1.128
     7   6 C    3.874 --     8 O    1.633     6 C    1.128     9 N    1.041
     8   8 O    1.889 --     7 C    1.633     9 N    0.102
     9   7 N    3.148 --     7 C    1.041    10 C    0.966    19 H    0.926
                             8 O    0.102
    10   6 C    3.930 --    11 C    1.069     9 N    0.966    21 H    0.923
                            20 H    0.903
    11   6 C    3.192 --    12 O    2.047    10 C    1.069
    12   8 O    2.162 --    11 C    2.047
    13   7 N    2.748 --     5 C    1.515    14 C    1.078
    14   6 C    3.865 --    13 N    1.078    22 H    0.926    23 H    0.916
                            24 H    0.907
    15   1 H    0.985 --     1 C    0.963
    16   1 H    0.986 --     1 C    0.968
    17   1 H    0.985 --     1 C    0.958
    18   1 H    0.986 --     3 C    0.953
    19   1 H    0.950 --     9 N    0.926
    20   1 H    0.965 --    10 C    0.903
    21   1 H    0.966 --    10 C    0.923
    22   1 H    0.945 --    14 C    0.926
    23   1 H    0.942 --    14 C    0.916
    24   1 H    0.928 --    14 C    0.907
    25   1 H    0.945 --     4 N    0.917
 ---------------------------------------------------------------------------

Topologies differ in total number of bonds
Writing topology from bond orders to xtbtopo.mol

molecular dipole:
                 x           y           z       tot (Debye)
 q only:        1.713       0.611      -1.144
   full:        1.718       0.853      -1.257       5.829
molecular quadrupole (traceless):
                xx          xy          yy          xz          yz          zz
 q only:        1.231      -5.667      18.058      -5.732      -5.200     -19.289
  q+dip:        3.665      -9.066      16.722      -6.927      -3.814     -20.387
   full:        4.086      -8.899      14.943      -6.064      -4.440     -19.028

           -------------------------------------------------
          |                Geometry Summary                 |
           -------------------------------------------------

      molecular mass/u    :      195.1988581
   center of mass at/Å    :       -0.0381348      -0.2045697      -0.0262835
  moments of inertia/u·Å² :        0.5573443E+03   0.7792271E+03   0.1016492E+04
rotational constants/cm⁻¹ :        0.3024635E-01   0.2163379E-01   0.1658412E-01

 * 21 selected distances

     #   Z          #   Z                                           value/Å
     1   6 C        2   7 N                                       1.4396558
     2   7 N        3   6 C                                       1.3319738
     3   6 C        4   7 N                                       1.3318212
     4   7 N        5   6 C                                       1.3930272
     2   7 N        6   6 C                                       1.3903894
     7   6 C        8   8 O                                       1.2249059
     9   7 N       10   6 C                                       1.4673044 (max)
    11   6 C       12   8 O                                       1.1732204
     5   6 C       13   7 N                                       1.2961789
    13   7 N       14   6 C                                       1.4055601
     1   6 C       15   1 H                                       1.0877297
     1   6 C       16   1 H                                       1.0901194
     1   6 C       17   1 H                                       1.0926316
     3   6 C       18   1 H                                       1.0725190
     9   7 N       19   1 H                                       1.0171804
    10   6 C       20   1 H                                       1.1000307
    10   6 C       21   1 H                                       1.0967948
    14   6 C       22   1 H                                       1.0930923
    14   6 C       23   1 H                                       1.0943287
    14   6 C       24   1 H                                       1.0968957
     4   7 N       25   1 H                                       1.0098759 (min)

 * 4 distinct bonds (by element types)

   Z      Z             #   av. dist./Å        max./Å        min./Å
   1 H    6 C           9     1.0915713     1.1000307     1.0725190
   1 H    7 N           2     1.0135282     1.0171804     1.0098759
   6 C    7 N           8     1.3819889     1.4673044     1.2961789
   6 C    8 O           2     1.1990631     1.2249059     1.1732204


optimized geometry written to: xtbopt.xyz


           -------------------------------------------------
          | TOTAL ENERGY              -42.130461401545 Eh   |
          | GRADIENT NORM               0.003777145984 Eh/α |
          | HOMO-LUMO GAP               1.316016126499 eV   |
           -------------------------------------------------

------------------------------------------------------------------------
 * finished run on 2024/06/05 at 19:58:53.292     
------------------------------------------------------------------------
 total:
 * wall-time:     0 d,  0 h,  0 min,  2.762 sec
 *  cpu-time:     0 d,  0 h,  0 min,  2.738 sec
 * ratio c/w:     0.991 speedup
 SCF:
 * wall-time:     0 d,  0 h,  0 min,  0.038 sec
 *  cpu-time:     0 d,  0 h,  0 min,  0.037 sec
 * ratio c/w:     0.985 speedup
 ANC optimizer:
 * wall-time:     0 d,  0 h,  0 min,  2.693 sec
 *  cpu-time:     0 d,  0 h,  0 min,  2.687 sec
 * ratio c/w:     0.998 speedup

