72
 energy: -99.340242759433 gnorm: 0.004434763645 xtb: 6.6.1 (8d0f1dd)
N           -2.62960618588813        2.77217921644264        2.21974755029164
C           -2.00656933148057        2.19715578400472        1.20627276827206
C           -2.95311184906845        1.91473318219145        0.08817120408396
C           -3.49017174211519        0.48567231187278        0.19939487110242
C           -4.48369349885267        0.05941585894187       -0.68300389021972
C           -5.01089189748781       -1.21862575162030       -0.60656599234010
O           -5.96933532651102       -1.71749350407690       -1.41407472082997
C           -6.56264876416255       -0.88401823130932       -2.38055610073198
C           -4.53285637112003       -2.11432028639456        0.38844806558687
O           -5.09944300134629       -3.33623592843227        0.38655340053052
C           -4.72480683943405       -4.26193881598977        1.38058298666373
C           -3.54535748318388       -1.68143709082312        1.25703385615244
C           -3.02977546918265       -0.39496762749534        1.16289739220523
C           -2.34038226448547        2.14471895755340       -1.30561511019885
C           -1.38339018428198        1.02627695055604       -1.75230027406250
C           -0.08616751588876        1.05196470778968       -1.04465112568032
N            0.51789977366371        0.00459255286465       -0.48713920235033
C            1.89819467608231        0.10841828454522       -0.07634169808509
C            2.85336937674847       -0.33073889653237       -1.20440726700781
C            4.28475560288822       -0.12301091793786       -0.79860403486300
C            4.90198517096026        1.10159448167211       -0.99225201767874
C            6.22285407404049        1.29762962371885       -0.61938708604204
C            6.95287895092712        0.27050379675337       -0.03976481539432
O            8.24149410735410        0.34327746674395        0.34623708345246
C            8.95591500974420        1.53791456200316        0.12907725527514
C            6.32378595730428       -0.98582180447964        0.17607644511270
O            7.10315419117406       -1.92804972838505        0.74580446496999
C            6.57798189510064       -3.21584645580778        0.96139544428866
C            5.00241368902880       -1.15785728783783       -0.20350515573620
C           -0.06700959432236       -1.31407674211557       -0.50976530008159
C           -4.11611753363823        2.89901310438541        0.44023987333223
C           -4.04353713720654        2.91157179961171        1.97513525131872
C           -3.92763781229882        4.30792256094968       -0.11201179692968
H           -4.85291811304596        0.73883439097831       -1.43416605991506
H           -7.04136392218984       -0.01338495629503       -1.92173497622770
H           -7.32068244581915       -1.49538995447583       -2.86620490285721
H           -5.83500763368085       -0.55157902563367       -3.12826668017277
H           -4.92420510110424       -3.87455362122295        2.38389202701715
H           -5.33736869830858       -5.14382286159874        1.20465424408060
H           -3.66732634532633       -4.53275048886505        1.29621747608712
H           -3.17872331694143       -2.32966091494219        2.03534677592129
H           -2.27578936481219       -0.08768718401054        1.87086872184236
H           -3.15073018015178        2.20106534514386       -2.03139196783478
H           -1.80985510128844        3.09667003566470       -1.31748369235750
H           -1.87908596625611        0.06265085772089       -1.65404177483924
H           -1.18416123491746        1.18988569945860       -2.81960164154607
H           -0.95852221948781        1.96788632227503        1.22998676271507
H            0.45073090421302        1.98746523125012       -1.01652017617166
H            2.05995258412254       -0.51616761240867        0.80521925706097
H            2.11973277447452        1.14378086927722        0.19130517440741
H            2.63097459167458        0.26234447376305       -2.09368988394542
H            2.67905612074908       -1.38171837529356       -1.43769975093973
H            4.36018905868716        1.91343594042292       -1.45367974787307
H            6.67929185740701        2.25816603651517       -0.79351774977183
H            8.52148999547162        2.37256786622632        0.68778772004577
H            8.99755601082208        1.79183039182569       -0.93446596197679
H            9.96316774103840        1.34587208111634        0.49362527033609
H            7.38915581735791       -3.79216382647536        1.40193529965319
H            5.73218148838348       -3.19386842174823        1.65622087909811
H            6.26905992605493       -3.68582673154928        0.02237618361738
H            4.51921438547997       -2.11085782348630       -0.05510351454307
H           -0.11921912837457       -1.71153531484854       -1.52622326458597
H           -1.07562223967054       -1.28781491399418       -0.09182266513645
H            0.53967046541986       -1.98445761074073        0.09388251031980
H           -5.07319133485939        2.50466436375200        0.10028940320451
H           -4.42815557740733        3.82939153775949        2.41938315636978
H           -4.56309909429042        2.04786204598033        2.42593931012981
H           -4.25511986156453        0.36932237447856        3.69335130422184
H           -2.97575031613825        4.72896592672721        0.20267277388929
H           -3.97319607310872        4.31581702648863       -1.19649064268372
H           -4.72374422459253        4.94951934586587        0.25735691761997
H           -2.23624330409978        2.90926486407861        3.13793640407035
