72
 energy: 0.000000000000 xtb: 6.6.1 (8d0f1dd)
N           -1.47310921155849        2.74401293103706        2.22063921685122
C           -1.55658879776851        2.16490285539332        1.13274273951491
C           -2.74549199786261        2.05621232186130        0.23826248438941
C           -3.31377553111525        0.64333411542669        0.32332512650568
C           -4.30230156009016        0.24487110156316       -0.58026161703006
C           -4.85238763031941       -1.02286490450319       -0.53363588718165
O           -5.81419972815119       -1.48606034185536       -1.36157882725342
C           -6.39655633239252       -0.60827000183299       -2.29568474302620
C           -4.39972501531283       -1.94646102182611        0.44396929121966
O           -4.98748311285188       -3.16145997157803        0.41085992006324
C           -4.66362127904578       -4.10093827755394        1.40909127743729
C           -3.42072513477031       -1.54561384810496        1.33436546260297
C           -2.88302799614223       -0.26315800396994        1.27400150770375
C           -2.19303798107274        2.30467000305896       -1.18742977106749
C           -1.26651538239283        1.17243369445008       -1.65249429687285
C            0.01082524939134        1.09745454476277       -0.89354803499847
N            0.61779393476578       -0.02034948052406       -0.57705522512502
C            2.00145210352228       -0.02376006389122       -0.15611399603240
C            2.92554934655222       -0.53865282675074       -1.27700088804721
C            4.35756843073516       -0.43050757231754       -0.83075544324989
C            5.07346135469827        0.73206409086248       -1.03980965825901
C            6.38627986649936        0.84224441421807       -0.60344822702769
C            7.00047264773336       -0.20824756335880        0.05722314418200
O            8.26703657141718       -0.21011313101264        0.52410943644933
C            9.06912227848686        0.92943601033931        0.31863058007678
C            6.27039964270142       -1.40439753960823        0.28033466008274
O            6.94829939911432       -2.38012925705718        0.92751999079483
C            6.31537317745639       -3.61583200086742        1.15217711710877
C            4.96302794628964       -1.49347471867959       -0.16064430359178
C           -0.05511211367372       -1.29906247805359       -0.62085686319744
C           -3.86758037025447        3.07992600430699        0.58498060215443
C           -4.49286159663096        2.77383493050346        1.94313289484366
C           -3.39165179876499        4.52917666589254        0.54797523472093
H           -4.66030026466202        0.94509067363451       -1.31640568823548
H           -6.85037928558380        0.25803162192116       -1.80468845313260
H           -7.17287442604349       -1.18600110843259       -2.79318157561361
H           -5.66836817451085       -0.26952966318766       -3.04040255244073
H           -4.88416720672258       -3.71589460520039        2.40913542187496
H           -5.29223570620378       -4.96637458756866        1.20969236903657
H           -3.61139813139015       -4.39919835331056        1.35529357841967
H           -3.07077796610445       -2.21868765711333        2.10002662693138
H           -2.14562754426994        0.02067850696302        2.01001344383370
H           -3.02188875377605        2.38238012313952       -1.88813545054866
H           -1.65198530896729        3.25146700677685       -1.20556284570283
H           -1.81103374245520        0.23006524641044       -1.62116301628650
H           -0.99335688527853        1.37490212198123       -2.69443256973690
H           -0.67628064361333        1.65183887049447        0.61785727145403
H            0.63525841192517        1.98466369793744       -0.92314021190751
H            2.11132552493482       -0.65949692842762        0.72532613231274
H            2.30680473056284        0.98978251704176        0.11078972794250
H            2.76694198818247        0.06750735147374       -2.17075252200790
H            2.67954581369920       -1.57455627803457       -1.51167743520200
H            4.62169998552446        1.56295612048703       -1.56123579000624
H            6.92357674630170        1.75715815945204       -0.79119596719031
H            8.65159112996149        1.81001823324363        0.81701555159939
H            9.20136171144928        1.14042857828877       -0.74698991949293
H           10.03428838009630        0.69003240176163        0.76064937965836
H            7.05567174969094       -4.23621171795340        1.65347565939075
H            5.43848001056755       -3.50813558175093        1.79970565785717
H            6.02060041905269       -4.09420497120334        0.21253282636366
H            4.40102758497114       -2.40127266373392       -0.00490198249042
H           -0.22071299714579       -1.61775583601871       -1.65116008982042
H           -1.01972258008625       -1.24102717432227       -0.10935206830928
H            0.55899954147532       -2.04486085926761       -0.12333730421426
H           -4.63991875734388        2.95501092798550       -0.18098088071825
H           -3.76095216473977        2.90314704960906        2.73380821053058
H           -4.87457614030224        1.75695641518947        1.97884603101694
H           -5.31925552549014        3.45579210326349        2.12325564252114
H           -2.60025590131176        4.69225046143352        1.27368918226171
H           -3.03987406413880        4.81897652321898       -0.43870975059559
H           -4.22191740670577        5.18069648090034        0.80616693961239
H           -0.59832433787845        2.77744694953323        2.72958984441332
72
 energy: -0.905891622569 xtb: 6.6.1 (8d0f1dd)
N           -1.50617183636379        2.87415150284304        2.27442247971711
C           -1.55789801400442        2.16803948851527        1.21878840672138
C           -2.74015659545376        2.07822182911935        0.28789162623293
C           -3.32419960596040        0.66745279229886        0.34879321447941
C           -4.27672921236120        0.23735316058216       -0.59135232776921
C           -4.80649944733001       -1.04925304034288       -0.61215973357859
O           -5.68451535211747       -1.58390726111866       -1.57683556540485
C           -6.39837295731094       -0.75778463323235       -2.48307585428168
C           -4.39263718362130       -1.92658010389216        0.43543502018879
O           -4.97024547980719       -3.16501040813980        0.43041583508806
C           -4.66535271932609       -4.06105387172795        1.47113054183690
C           -3.45959061037409       -1.50295498788726        1.37356568813085
C           -2.92067563809638       -0.22337685350069        1.32449573469445
C           -2.17712716801435        2.33175614741403       -1.13790623054633
C           -1.25025255952173        1.22338008875995       -1.66734942546943
C            0.01574875470940        1.15941185743908       -0.88146272512350
N            0.63845297308969       -0.05754096465630       -0.54194134239072
C            2.00408193094538       -0.06038243923446       -0.15085421056136
C            2.93608678282683       -0.54899168670408       -1.28061458847885
C            4.36056531963054       -0.44457737480822       -0.85330089242874
C            5.07271184659043        0.72506521530588       -1.04334406170935
C            6.38270918821348        0.83625368627106       -0.60281621725467
C            6.99775633507943       -0.21999864033014        0.04458504976371
O            8.28364101629972       -0.22642168765535        0.51072685130221
C            9.06858303133271        0.91882668423216        0.30827242830571
C            6.27393292461282       -1.41353946806283        0.25829644482770
O            6.96296747241699       -2.40349564404468        0.89999598565389
C            6.32364600011619       -3.63486194139945        1.11223994959157
C            4.97023889309673       -1.50658946518954       -0.18519337294742
C           -0.06639439805464       -1.30107453581147       -0.62125681376112
C           -3.87106505611078        3.08958558627870        0.61266700263146
C           -4.49119810134384        2.79656018704491        1.97809073421752
C           -3.40636177847543        4.54469273391828        0.57008075724662
H           -4.59027843630047        0.93404275123451       -1.35068721441819
H           -6.72204459172479        0.07292431584522       -1.83474430291602
H           -7.23421216199126       -1.33398369910633       -2.91771603039229
H           -5.81703238332607       -0.36786447299869       -3.33975427505829
H           -4.91539301803544       -3.65052860113527        2.45631038498979
H           -5.28267777804485       -4.93829535434049        1.28150314911563
H           -3.60970568942424       -4.35622805789048        1.46298463927084
H           -3.12364157891680       -2.16520866843777        2.16106376642266
H           -2.19426195252992        0.07153863701061        2.06905639041633
H           -3.01023025100158        2.44756869347934       -1.83534708988624
H           -1.61726178186477        3.26955766893594       -1.13414733662996
H           -1.78586697174263        0.27519616864098       -1.62481049072257
H           -1.04159669066052        1.44082745436930       -2.72770226322426
H           -0.69113581945822        1.64040042020449        0.76208893774836
H            0.68288333381236        2.00193687544602       -0.96178452301255
H            2.12768302646207       -0.70127076544824        0.73014928788532
H            2.29603936448793        0.95548830081022        0.12931304602324
H            2.75210964249685        0.07196676132475       -2.15911429518378
H            2.67560653972397       -1.57991869936797       -1.52410142194270
H            4.61093814837107        1.56063209933314       -1.54818185258217
H            6.91770920209548        1.75603635391625       -0.78062550279233
H            8.64746284704768        1.79484495318940        0.81399012571524
H            9.19345017624617        1.14199856857802       -0.75722138142764
H           10.03868723872316        0.68354001854435        0.74331870470913
H            7.06377080648605       -4.26357458566135        1.60544168017649
H            5.44731515706533       -3.53194549421280        1.76171749071378
H            6.02150905951818       -4.10435232997684        0.16937403866097
H            4.40402901197050       -2.41231190026596       -0.02944763866873
H           -0.24422865487159       -1.60944306603689       -1.66006170967058
H           -1.03284626886033       -1.22784403369595       -0.11352438126319
H            0.52874701229385       -2.06622538837481       -0.12771015618819
H           -4.64754256378137        2.96049118151122       -0.15135142578664
H           -3.74476474894217        2.93472931506240        2.75418113674311
H           -4.85887467926242        1.77381064431973        2.02357217726499
H           -5.32378920040961        3.47354070403715        2.16026753159714
H           -2.61073996779356        4.70461590207690        1.29145625244304
H           -3.05028572511804        4.82419483191338       -0.41860752435795
H           -4.24009908516994        5.19733658737524        0.82392435001382
H           -0.61321013002281        2.83771079445589        2.76898366541195
72
 energy: 10.212958455093 xtb: 6.6.1 (8d0f1dd)
N           -1.52567801875559        2.93799901307645        2.30113201581362
C           -1.55725365501836        2.18186206482209        1.26459143002941
C           -2.73823790927179        2.09180081270984        0.31728938492206
C           -3.32900961585693        0.67961595399456        0.35910927063234
C           -4.25234629185476        0.22791695905451       -0.60879244656140
C           -4.76943402018966       -1.06898582160412       -0.66850949235659
O           -5.57509908389703       -1.65221201704648       -1.73035372891547
C           -6.39521112188112       -0.85632279646109       -2.60208793671524
C           -4.38788472827105       -1.91572061420436        0.42552498522521
O           -4.95646268444971       -3.16592120546978        0.44530875371712
C           -4.66703735521612       -4.03174978154354        1.51606193470915
C           -3.48793603784953       -1.47642055616194        1.39628745741450
C           -2.94705810644040       -0.19927678059076        1.35546532871145
C           -2.16515646150202        2.35703391612779       -1.10426971143599
C           -1.24327236755523        1.25353744071043       -1.65987902759440
C            0.02065561720289        1.18834560408310       -0.87499427611939
N            0.64211223235242       -0.06964274085075       -0.52426702297951
C            2.00218899540948       -0.07735611702063       -0.14561758844613
C            2.93704374540702       -0.55410626627222       -1.28230264366280
C            4.35951002024195       -0.45192643959260       -0.86171043961424
C            5.07054017370759        0.72052294564828       -1.04333131806881
C            6.38051418688788        0.83186736630743       -0.60333136099689
C            6.99655723076768       -0.22865097710851        0.03449118975142
O            8.29065464357932       -0.23692308103965        0.49887049767184
C            9.06728509988761        0.91147406241679        0.30046682386333
C            6.27671070155208       -1.42188291037648        0.24163377072587
O            6.97071015876847       -2.41912486134751        0.87801592192801
C            6.32919880382061       -3.64884587963143        1.08306822775871
C            4.97306954914766       -1.51593726163435       -0.20064536121106
C           -0.07869234463724       -1.29649196833274       -0.62339105712393
C           -3.87151360210743        3.09798916606119        0.63492799431736
C           -4.48862329888222        2.81152850013016        2.00405886534506
C           -3.41519253364074        4.55674766787941        0.58500504365716
H           -4.53966904335760        0.92483873612356       -1.38007422509901
H           -6.64417984117559       -0.05301824468656       -1.87541489225053
H           -7.26285184852631       -1.44195596972765       -2.98702065883698
H           -5.92095929647182       -0.44296890282919       -3.53548262158230
H           -4.93939615941393       -3.60223549132463        2.48905002757256
H           -5.27618070968055       -4.91707308474832        1.33418327338217
H           -3.60964494118202       -4.32478836320546        1.54057324568091
H           -3.16853113873666       -2.12782717684055        2.20283617517171
H           -2.23468742186898        0.10535960643862        2.11222618616856
H           -2.99904964065190        2.49608376139082       -1.79890681311569
H           -1.59291107201845        3.28798013462452       -1.08357352009682
H           -1.77431927246361        0.30270384949820       -1.62271330336450
H           -1.06072004321909        1.48520744026580       -2.72508784537487
H           -0.69924715429224        1.63143925020376        0.85438537312554
H            0.71335562246618        2.00522530600461       -0.97049248343711
H            2.13547920246988       -0.72732113791314        0.73103583543221
H            2.29431637653827        0.93579083679158        0.14591908716529
H            2.74287006642024        0.07520664355065       -2.15287602493793
H            2.67182718764998       -1.58265663061133       -1.53334836195620
H            4.60342002562994        1.55866297109451       -1.53919080384303
H            6.91288479829357        1.75488402334463       -0.77399957873436
H            8.64511730200987        1.78405131211408        0.81230668813454
H            9.18840287768242        1.14312482677043       -0.76437002570897
H           10.04056917475400        0.67843718093025        0.73060909797884
H            7.06954900271830       -4.28269520562654        1.57022956533479
H            5.45419203258116       -3.54968171687749        1.73517391811928
H            6.02291754925260       -4.11254358070826        0.13818194250158
H            4.40564662969059       -2.42140845943465       -0.04742387133445
H           -0.26031734747070       -1.59960157927857       -1.66565457351507
H           -1.04612371714158       -1.21859284898056       -0.11793459941039
H            0.50504331232002       -2.07506698826992       -0.13327112969841
H           -4.64875457651236        2.96123257557189       -0.12803185575412
H           -3.73730815340896        2.95914527580213        2.77357795618542
H           -4.84875141245403        1.78610026441264        2.05716627044435
H           -5.32459103555413        3.48489971657848        2.18484058332620
H           -2.61911352671332        4.71916766942281        1.30479081810382
H           -3.05900165239546        4.83091063401263       -0.40515222753610
H           -4.25195402801426        5.20718215701059        0.83569719628347
H           -0.62108085635219        2.88034864932393        2.78189701920767
72
 energy: 25.528467865586 xtb: 6.6.1 (8d0f1dd)
N           -1.54309177847069        2.98637419995420        2.32536883894956
C           -1.55663738274749        2.20350635754558        1.30558361964701
C           -2.73682632337797        2.10443778277105        0.34480318786899
C           -3.33136641540931        0.68895577227493        0.36590272841439
C           -4.22235035477228        0.21525736115280       -0.63047453458947
C           -4.73199180648906       -1.08832218900034       -0.72293147246439
O           -5.46011076527063       -1.71323310576112       -1.88675374040842
C           -6.39419111427028       -0.95265198813747       -2.71915009514432
C           -4.38361919485230       -1.90642818218711        0.41298774729216
O           -4.94182932540253       -3.16528907652288        0.46291396315518
C           -4.66894824840364       -4.00113992528251        1.56260736730856
C           -3.51680907171300       -1.45142113105818        1.41547536293338
C           -2.97352647417176       -0.17673076017886        1.38496846883658
C           -2.15246242188559        2.38501117420594       -1.07060489299533
C           -1.23805599940634        1.28231329704810       -1.64655982374026
C            0.02676592026459        1.21086089290209       -0.87316763007587
N            0.64064201163557       -0.07507074442790       -0.50933091384860
C            1.99939650129669       -0.09118984172366       -0.13921652401935
C            2.93496170179226       -0.55867175052438       -1.28392627092518
C            4.35750961695194       -0.45848638290320       -0.86746896498135
C            5.06771399210937        0.71614753189861       -1.04238855956379
C            6.37838678086145        0.82755122657683       -0.60420013467793
C            6.99595429329325       -0.23753758901561        0.02381278592883
O            8.29535448662618       -0.24691879527438        0.48571772248514
C            9.06568255505283        0.90414095222093        0.29231948456913
C            6.27985668779308       -1.43152638140837        0.22423253175437
O            6.97716294435040       -2.43441431095504        0.85451387505041
C            6.33486902407413       -3.66338278810823        1.05287941471495
C            4.97512671173458       -1.52577357642955       -0.21569560658706
C           -0.09250181572297       -1.28962465475053       -0.62587000758881
C           -3.87145517494312        3.10717315262783        0.65882992302087
C           -4.48535605199963        2.82646569728152        2.03108790879007
C           -3.42367797490723        4.56921958719151        0.59990872779386
H           -4.48599481612899        0.91558700771672       -1.40898713278870
H           -6.57042457431149       -0.18275463095383       -1.93280009109948
H           -7.28224652933345       -1.55596879359667       -3.05620485335917
H           -6.02825382773435       -0.52613151440601       -3.71680541619339
H           -4.96435404185087       -3.55267761743931        2.52193938423031
H           -5.26981027928756       -4.89421883537958        1.38886329242488
H           -3.61075436612085       -4.29149106354460        1.62006582730144
H           -3.21717460105971       -2.08987511828262        2.24289208363765
H           -2.27845939567398        0.13889805672108        2.15678395856064
H           -2.98576117164269        2.54610126053805       -1.76168937187127
H           -1.56802259363638        3.30809135654356       -1.03198039266301
H           -1.76525781132649        0.32980869800604       -1.61995634318455
H           -1.07413103966791        1.53002200124827       -2.71307679790234
H           -0.70612076963627        1.62504037811623        0.94689222600561
H            0.74247353083900        2.00477763719704       -0.97281918059970
H            2.14125723100885       -0.75298416823565        0.73078127020274
H            2.29570493943943        0.91707539168454        0.16433116138595
H            2.73402974380649        0.07833011929463       -2.14738292481243
H            2.66777991497848       -1.58528811672425       -1.54284868508405
H            4.59582076213933        1.55668020415606       -1.52999667634622
H            6.90754553160285        1.75360007019695       -0.76769340598749
H            8.64306410082623        1.77302327890581        0.81080632791343
H            9.18346993069979        1.14425452623471       -0.77154849208668
H           10.04202506457901        0.67303271947880        0.71746289485941
H            7.07562632337525       -4.30204759427899        1.53368285006848
H            5.46160838839292       -3.56827429899602        1.70819736317594
H            6.02484221026459       -4.12127508264875        0.10607065581777
H            4.40731098776009       -2.43146977276914       -0.06600388540155
H           -0.27575349886612       -1.58763078693822       -1.67045419025329
H           -1.06070368698642       -1.20916217963550       -0.12253101438353
H            0.48027031845140       -2.08183051627189       -0.13974163045025
H           -4.64858050138485        2.96067399969558       -0.10307422589657
H           -3.73158813570166        2.98516394114588        2.79555008880505
H           -4.83857201259963        1.79905199428124        2.09225911145146
H           -5.32436734275930        3.49600415999521        2.20934931502178
H           -2.62827984260326        4.73667202812020        1.31870830066704
H           -3.06864926681184        4.83878083389983       -0.39165197523559
H           -4.26365882303011        5.21618270929225        0.84733957709910
H           -0.62858639077596        2.92591674258353        2.79158283819290
72
 energy: 38.237145865898 xtb: 6.6.1 (8d0f1dd)
N           -1.55253802468596        3.00904606353069        2.33395988587311
C           -1.55755818586975        2.23738630679356        1.33627958383617
C           -2.73650366959807        2.11263806794001        0.36587716978908
C           -3.33164676243219        0.69170575754148        0.36697926128079
C           -4.18758153702649        0.19716853447430       -0.65471426010266
C           -4.70165672045368       -1.10503453242037       -0.76368198334560
O           -5.34533936886408       -1.74974068491666       -2.03893364332246
C           -6.39916688874553       -1.02951194939151       -2.82121008332718
C           -4.38307206997021       -1.90135603388012        0.39803757971019
O           -4.92544091152010       -3.16140885844452        0.48589602916893
C           -4.66997358954965       -3.97264378739895        1.60634454462941
C           -3.54491875189303       -1.43174225210108        1.42640128003700
C           -2.99847233010557       -0.15921246849091        1.40983472265351
C           -2.13932834594257        2.41384642515378       -1.04040790891213
C           -1.23582124587441        1.30365841623593       -1.62274016843465
C            0.03769830167808        1.21329497113320       -0.88534519486154
N            0.62602237395917       -0.06200031785918       -0.50360944277453
C            1.99459325841818       -0.09650319600481       -0.13154950581531
C            2.92663109642225       -0.56192314029181       -1.28567833200785
C            4.35486675230454       -0.46277213558366       -0.86730449144910
C            5.06475121540486        0.71223514421337       -1.04020836759104
C            6.37761839907159        0.82388414382917       -0.60544509038663
C            6.99762604608273       -0.24571785445166        0.01381970339470
O            8.29432114993863       -0.25439545597436        0.47159524801294
C            9.06386685645180        0.89780432788809        0.28466323315014
C            6.28434597316913       -1.44278768953435        0.20792708335606
O            6.97997707244052       -2.44653323802291        0.83123609417465
C            6.34001218024337       -3.67684421287419        1.02476136811842
C            4.97604777308044       -1.53538085767090       -0.22852431841707
C           -0.10749134250019       -1.27816006967147       -0.62931707536440
C           -3.87046726239099        3.11721238986622        0.68274950008328
C           -4.48117192507215        2.83913817551257        2.05617592545611
C           -3.43003948859922        4.58077277655815        0.61280743508292
H           -4.43401957513907        0.90736487843938       -1.43092853499198
H           -6.50336192814263       -0.30965663661984       -2.00905990208794
H           -7.28566370540631       -1.66140253199950       -3.11740731759689
H           -6.13748735119104       -0.61571878451374       -3.85142897440210
H           -4.98722437448108       -3.50891850420318        2.55045355911749
H           -5.26356519514099       -4.87144165939363        1.43956529527412
H           -3.61368375979147       -4.25939877775278        1.69295233050673
H           -3.26561620179188       -2.05440378456570        2.27375629966415
H           -2.32168509821758        0.16838689151648        2.19732169628162
H           -2.96988473525450        2.59179160941862       -1.72527750627334
H           -1.54514502211262        3.32746556688191       -0.98430140973292
H           -1.76014702877652        0.35189548585526       -1.61760078268266
H           -1.07696153895364        1.57076620384554       -2.68451043759881
H           -0.71235518489919        1.61901839337802        1.03764033411319
H            0.76792866816315        1.99398534719633       -0.96521681650805
H            2.14289481813461       -0.77510433723721        0.72750578172031
H            2.30284278839323        0.90218354318853        0.18370620251950
H            2.72710167061185        0.08061477261245       -2.14426217614093
H            2.66453470691570       -1.58792728523446       -1.55220549628740
H            4.58952007978348        1.55462297485226       -1.52164140829720
H            6.90221742723463        1.75227559658598       -0.76208938455485
H            8.64192695650661        1.76284606427177        0.80989448129767
H            9.17942696999718        1.14517709711382       -0.77766530067383
H           10.04279002506243        0.66814673607416        0.70516068152209
H            7.08110364069783       -4.31935531643248        1.49944066121506
H            5.46902845541388       -3.58572965600455        1.68388287427808
H            6.02751470762826       -4.12945590253377        0.07647517980405
H            4.40920429303080       -2.44175717080838       -0.08349463635059
H           -0.28793770031573       -1.57385381113441       -1.67253772560157
H           -1.07537089801476       -1.20113208342823       -0.12674204604138
H            0.45678180071490       -2.08335020886498       -0.14765398980683
H           -4.64536604142310        2.95791392566770       -0.07857912382048
H           -3.72946715620049        3.01056889195451        2.81838041756784
H           -4.82975244265592        1.81165848451422        2.12521798921660
H           -5.32176074327557        3.50484558721327        2.23092009873596
H           -2.63766914375341        4.75618483423612        1.33229991401004
H           -3.07834835756467        4.84757864105183       -0.37957101406972
H           -4.27273341878029        5.22233466440639        0.85745915447890
H           -0.63790124172598        2.97414833172110        2.79595157862819
72
 energy: 51.235687562880 xtb: 6.6.1 (8d0f1dd)
N           -1.54837936840265        3.05505881146433        2.33001477552398
C           -1.56717199346626        2.23774738350881        1.37231872157766
C           -2.73423905731263        2.11622068362741        0.38497928913275
C           -3.33200050905705        0.69431122581557        0.36644581091131
C           -4.14657657704505        0.18075336579520       -0.68577476890539
C           -4.65808232846369       -1.12649074728548       -0.81236963273445
O           -5.24889505148809       -1.76581438658164       -2.16812443305429
C           -6.39835352425301       -1.11209033212475       -2.92645607042674
C           -4.37801129550532       -1.90327597792624        0.37857177998019
O           -4.90639553023263       -3.15878500022451        0.49921397468713
C           -4.67348190071542       -3.94110748316600        1.64947465546569
C           -3.57278875903195       -1.41281495863311        1.43395208483327
C           -3.02337057821539       -0.14300734440558        1.42786957692524
C           -2.12307554601932        2.43797316801603       -1.00845339991844
C           -1.22845188474579        1.32611950465077       -1.60178501997544
C            0.05607403795218        1.20111522645410       -0.89198860806921
N            0.61030604166422       -0.04323376527942       -0.49860882614491
C            1.98938149073225       -0.10267422666222       -0.12478241965841
C            2.91586727690621       -0.56329088956909       -1.28533941318234
C            4.35034298731696       -0.46640131796462       -0.86680070864641