25
 energy: -42.108542089367 gnorm: 0.002394665559 xtb: 6.6.1 (8d0f1dd)
C            3.17892801995502        0.89417471515356       -0.22374619745753
N            2.27857974595971       -0.08090612872115       -0.16879000569925
C            2.49672920573944       -1.41650326081710       -0.18404384747041
N            1.31006520266074       -2.08002249618305       -0.12427520099933
C            0.31087671468400       -1.15991578437462       -0.06554911956405
C            0.89756303441845        0.09413571600567       -0.08956060846540
C            0.11597573485721        1.30881708173250       -0.04166609411276
O            0.55659102924294        2.43363855355916       -0.04251847767256
N           -1.25062140200871        1.02756789145291        0.01109441823779
C           -2.16773688998994        2.15806031874505        0.04502102033337
C           -1.86242303167145       -0.21198136105347        0.02607548160912
O           -3.05364910018619       -0.34089542179875        0.06464286605749
N           -1.01834885789907       -1.34534318211395       -0.00372349176224
C           -1.61894385171965       -2.66452279680545        0.01100842539410
H            3.81676116288406        3.26828635602817        1.46912377551041
H            4.22300802042109        0.65050481215536       -0.28182309962153
H            2.83154544914018        1.91211522590003       -0.21517667141384
H            3.45650704041988       -1.88446329390328       -0.24657117636943
H           -1.57913712284430        3.07195641666448        0.06859942899568
H           -2.80673742578976        2.14276110456213       -0.83831330147177
H           -2.80389363806232        2.09150188168591        0.92740838864611
H           -1.30463227529395       -3.21914797184062        0.89572738772840
H           -1.35373574556508       -3.21550000881172       -0.89204761666237
H           -2.69993256300329       -2.53184638465542        0.04118444256191
H            1.20709305775095       -3.08423344096631       -0.11090910843191
