      -----------------------------------------------------------      
     |                   =====================                   |     
     |                           x T B                           |     
     |                   =====================                   |     
     |                         S. Grimme                         |     
     |          Mulliken Center for Theoretical Chemistry        |     
     |                    University of Bonn                     |     
      -----------------------------------------------------------      

   * xtb version 6.6.1 (8d0f1dd) compiled by 'conda@1efc2f54142f' on 2023-08-01

   xtb is free software: you can redistribute it and/or modify it under
   the terms of the GNU Lesser General Public License as published by
   the Free Software Foundation, either version 3 of the License, or
   (at your option) any later version.
   
   xtb is distributed in the hope that it will be useful,
   but WITHOUT ANY WARRANTY; without even the implied warranty of
   MERCHANTABILITY or FITNESS FOR A PARTICULAR PURPOSE.  See the
   GNU Lesser General Public License for more details.
   
   Cite this work as:
   * C. Bannwarth, E. Caldeweyher, S. Ehlert, A. Hansen, P. Pracht,
     J. Seibert, S. Spicher, S. Grimme, WIREs Comput. Mol. Sci., 2020, 11,
     e01493. DOI: 10.1002/wcms.1493
   
   for GFN2-xTB:
   * C. Bannwarth, S. Ehlert and S. Grimme., J. Chem. Theory Comput., 2019,
     15, 1652-1671. DOI: 10.1021/acs.jctc.8b01176
   for GFN1-xTB:
   * S. Grimme, C. Bannwarth, P. Shushkov, J. Chem. Theory Comput., 2017,
     13, 1989-2009. DOI: 10.1021/acs.jctc.7b00118
   for GFN0-xTB:
   * P. Pracht, E. Caldeweyher, S. Ehlert, S. Grimme, ChemRxiv, 2019, preprint.
     DOI: 10.26434/chemrxiv.8326202.v1
   for GFN-FF:
   * S. Spicher and S. Grimme, Angew. Chem. Int. Ed., 2020, 59, 15665-15673.
     DOI: 10.1002/anie.202004239
   
   for ALPB and GBSA implicit solvation:
   * S. Ehlert, M. Stahn, S. Spicher, S. Grimme, J. Chem. Theory Comput.,
     2021, 17, 4250-4261. DOI: 10.1021/acs.jctc.1c00471
   
   for DFT-D4:
   * E. Caldeweyher, C. Bannwarth and S. Grimme, J. Chem. Phys., 2017,
     147, 034112. DOI: 10.1063/1.4993215
   * E. Caldeweyher, S. Ehlert, A. Hansen, H. Neugebauer, S. Spicher,
     C. Bannwarth and S. Grimme, J. Chem. Phys., 2019, 150, 154122.
     DOI: 10.1063/1.5090222
   * E. Caldeweyher, J.-M. Mewes, S. Ehlert and S. Grimme, Phys. Chem. Chem. Phys.
     2020, 22, 8499-8512. DOI: 10.1039/D0CP00502A
   
   for sTDA-xTB:
   * S. Grimme and C. Bannwarth, J. Chem. Phys., 2016, 145, 054103.
     DOI: 10.1063/1.4959605
   
   in the mass-spec context:
   * V. Asgeirsson, C. Bauer and S. Grimme, Chem. Sci., 2017, 8, 4879.
     DOI: 10.1039/c7sc00601b
   * J. Koopman and S. Grimme, ACS Omega 2019, 4, 12, 15120-15133.
     DOI: 10.1021/acsomega.9b02011
   
   for metadynamics refer to:
   * S. Grimme, J. Chem. Theory Comput., 2019, 155, 2847-2862
     DOI: 10.1021/acs.jctc.9b00143
   
   for SPH calculations refer to:
   * S. Spicher and S. Grimme, J. Chem. Theory Comput., 2021, 17, 1701-1714
     DOI: 10.1021/acs.jctc.0c01306
   
   with help from (in alphabetical order)
   P. Atkinson, C. Bannwarth, F. Bohle, G. Brandenburg, E. Caldeweyher
   M. Checinski, S. Dohm, S. Ehlert, S. Ehrlich, I. Gerasimov, C. Hölzer
   A. Katbashev, J. Koopman, C. Lavigne, S. Lehtola, F. März, M. Müller,
   F. Musil, H. Neugebauer, J. Pisarek, C. Plett, P. Pracht, F. Pultar,
   J. Seibert, P. Shushkov, S. Spicher, M. Stahn, M. Steiner, T. Strunk,
   J. Stückrath, T. Rose, and J. Unsleber
   
 * started run on 2024/06/05 at 19:58:08.291     

           -------------------------------------------------
          |                Calculation Setup                |
           -------------------------------------------------

          program call               : xtb xtbopt.xyz --opt crude --input .xc2 --gfn2
          hostname                   : n-62-21-68
          coordinate file            : xtbopt.xyz
          omp threads                :                     1

   ID    Z sym.   atoms
    1    6 C      1, 3, 5-7, 10, 11, 14
    2    7 N      2, 4, 9, 13
    3    8 O      8, 12
    4    1 H      15-25
########################################################################
[WARNING] Please study the warnings concerning your input carefully
-1- readin_getIntValue: could not parse ''
########################################################################

           -------------------------------------------------
          |                 G F N 2 - x T B                 |
           -------------------------------------------------

        Reference                      10.1021/acs.jctc.8b01176
      * Hamiltonian:
        H0-scaling (s, p, d)           1.850000    2.230000    2.230000
        zeta-weighting                 0.500000
      * Dispersion:
        s8                             2.700000
        a1                             0.520000
        a2                             5.000000
        s9                             5.000000
      * Repulsion:
        kExp                           1.500000    1.000000
        rExp                           1.000000
      * Coulomb:
        alpha                          2.000000
        third order                    shell-resolved
        anisotropic                    true
        a3                             3.000000
        a5                             4.000000
        cn-shift                       1.200000
        cn-exp                         4.000000
        max-rad                        5.000000

q/qsh data taken from xtbrestart
CAMM data taken from xtbrestart

          ...................................................
          :                      SETUP                      :
          :.................................................:
          :  # basis functions                  67          :
          :  # atomic orbitals                  67          :
          :  # shells                           39          :
          :  # electrons                        74          :
          :  max. iterations                   250          :
          :  Hamiltonian                  GFN2-xTB          :
          :  restarted?                       true          :
          :  GBSA solvation                  false          :
          :  PC potential                    false          :
          :  electronic temp.         5000.0000000     K    :
          :  accuracy                    1.0000000          :
          :  -> integral cutoff          0.2500000E+02      :
          :  -> integral neglect         0.1000000E-07      :
          :  -> SCF convergence          0.1000000E-05 Eh   :
          :  -> wf. convergence          0.1000000E-03 e    :
          :  Broyden damping             0.4000000          :
          ...................................................

 iter      E             dE          RMSdq      gap      omega  full diag
   1    -42.6927899 -0.426928E+02  0.305E-05    1.41       0.0  T
   2    -42.6927899  0.351008E-10  0.446E-05    1.41     448.8  T
   3    -42.6927899 -0.544418E-10  0.107E-05    1.41    1866.1  T

   *** convergence criteria satisfied after 3 iterations ***

         #    Occupation            Energy/Eh            Energy/eV
      -------------------------------------------------------------
         1        2.0000           -0.8999162             -24.4880
       ...           ...                  ...                  ...
        31        2.0000           -0.6183413             -16.8259
        32        1.9999           -0.6022871             -16.3891
        33        1.9999           -0.5998801             -16.3236
        34        1.9995           -0.5796938             -15.7743
        35        1.9989           -0.5675899             -15.4449
        36        1.9968           -0.5510407             -14.9946
        37        1.5904           -0.4704176             -12.8007 (HOMO)
        38        0.2558           -0.4185419             -11.3891 (LUMO)
        39        0.1434           -0.4083852             -11.1127
        40        0.0155           -0.3720708             -10.1246
        41        0.0000           -0.2803013              -7.6274
        42        0.0000           -0.1944894              -5.2923
       ...           ...                  ...                  ...
        67                          0.5385601              14.6550
      -------------------------------------------------------------
                  HL-Gap            0.0518757 Eh            1.4116 eV
             Fermi-level           -0.4489355 Eh          -12.2162 eV

 SCC (total)                   0 d,  0 h,  0 min,  0.027 sec
 SCC setup                      ...        0 min,  0.000 sec (  1.130%)
 Dispersion                     ...        0 min,  0.000 sec (  1.347%)
 classical contributions        ...        0 min,  0.000 sec (  0.403%)
 integral evaluation            ...        0 min,  0.007 sec ( 25.524%)
 iterations                     ...        0 min,  0.006 sec ( 22.568%)
 molecular gradient             ...        0 min,  0.013 sec ( 48.350%)
 printout                       ...        0 min,  0.000 sec (  0.627%)

         :::::::::::::::::::::::::::::::::::::::::::::::::::::
         ::                     SUMMARY                     ::
         :::::::::::::::::::::::::::::::::::::::::::::::::::::
         :: total energy             -42.175780713479 Eh    ::
         :: gradient norm              0.005163588704 Eh/a0 ::
         :: HOMO-LUMO gap              1.411609573884 eV    ::
         ::.................................................::
         :: SCC energy               -42.692789913906 Eh    ::
         :: -> isotropic ES            0.126651457799 Eh    ::
         :: -> anisotropic ES         -0.003125539490 Eh    ::
         :: -> anisotropic XC          0.011322118802 Eh    ::
         :: -> dispersion             -0.023014111803 Eh    ::
         :: repulsion energy           0.516904111706 Eh    ::
         :: add. restraining           0.000000000000 Eh    ::
         :: total charge               0.999999999999 e     ::
         :::::::::::::::::::::::::::::::::::::::::::::::::::::

      ----------------------------------------------------------- 
     |                   =====================                   |
     |                        A N C O P T                        |
     |                   =====================                   |
     |               Approximate Normal Coordinate               |
     |                Rational Function Optimizer                |
      ----------------------------------------------------------- 

          ...................................................
          :                      SETUP                      :
          :.................................................:
          :   optimization level             crude          :
          :   max. optcycles                   200          :
          :   ANC micro-cycles                  20          :
          :   degrees of freedom                69          :
          :.................................................:
          :   RF solver                   davidson          :
          :   write xtbopt.log                true          :
          :   linear?                        false          :
          :   energy convergence         0.5000000E-03 Eh   :
          :   grad. convergence          0.1000000E-01 Eh/α :
          :   maxmium RF displ.          1.0000000          :
          :   Hlow (freq-cutoff)         0.1000000E-01      :
          :   Hmax (freq-cutoff)         5.0000000          :
          :   S6 in model hess.         20.0000000          :
          ...................................................

generating ANC from model Hessian ...
Using Lindh-Hessian (1995)
 Shifting diagonal of input Hessian by    7.3327612501703420E-003
 Lowest  eigenvalues of input Hessian
    0.000000    0.000000    0.000000    0.000000    0.000000    0.000000
    0.010000    0.011029    0.012024    0.015964    0.016330    0.017324
    0.019421    0.023116    0.024044    0.027371    0.030022    0.034939
 Highest eigenvalues
    2.052052    2.127590    2.138718    2.262450    2.367031    2.474089


........................................................................
.............................. CYCLE    1 ..............................
........................................................................

 iter      E             dE          RMSdq      gap      omega  full diag
   1    -42.6927899 -0.426928E+02  0.646E-06    1.41       0.0  T
   2    -42.6927899  0.135003E-12  0.505E-06    1.41    3961.5  T
   3    -42.6927899 -0.305533E-12  0.342E-06    1.41    5855.7  T
     SCC iter.                  ...        0 min,  0.005 sec
     gradient                   ...        0 min,  0.013 sec
 * total energy  :   -42.1757807 Eh     change       -0.1101341E-11 Eh
   gradient norm :     0.0051636 Eh/α   predicted     0.0000000E+00 (-100.00%)
   displ. norm   :     0.1343738 α      lambda       -0.3851526E-03
   maximum displ.:     0.0688745 α      in ANC's #3, #10, #2, ...

   *** GEOMETRY OPTIMIZATION CONVERGED AFTER 1 ITERATIONS ***

------------------------------------------------------------------------
 total energy gain   :        -0.0000000 Eh       -0.0000 kcal/mol
 total RMSD          :         0.0000001 a0        0.0000 Å
 total power (kW/mol):        -0.0000000 (step)   -0.0000 (real)
------------------------------------------------------------------------

 ANCopt (total)                0 d,  0 h,  0 min,  0.033 sec
 optimizer setup                ...        0 min,  0.000 sec (  1.277%)
 model hessian                  ...        0 min,  0.007 sec ( 19.786%)
 ANC generation                 ...        0 min,  0.001 sec (  2.657%)
 coordinate transformation      ...        0 min,  0.000 sec (  0.023%)
 single point calculation       ...        0 min,  0.023 sec ( 70.227%)
 optimization log               ...        0 min,  0.002 sec (  5.194%)
 hessian update                 ...        0 min,  0.000 sec (  0.005%)
 rational function              ...        0 min,  0.000 sec (  0.280%)

================
 final structure:
================
25
 xtb: 6.6.1 (8d0f1dd)
C            3.23507614974016        1.20611263815585       -0.03674535448903
N            2.32946878435327        0.08937857540136       -0.05584174526447
C            2.66096018583270       -1.20858259345423       -0.08095565165163
N            1.53829518601449       -1.96802032175513       -0.05639433535653
C            0.46238441678712       -1.12405311686674       -0.01474007331548
C            0.95662781238021        0.17696713577708       -0.01236022888213
C            0.10647200945452        1.33265704396841        0.03068373032576
O            0.44042884340306        2.49937896442561        0.04613235871572
N           -1.25290810151379        0.94209407912871        0.04776939105506
C           -2.25112755819069        1.99811274810300        0.07654363031176
C           -1.69621476769757       -0.33313646525857        0.02599534280475
O           -3.01126678253449       -0.51669369094041       -0.01614762254867
N           -0.87442674486781       -1.42657271313241        0.03257790267319
C           -1.35743974248636       -2.70013678703681        0.02052439995581
H            3.76506900884003        1.24772138415994        0.91633924816290
H            3.96414887146021        1.11614039151986       -0.84121697558219
H            2.65888342928314        2.12217731080830       -0.16001540180429
H            3.65832616495692       -1.59466382895623       -0.11629277319557
H           -1.71646790513204        2.94587498873819        0.08765385735852
H           -2.88818704613292        1.93767003791306       -0.80468880340438
H           -2.86957112082766        1.90494299431404        0.96746689794203
H           -2.33102057288025       -2.91797586995355        0.40855475056085
H           -0.66860886725702       -3.50046872208438       -0.10084905155261
H           -3.21298903209075       -1.43440160696547       -0.27253882843527
H            1.51451889320453       -2.97628403440988       -0.06028304648425

 Bond Distances (Angstroems)
 ---------------------------
C1-N2=1.4379         C1-H15=1.0913        C1-H16=1.0894        C1-H17=1.0892        N2-C1=1.4379         N2-C3=1.3399         
N2-C6=1.3763         C3-N2=1.3399         C3-N4=1.3556         C3-H18=1.0701        N4-C3=1.3556         N4-C5=1.3681         
N4-H25=1.0086        C5-N4=1.3681         C5-C6=1.3917         C5-N13=1.3714        C6-N2=1.3763         C6-C5=1.3917         
C6-C7=1.4354         C7-C6=1.4354         C7-O8=1.2137         C7-N9=1.4145         O8-C7=1.2137         N9-C7=1.4145         
N9-C10=1.4534        N9-C11=1.3503        C10-N9=1.4534        C10-H19=1.0882       C10-H20=1.0891       C10-H21=1.0885       
C11-N9=1.3503        C11-O12=1.3285       C11-N13=1.3678       O12-C11=1.3285       O12-H24=0.9740       N13-C5=1.3714        
N13-C11=1.3678       N13-C14=1.3621       C14-N13=1.3621       C14-H22=1.0705       C14-H23=1.0629       H15-C1=1.0913        
H16-C1=1.0894        H17-C1=1.0892        H18-C3=1.0701        H19-C10=1.0882       H20-C10=1.0891       H21-C10=1.0885       
H22-C14=1.0705       H23-C14=1.0629       H24-O12=0.9740       H25-N4=1.0086        
 C  H  Rav=1.0821 sigma=0.0104  Rmin=1.0629  Rmax=1.0913     9
 C  C  Rav=1.4135 sigma=0.0218  Rmin=1.3917  Rmax=1.4354     2
 N  H  Rav=1.0086 sigma=0.0000  Rmin=1.0086  Rmax=1.0086     1
 N  C  Rav=1.3816 sigma=0.0353  Rmin=1.3399  Rmax=1.4534    11
 O  H  Rav=0.9740 sigma=0.0000  Rmin=0.9740  Rmax=0.9740     1
 O  C  Rav=1.2711 sigma=0.0574  Rmin=1.2137  Rmax=1.3285     2

 selected bond angles (degree)
 --------------------
H15-C1-N2=110.31               H16-C1-N2=110.34               H16-C1-H15=108.85              H17-C1-N2=108.57               
H17-C1-H15=108.89              H17-C1-H16=109.87              C3-N2-C1=126.64                C6-N2-C1=125.34                
C6-N2-C3=108.00                N4-C3-N2=109.72                H18-C3-N2=125.50               H18-C3-N4=124.78               
C5-N4-C3=107.83                H25-N4-C3=125.42               H25-N4-C5=126.75               C6-C5-N4=107.30                
N13-C5-N4=129.17               N13-C5-C6=123.53               C5-C6-N2=107.14                C7-C6-N2=130.02                
C7-C6-C5=122.85                O8-C7-C6=127.69                N9-C7-C6=110.32                N9-C7-O8=121.99                
C10-N9-C7=117.37               C11-N9-C7=125.18               C11-N9-C10=117.45              H19-C10-N9=107.19              
H20-C10-N9=110.21              H20-C10-H19=110.12             H21-C10-N9=110.13              H21-C10-H19=110.20             
H21-C10-H20=108.98             

 selected dihedral angles (degree)
 ---------------------------------
C3-N2-C1-H15=291.35           C3-N2-C1-H16= 51.65           C3-N2-C1-H17=172.11           C6-N2-C1-H15=109.36           
C6-N2-C1-H16=229.66           C6-N2-C1-H17=350.13           N4-C3-N2-C1=178.36            N4-C3-N2-C6=  0.07            
H18-C3-N2-C1=358.29           H18-C3-N2-C6=180.00           C5-N4-C3-N2=  0.00            C5-N4-C3-H18=180.08           
H25-N4-C3-N2=180.50           H25-N4-C3-H18=  0.57          C6-C5-N4-C3=359.91            C6-C5-N4-H25=179.41           
N13-C5-N4-C3=180.60           N13-C5-N4-H25=  0.10          C5-C6-N2-C1=181.56            C5-C6-N2-C3=359.88            
C7-C6-N2-C1=  1.49            C7-C6-N2-C3=179.82            N2-C6-C5-N4=  0.13            N2-C6-C5-N13=179.49           
C7-C6-C5-N4=180.19            C7-C6-C5-N13=359.55           O8-C7-C6-N2=359.48            O8-C7-C6-C5=179.41            
N9-C7-C6-N2=179.18            N9-C7-C6-C5=359.11            C10-N9-C7-C6=180.66           C10-N9-C7-O8=  0.37           
C11-N9-C7-C6=359.96           C11-N9-C7-O8=179.67           H19-C10-N9-C7=359.55          H19-C10-N9-C11=180.19         
H20-C10-N9-C7=119.39          H20-C10-N9-C11=300.03         H21-C10-N9-C7=239.65          H21-C10-N9-C11= 60.29         
           -------------------------------------------------
          |                Final Singlepoint                |
           -------------------------------------------------

          ...................................................
          :                      SETUP                      :
          :.................................................:
          :  # basis functions                  67          :
          :  # atomic orbitals                  67          :
          :  # shells                           39          :
          :  # electrons                        74          :
          :  max. iterations                   250          :
          :  Hamiltonian                  GFN2-xTB          :
          :  restarted?                      false          :
          :  GBSA solvation                  false          :
          :  PC potential                    false          :
          :  electronic temp.         5000.0000000     K    :
          :  accuracy                    1.0000000          :
          :  -> integral cutoff          0.2500000E+02      :
          :  -> integral neglect         0.1000000E-07      :
          :  -> SCF convergence          0.1000000E-05 Eh   :
          :  -> wf. convergence          0.1000000E-03 e    :
          :  Broyden damping             0.4000000          :
          ...................................................

 iter      E             dE          RMSdq      gap      omega  full diag
   1    -42.6927899 -0.426928E+02  0.290E-06    1.41       0.0  T
   2    -42.6927899  0.419220E-12  0.497E-06    1.41    4023.3  T
   3    -42.6927899 -0.653699E-12  0.725E-07    1.41   27578.7  T

   *** convergence criteria satisfied after 3 iterations ***

         #    Occupation            Energy/Eh            Energy/eV
      -------------------------------------------------------------
         1        2.0000           -0.8999162             -24.4880
       ...           ...                  ...                  ...
        31        2.0000           -0.6183412             -16.8259
        32        1.9999           -0.6022871             -16.3891
        33        1.9999           -0.5998801             -16.3236
        34        1.9995           -0.5796938             -15.7743
        35        1.9989           -0.5675899             -15.4449
        36        1.9968           -0.5510408             -14.9946
        37        1.5904           -0.4704175             -12.8007 (HOMO)
        38        0.2558           -0.4185419             -11.3891 (LUMO)
        39        0.1434           -0.4083852             -11.1127
        40        0.0155           -0.3720708             -10.1246
        41        0.0000           -0.2803013              -7.6274
        42        0.0000           -0.1944894              -5.2923
       ...           ...                  ...                  ...
        67                          0.5385601              14.6550
      -------------------------------------------------------------
                  HL-Gap            0.0518756 Eh            1.4116 eV
             Fermi-level           -0.4489354 Eh          -12.2162 eV

 SCC (total)                   0 d,  0 h,  0 min,  0.023 sec
 SCC setup                      ...        0 min,  0.000 sec (  0.824%)
 Dispersion                     ...        0 min,  0.000 sec (  0.773%)
 classical contributions        ...        0 min,  0.000 sec (  0.304%)
 integral evaluation            ...        0 min,  0.005 sec ( 21.522%)
 iterations                     ...        0 min,  0.005 sec ( 20.342%)
 molecular gradient             ...        0 min,  0.013 sec ( 55.576%)
 printout                       ...        0 min,  0.000 sec (  0.602%)

         :::::::::::::::::::::::::::::::::::::::::::::::::::::
         ::                     SUMMARY                     ::
         :::::::::::::::::::::::::::::::::::::::::::::::::::::
         :: total energy             -42.175780713480 Eh    ::
         :: gradient norm              0.005163574675 Eh/a0 ::
         :: HOMO-LUMO gap              1.411606717136 eV    ::
         ::.................................................::
         :: SCC energy               -42.692789913907 Eh    ::
         :: -> isotropic ES            0.126651433494 Eh    ::
         :: -> anisotropic ES         -0.003125533545 Eh    ::
         :: -> anisotropic XC          0.011322114963 Eh    ::
         :: -> dispersion             -0.023014111639 Eh    ::
         :: repulsion energy           0.516904111706 Eh    ::
         :: add. restraining           0.000000000000 Eh    ::
         :: total charge               0.999999999999 e     ::
         :::::::::::::::::::::::::::::::::::::::::::::::::::::

           -------------------------------------------------
          |                Property Printout                |
           -------------------------------------------------

    * Orbital Energies and Occupations

         #    Occupation            Energy/Eh            Energy/eV
      -------------------------------------------------------------
         1        2.0000           -0.8999162             -24.4880
       ...           ...                  ...                  ...
        25        2.0000           -0.6678397             -18.1728
        26        2.0000           -0.6625505             -18.0289
        27        2.0000           -0.6584977             -17.9186
        28        2.0000           -0.6428456             -17.4927
        29        2.0000           -0.6345632             -17.2673
        30        2.0000           -0.6208485             -16.8941
        31        2.0000           -0.6183412             -16.8259
        32        1.9999           -0.6022871             -16.3891
        33        1.9999           -0.5998801             -16.3236
        34        1.9995           -0.5796938             -15.7743
        35        1.9989           -0.5675899             -15.4449
        36        1.9968           -0.5510408             -14.9946
        37        1.5904           -0.4704175             -12.8007 (HOMO)
        38        0.2558           -0.4185419             -11.3891 (LUMO)
        39        0.1434           -0.4083852             -11.1127
        40        0.0155           -0.3720708             -10.1246
        41        0.0000           -0.2803013              -7.6274
        42        0.0000           -0.1944894              -5.2923
        43        0.0000           -0.1859864              -5.0609
        44                         -0.1408138              -3.8317
        45                         -0.1242446              -3.3809
        46                         -0.0921181              -2.5067
        47                         -0.0520464              -1.4163
        48                         -0.0316402              -0.8610
       ...                                ...                  ...
        67                          0.5385601              14.6550
      -------------------------------------------------------------
                  HL-Gap            0.0518756 Eh            1.4116 eV
             Fermi-level           -0.4489354 Eh          -12.2162 eV

     #   Z          covCN         q      C6AA      α(0)
     1   6 C        3.691    -0.092    22.446     6.780
     2   7 N        2.826     0.067    20.071     6.654
     3   6 C        3.037     0.039    27.091     8.537
     4   7 N        2.781    -0.060    22.406     7.030
     5   6 C        3.073     0.082    26.109     8.378
     6   6 C        3.097    -0.018    28.343     8.725
     7   6 C        2.766     0.248    22.840     7.827
     8   8 O        0.857    -0.389    21.472     6.213
     9   7 N        2.746    -0.047    22.153     6.990
    10   6 C        3.707    -0.071    22.006     6.705
    11   6 C        2.773     0.226    23.255     7.898
    12   8 O        1.660    -0.331    19.552     5.969
    13   7 N        2.736     0.020    20.898     6.789
    14   6 C        2.797    -0.148    31.779     9.235
    15   1 H        0.924     0.102     1.764     2.077
    16   1 H        0.925     0.100     1.788     2.091
    17   1 H        0.925     0.133     1.513     1.923
    18   1 H        0.927     0.117     1.636     2.000
    19   1 H        0.925     0.124     1.584     1.968
    20   1 H        0.925     0.097     1.815     2.107
    21   1 H        0.925     0.098     1.807     2.102
    22   1 H        0.926     0.066     2.132     2.283
    23   1 H        0.927     0.058     2.218     2.329
    24   1 H        0.804     0.356     0.574     1.190
    25   1 H        0.860     0.224     0.992     1.560

 Mol. C6AA /au·bohr⁶  :       6642.824002
 Mol. C8AA /au·bohr⁸  :     153321.791521
 Mol. α(0) /au        :        125.361904


Wiberg/Mayer (AO) data.
largest (>0.10) Wiberg bond orders for each atom

 ---------------------------------------------------------------------------
     #   Z sym  total        # sym  WBO       # sym  WBO       # sym  WBO
 ---------------------------------------------------------------------------
     1   6 C    3.920 --     2 N    0.988    16 H    0.965    17 H    0.962
                            15 H    0.958
     2   7 N    3.603 --     3 C    1.331     6 C    1.154     1 C    0.988
     3   6 C    3.734 --     2 N    1.331     4 N    1.258    18 H    0.955
     4   7 N    3.527 --     3 C    1.258     5 C    1.178    25 H    0.920
     5   6 C    3.857 --     6 C    1.335     4 N    1.178    13 N    1.112
     6   6 C    3.879 --     5 C    1.335     2 N    1.154     7 C    1.106
     7   6 C    3.896 --     8 O    1.639     6 C    1.106     9 N    1.038
     8   8 O    1.943 --     7 C    1.639     9 N    0.135
     9   7 N    3.544 --    11 C    1.243     7 C    1.038    10 C    0.970
                             8 O    0.135
    10   6 C    3.916 --     9 N    0.970    21 H    0.966    20 H    0.965
                            19 H    0.965
    11   6 C    3.775 --     9 N    1.243    13 N    1.156    12 O    1.145
                            14 C    0.112
    12   8 O    2.160 --    11 C    1.145    24 H    0.827
    13   7 N    3.650 --    14 C    1.184    11 C    1.156     5 C    1.112
    14   6 C    3.395 --    13 N    1.184    23 H    0.974    22 H    0.962
                            11 C    0.112
    15   1 H    0.983 --     1 C    0.958
    16   1 H    0.985 --     1 C    0.965
    17   1 H    0.982 --     1 C    0.962
    18   1 H    0.985 --     3 C    0.955
    19   1 H    0.984 --    10 C    0.965
    20   1 H    0.986 --    10 C    0.965
    21   1 H    0.986 --    10 C    0.966
    22   1 H    0.993 --    14 C    0.962
    23   1 H    0.996 --    14 C    0.974
    24   1 H    0.871 --    12 O    0.827
    25   1 H    0.949 --     4 N    0.920
 ---------------------------------------------------------------------------

Topologies differ in total number of bonds
Writing topology from bond orders to xtbtopo.mol

molecular dipole:
                 x           y           z       tot (Debye)
 q only:        1.047      -1.877      -0.184
   full:        1.128      -2.631      -0.155       7.288
molecular quadrupole (traceless):
                xx          xy          yy          xz          yz          zz
 q only:       23.763      -4.016      -3.883       0.355       0.748     -19.879
  q+dip:       22.627      -5.231      -4.228       0.044       0.366     -18.398
   full:       22.236      -4.925      -4.962       0.230       0.389     -17.274

           -------------------------------------------------
          |                Geometry Summary                 |
           -------------------------------------------------

      molecular mass/u    :      195.1988581
   center of mass at/Å    :        0.0540903      -0.0531143       0.0008445
  moments of inertia/u·Å² :        0.4690842E+03   0.7245778E+03   0.1186565E+04
rotational constants/cm⁻¹ :        0.3593732E-01   0.2326546E-01   0.1420708E-01

 * 26 selected distances

     #   Z          #   Z                                           value/Å
     1   6 C        2   7 N                                       1.4379098
     2   7 N        3   6 C                                       1.3398585
     3   6 C        4   7 N                                       1.3556275
     4   7 N        5   6 C                                       1.3680643
     2   7 N        6   6 C                                       1.3763194
     5   6 C        6   6 C                                       1.3917386
     6   6 C        7   6 C                                       1.4353526
     7   6 C        8   8 O                                       1.2136746
     7   6 C        9   7 N                                       1.4144773
     9   7 N       10   6 C                                       1.4534256 (max)
     9   7 N       11   6 C                                       1.3502623
    11   6 C       12   8 O                                       1.3284696
     5   6 C       13   7 N                                       1.3714305
    11   6 C       13   7 N                                       1.3678385
    13   7 N       14   6 C                                       1.3621353
     1   6 C       15   1 H                                       1.0913268
     1   6 C       16   1 H                                       1.0894112
     1   6 C       17   1 H                                       1.0892053
     3   6 C       18   1 H                                       1.0700685
    10   6 C       19   1 H                                       1.0882269
    10   6 C       20   1 H                                       1.0890679
    10   6 C       21   1 H                                       1.0885300
    14   6 C       22   1 H                                       1.0704584
    14   6 C       23   1 H                                       1.0628974
    12   8 O       24   1 H                                       0.9739694 (min)
     4   7 N       25   1 H                                       1.0085516

 * 6 distinct bonds (by element types)

   Z      Z             #   av. dist./Å        max./Å        min./Å
   1 H    6 C           9     1.0821325     1.0913268     1.0628974
   6 C    6 C           2     1.4135456     1.4353526     1.3917386
   1 H    7 N           1     1.0085516     1.0085516     1.0085516
   6 C    7 N          11     1.3815772     1.4534256     1.3398585
   1 H    8 O           1     0.9739694     0.9739694     0.9739694
   6 C    8 O           2     1.2710721     1.3284696     1.2136746


optimized geometry written to: xtbopt.xyz


           -------------------------------------------------
          | TOTAL ENERGY              -42.175780713480 Eh   |
          | GRADIENT NORM               0.005163574675 Eh/α |
          | HOMO-LUMO GAP               1.411606717136 eV   |
           -------------------------------------------------

------------------------------------------------------------------------
 * finished run on 2024/06/05 at 19:58:08.415     
------------------------------------------------------------------------
 total:
 * wall-time:     0 d,  0 h,  0 min,  0.123 sec
 *  cpu-time:     0 d,  0 h,  0 min,  0.097 sec
 * ratio c/w:     0.789 speedup
 SCF:
 * wall-time:     0 d,  0 h,  0 min,  0.027 sec
 *  cpu-time:     0 d,  0 h,  0 min,  0.027 sec
 * ratio c/w:     1.000 speedup
 ANC optimizer:
 * wall-time:     0 d,  0 h,  0 min,  0.062 sec
 *  cpu-time:     0 d,  0 h,  0 min,  0.056 sec
 * ratio c/w:     0.894 speedup

