72
 energy: -103.312055310652 gnorm: 0.094112324496 xtb: 6.6.1 (8d0f1dd)
N           -1.48801377077370        2.75892376072973        2.24250051908556
C           -1.56167763332608        2.16375561988407        1.15563774299209
C           -2.74662284749189        2.06070761567102        0.24824943436059
C           -3.31222292838608        0.64796586238283        0.33085050956201
C           -4.30067916369939        0.25152009674971       -0.57245662692723
C           -4.85085548271466       -1.01585554769493       -0.52960097623930
O           -5.81702254637041       -1.47294238465288       -1.35836103684256
C           -6.39603475501985       -0.58971057515100       -2.28758447342117
C           -4.39898719709601       -1.94194761360259        0.44418996751592
O           -4.99032679308588       -3.15740477263053        0.40636862623085
C           -4.66423401184677       -4.09947538814397        1.40123026371943
C           -3.42035176528742       -1.54352668525012        1.33599642480653
C           -2.88262995485679       -0.26083651582524        1.28011718063710
C           -2.18525179823567        2.30642606198418       -1.17231688189706
C           -1.25460544123411        1.18333458363513       -1.65048899287728
C            0.01606389000782        1.11083674555864       -0.88331950999716
N            0.62816261400359       -0.02932734323268       -0.56465632547589
C            2.00949542263281       -0.03149156568503       -0.14975133793425
C            2.93349714299476       -0.54055994145604       -1.27331066962433
C            4.36441754744138       -0.43386588607245       -0.83349387354453
C            5.08094120227727        0.72968827225276       -1.03871409996842
C            6.39453146045453        0.83866755358658       -0.60356566333750
C            7.01001465618122       -0.21414445421881        0.05246450830910
O            8.28054929944252       -0.21709137423556        0.51775522548359
C            9.08070725052306        0.92210957756892        0.30969946497789
C            6.28061288351523       -1.40885311148041        0.27511144079517
O            6.96087962147766       -2.38795020088266        0.92050691038005
C            6.32687407713809       -3.62269019313804        1.14297556776737
C            4.97126663167090       -1.49705412954751       -0.16325153320983
C           -0.04793988633906       -1.30306565159833       -0.61343018623526
C           -3.88402816813963        3.07405649147936        0.57551677728078
C           -4.50858973295766        2.77272189185117        1.93692842548186
C           -3.43638901917193        4.51656539239153        0.51391776721078
H           -4.65655716225877        0.95584976330509       -1.30538614274267
H           -6.84743264517222        0.27584180179516       -1.79279374898928
H           -7.17401722745991       -1.16283547566404       -2.78740966323409
H           -5.66721501886827       -0.24888056655641       -3.03078826921591
H           -4.88289442341964       -3.71808383681342        2.40221563110949
H           -5.29343528431884       -4.96411762914118        1.19879944665107
H           -3.61191033930874       -4.39714651462878        1.34485207126109
H           -3.06881466940808       -2.22103259219403        2.09774268141111
H           -2.13986364939235        0.01849335974621        2.01496803026220
H           -3.01147144202569        2.39297158105266       -1.87387795316910
H           -1.63902014872401        3.25106219826258       -1.18482597237002
H           -1.80027242621947        0.23743587662613       -1.61181639303349
H           -1.00319727539951        1.38581852397283       -2.70035684650006
H           -0.67846141104051        1.65689289979359        0.64949555274331
H            0.65455829667070        1.99248384181662       -0.92565276621993
H            2.12148148024765       -0.66600931318097        0.73224904545854
H            2.31256802888570        0.98090412259960        0.12131521397894
H            2.76965301291925        0.06838162566996       -2.16222763729591
H            2.68499385563873       -1.57562875592052       -1.50747367815045
H            4.62736033482833        1.56184804800770       -1.55480972936715
H            6.93177475329116        1.75420321786076       -0.79054006289880
H            8.66483366283270        1.80180490760311        0.81030136438652
H            9.20892825754378        1.13552929673019       -0.75663880177327
H           10.04777750456770        0.68237067609666        0.74780890088062
H            7.06791653382171       -4.24529121326945        1.64105253495444
H            5.45165339315137       -3.51562422347672        1.79229795196489
H            6.02836468584775       -4.09909577329699        0.20291128965538
H            4.40948814809212       -2.40467536764504       -0.00668481438474
H           -0.21128030757911       -1.61971793082584       -1.64322927967268
H           -1.01378149130507       -1.24139678635079       -0.10421724695004
H            0.56288667622355       -2.05102793200056       -0.11515136729907
H           -4.67671529051381        2.96073092582186       -0.21483585226251
H           -3.77442395017004        2.89148901107490        2.72799766013829
H           -4.89413580012624        1.75708177094772        1.96801301743273
H           -5.33077114580662        3.45977185170959        2.12258006357015
H           -2.61372353678883        4.69077671730145        1.16891070566678
H           -3.12803269629946        4.77917568512883       -0.48936397530144
H           -4.25422128758426        5.17372574381724        0.79364052277856
H           -0.61555324145985        2.78064335016225        2.75774140824236
72
 energy: -103.315417593338 gnorm: 0.033027772764 xtb: 6.6.1 (8d0f1dd)
N           -1.50928495067394        2.79211653564322        2.25477418975009
C           -1.57189060149204        2.16157431759282        1.17424393663408
C           -2.75131437746051        2.06383273481407        0.25309573178185
C           -3.31684723103659        0.65200875613370        0.33425308886256
C           -4.30339558496119        0.25219517566716       -0.56907603051930
C           -4.85109436903226       -1.01563131714725       -0.52800172779139
O           -5.82075054433961       -1.47661086116774       -1.36016980205225
C           -6.39564084805578       -0.59052948164110       -2.28792110575737
C           -4.39983531817519       -1.94006035752102        0.44383958390337
O           -4.99315957161425       -3.16133539939500        0.40607290483101
C           -4.66383238046990       -4.09987844791152        1.40069491255643
C           -3.42374250192069       -1.54087395213417        1.33680978732540
C           -2.88868576928917       -0.25742833544282        1.28256894481519
C           -2.18783710139282        2.30479609190581       -1.17137013501400
C           -1.25236138585013        1.19052804678322       -1.66737551745387
C            0.01733788243046        1.12809007832419       -0.88894049251882
N            0.63871894256360       -0.04315542453608       -0.55556046301693
C            2.01420416335538       -0.04226784532118       -0.15120227011716
C            2.94219671690797       -0.54438608414289       -1.27586024581106
C            4.37098728066805       -0.43817538228789       -0.84213351527226
C            5.08577940354338        0.72748811093593       -1.04238592233375
C            6.39671470380476        0.83812888387925       -0.60250727595574
C            7.01106565808789       -0.21446979071741        0.05396910429795
O            8.28774729013186       -0.21845577445520        0.52042486254788
C            9.08212427079602        0.92227305860736        0.31036213983570
C            6.28279499194666       -1.40775374689841        0.27536629115173
O            6.96483632090969       -2.38983330610762        0.92338568004651
C            6.32705433859706       -3.62216367449513        1.14348956841280
C            4.97728484533317       -1.49869312913016       -0.16799597750681
C           -0.04429232494434       -1.30831931765908       -0.61182211346952
C           -3.89114196137319        3.07212022136981        0.57391515163086
C           -4.51456437099410        2.77312551545202        1.93487509573236
C           -3.43141246477477        4.52082522387784        0.51070077734723
H           -4.65454989864676        0.95392876826475       -1.30708307086145
H           -6.84521730834663        0.27628313008830       -1.79252886938930
H           -7.17457481903947       -1.16159981669991       -2.79012524908635
H           -5.66519155429711       -0.24843350787616       -3.02911233388798
H           -4.88141611612830       -3.71705429932877        2.40258041519524
H           -5.29163195767431       -4.96652763938303        1.20077753581330
H           -3.61068354703820       -4.39531288703831        1.34466791310751
H           -3.06843962017169       -2.22019442402257        2.09578440258642
H           -2.14219960713311        0.02168174678005        2.01086035400457
H           -3.01638083930257        2.39710608886868       -1.87369004970727
H           -1.63925456856127        3.24825067273097       -1.18038722329854
H           -1.78870382728285        0.24226374411528       -1.61927055635961
H           -1.02469144993271        1.39220389950445       -2.72486707981195
H           -0.69344796343290        1.65099830640441        0.68273201837752
H            0.66600805430217        1.99295483793076       -0.96063780789301
H            2.13358371009492       -0.67522805620826        0.73332320465528
H            2.30819350622194        0.97451404945217        0.11786641044994
H            2.76874344343637        0.06762815001947       -2.16191367135391
H            2.68851292584827       -1.57831964548885       -1.51099621252628
H            4.62919971060859        1.56061655376960       -1.55542282526985
H            6.93351438816429        1.75482566695165       -0.78711634411669
H            8.66413260081000        1.80245022522920        0.80993252552534
H            9.20800794301470        1.13562876581281       -0.75644763784311
H           10.05062415744603        0.68564261790159        0.74747172082746
H            7.06614950017666       -4.24730980191157        1.64190991550641
H            5.45023304927738       -3.51434590176355        1.79110447760681
H            6.02772999148767       -4.09701729083462        0.20282498503751
H            4.41227047508477       -2.40407466317026       -0.00809209504324
H           -0.21246714389537       -1.62684561193891       -1.64492566632946
H           -1.01102587207342       -1.24276368445616       -0.10444776680905
H            0.56162011278663       -2.05946321956606       -0.11121232709998
H           -4.67252525548136        2.94215431400496       -0.19962550096272
H           -3.76973523218895        2.89375080865067        2.71573617504241
H           -4.89707439306296        1.75604061869108        1.97010068898353
H           -5.33656895237523        3.46019008535291        2.12412313057449
H           -2.60462617356165        4.69055463537161        1.18565436290747
H           -3.12418313945032        4.78998303502735       -0.49634211910717
H           -4.25280356115898        5.17499791042663        0.79433723193730
H           -0.63030636210902        2.78496977262781        2.76446524252625
72
 energy: -103.315773379995 gnorm: 0.022591851365 xtb: 6.6.1 (8d0f1dd)
N           -1.48962972602522        2.77856654491252        2.24754369059639
C           -1.55336449416604        2.15172122053531        1.15867446520298
C           -2.74741735834622        2.06357813416553        0.25030101740751
C           -3.30749616506107        0.64959854624303        0.32912442423064
C           -4.29824372081506        0.25134083721515       -0.57013224307811
C           -4.84610745630023       -1.01534468647477       -0.52821808415149
O           -5.82144045255059       -1.47730444919694       -1.36045906160887
C           -6.39604683865439       -0.59071024868226       -2.28659652788903
C           -4.39567123603822       -1.93894572460682        0.44181930573605
O           -4.99408877708827       -3.16270049348079        0.40550941079161
C           -4.66547757614312       -4.09945483912817        1.39957055991220
C           -3.41927766623211       -1.54274349012482        1.33468112400459
C           -2.88105917794148       -0.26126178609868        1.27806698780451
C           -2.18822266420542        2.30773428686653       -1.17534491105839
C           -1.25539759523656        1.18668047592960       -1.65953413987081
C            0.01004449383827        1.13931689021458       -0.87689713237342
N            0.63990037769150       -0.04819255570466       -0.54188318591896
C            2.00926305013283       -0.03542584442544       -0.14542810381848
C            2.93812101587937       -0.53901295284953       -1.26991024847150
C            4.36304140557821       -0.43378398198716       -0.83454988351593
C            5.07928057117824        0.73065723547899       -1.03769499437193
C            6.39147346164362        0.83934386065980       -0.60324398894409
C            7.00418012853202       -0.21374108637906        0.05202368807313
O            8.28565500776883       -0.21973466659676        0.51804857451148
C            9.07899666025756        0.92012895890037        0.30933525644059
C            6.27612684292309       -1.40473891433633        0.27568712629784
O            6.96274966043910       -2.38971057726657        0.92133020092624
C            6.32692482667561       -3.62193226171221        1.14253742475050
C            4.96995939081252       -1.49488201731298       -0.16239916761411
C           -0.04592272048443       -1.30540047196701       -0.61272829452804
C           -3.89121588849224        3.06721941202549        0.57094423536770
C           -4.51108712971520        2.77192561458399        1.93531817881129
C           -3.43519060814350        4.52090280752198        0.50644780232556
H           -4.65333207833631        0.95489440903332       -1.30512883096834
H           -6.84647264721522        0.27645935770513       -1.79173446964465
H           -7.17555911307395       -1.16288030289936       -2.78724724211680
H           -5.66775125350336       -0.24839576431862       -3.03001900934705
H           -4.88322160746984       -3.71721284688051        2.40250390325410
H           -5.29481797131158       -4.96496898918730        1.19923167394277
H           -3.61278341342073       -4.39749947393284        1.34492837917232
H           -3.06764221827588       -2.22159728436158        2.09636361264316
H           -2.13874487042403        0.01845033471349        2.00926299525813
H           -3.01691675611661        2.39702088846538       -1.87926434720836
H           -1.63768289669996        3.25050035481989       -1.18597239520416
H           -1.79143947348476        0.23841043975263       -1.60813132535199
H           -1.01562356984125        1.38429065148943       -2.71312018759021
H           -0.68225751085504        1.66028534221495        0.65792939672879
H            0.65604107493954        1.99921127446581       -0.92627148150553
H            2.12915450849795       -0.66621543994313        0.74126002568547
H            2.30226294556928        0.98356049331131        0.12254473127642
H            2.76455218701344        0.07162426393472       -2.15780870741375
H            2.68043615614903       -1.57265155888560       -1.50407534606512
H            4.62266061434845        1.56260629367070       -1.55320659146823
H            6.93005357652736        1.75447523389220       -0.79166845655480
H            8.66309779192589        1.80133237701140        0.80987363223625
H            9.20723152535453        1.13520607998109       -0.75704213644648
H           10.04670983724332        0.68137391442534        0.74724644173354
H            7.06863256487723       -4.24507154038374        1.63993395220397
H            5.45125365086515       -3.51641395480501        1.79240380389183
H            6.02694888865918       -4.09884021819049        0.20297964424567
H            4.40433212745963       -2.40061428062999       -0.00410062135465
H           -0.21396276655361       -1.61951498656472       -1.64974849046709
H           -1.01408796473592       -1.24365221172757       -0.10675208837242
H            0.56115336994096       -2.05720053090120       -0.11502239144497
H           -4.66354129279846        2.94917654010396       -0.19833244528664
H           -3.77075479095610        2.89052138962598        2.72109947583149
H           -4.89513846484829        1.75552332911957        1.96843731465668
H           -5.33229319748605        3.45989492758170        2.12238040213951
H           -2.60297020799401        4.69121112045938        1.18430841671385
H           -3.13124806376651        4.78596259585741       -0.50311874237748
H           -4.25799242392344        5.17326770006741        0.79387126913921
H           -0.59305835035066        2.75798537215226        2.73179019023875
72
 energy: -103.316444105719 gnorm: 0.010201981370 xtb: 6.6.1 (8d0f1dd)
N           -1.51384341684735        2.77857214854484        2.25411210422311
C           -1.56032232918136        2.15849523391062        1.16201850017039
C           -2.75048586960223        2.06299423998660        0.25046117589437
C           -3.31242991048189        0.64992429254564        0.33150084909859
C           -4.30188932643419        0.25184522893411       -0.56948224294148
C           -4.84902980792649       -1.01489119481263       -0.52678364828745
O           -5.82197433079347       -1.47652756135206       -1.36069128831075
C           -6.39518414693618       -0.59035114973336       -2.28782837456978
C           -4.39856837929948       -1.93803256604773        0.44400968806932
O           -4.99390784968714       -3.16234111287456        0.40671779976707
C           -4.66352329411035       -4.09900586746064        1.40010402212370
C           -3.42275901041142       -1.54201948954266        1.33778266106301
C           -2.88623715040295       -0.25995332607554        1.28215656838006
C           -2.18633345982932        2.30689515879110       -1.17225258658074
C           -1.25573252626431        1.18407370659257       -1.65578273919083
C            0.01208572370603        1.13349156069665       -0.88240700579203
N            0.64026670279784       -0.04803450600786       -0.55285049242545
C            2.01060650543743       -0.03614053574571       -0.15565527044539
C            2.94242668524344       -0.54291212609051       -1.27686044965968
C            4.36715626671743       -0.43654976302397       -0.83718735700514
C            5.08412153983584        0.72785869034712       -1.04012183704130
C            6.39599697313551        0.83781405845690       -0.60386586426909
C            7.00819357881022       -0.21477609329088        0.05204200177672
O            8.28805853550300       -0.21821487250440        0.51996412774790
C            9.08119580480942        0.92176672124927        0.31061377077371
C            6.28092848621572       -1.40669989607692        0.27385430616213
O            6.96526513285301       -2.39078928938597        0.92197133940113
C            6.32765038916808       -3.62205015117637        1.14319789764000
C            4.97486220505089       -1.49799644493215       -0.16587090524523
C           -0.04671741678387       -1.30412727965910       -0.61348910723633
C           -3.89327742858344        3.06886225081078        0.57022051669919
C           -4.51143411876903        2.77363362399326        1.93620915912868
C           -3.43704876848493        4.52033555346273        0.50949800008222
H           -4.65719546425211        0.95522330680978       -1.30479517315866
H           -6.84726139600642        0.27635664013114       -1.79386898266072
H           -7.17366980822357       -1.16263764427540       -2.78953691111854
H           -5.66595070697691       -0.24838208686132       -3.03051722616333
H           -4.88199440846482       -3.71834423239285        2.40327459934115
H           -5.29154030589150       -4.96531249926083        1.19940617302689
H           -3.61047280808569       -4.39588019395909        1.34515792878585
H           -3.07046181189041       -2.22079162247100        2.09899338886092
H           -2.14440348071691        0.02013376910076        2.01486244416920
H           -3.01399553081221        2.39526440214175       -1.87563023504105
H           -1.63759916213142        3.25046195396681       -1.18238360525736
H           -1.79594014289681        0.23752338300876       -1.61131258884502
H           -1.00872733015089        1.38622386461497       -2.70587029026026
H           -0.68606558673034        1.66182567115075        0.66599060695099
H            0.66164552340979        1.99104984688723       -0.93474119435201
H            2.12812905948909       -0.66891030340713        0.72975814339869
H            2.31099205829360        0.97951889105353        0.11566433310727
H            2.77283688726761        0.06639733715277       -2.16616543734448
H            2.68717616346630       -1.57717791652363       -1.51146842209143
H            4.62887186808948        1.55963464734632       -1.55676884744281
H            6.93362800704912        1.75398357709465       -0.78957947258212
H            8.66520867556338        1.80317923671869        0.81040231072140
H            9.21013546208638        1.13612556712696       -0.75588142837984
H           10.04913851969221        0.68429929284052        0.74882719440976
H            7.06733584475770       -4.24594253702882        1.64252761034286
H            5.45112026608981       -3.51483002588550        1.79156735188495
H            6.02903839195158       -4.09933229791235        0.20335749626380
H            4.41149179517748       -2.40554705294689       -0.01021924331559
H           -0.21511888882349       -1.62473023901223       -1.64698379036263
H           -1.01320536920912       -1.24045461719276       -0.10453696779246
H            0.56227804242042       -2.05308319638440       -0.11379885802670
H           -4.66834702677741        2.95896543586363       -0.20473855597293
H           -3.77378291152433        2.89223824648965        2.72462121876054
H           -4.89594252473799        1.75748312512784        1.96886062371745
H           -5.33273855133020        3.46108439459684        2.12308323304875
H           -2.60641473239844        4.68959472332618        1.18133510133849
H           -3.12745385210922        4.78259829045406       -0.49614784835430
H           -4.25582652283765        5.17661743543483        0.79515817938646
H           -0.62444667263975        2.77463326171153        2.74931928258683
72
 energy: -103.316407743165 gnorm: 0.011117374726 xtb: 6.6.1 (8d0f1dd)
N           -1.50260004243801        2.78404335864538        2.25181009811277
C           -1.55566168622731        2.16024026220745        1.16413108158368
C           -2.74674375048381        2.06249198685587        0.25272274560813
C           -3.31269428988591        0.65074636921725        0.33280524128851
C           -4.30074725876334        0.25239298507975       -0.57007939018217
C           -4.84784273032178       -1.01480395767837       -0.52762274391873
O           -5.82051093230881       -1.47590685816577       -1.36078496652464
C           -6.39536978668652       -0.58978103646206       -2.28662175896197
C           -4.39712134596187       -1.93840992090408        0.44275967441947
O           -4.99278217767259       -3.16178731299479        0.40585834955731
C           -4.66455103176654       -4.09864347034958        1.39980931084695
C           -3.41987140396396       -1.54273718645461        1.33550136127882
C           -2.88416391240782       -0.26012059034923        1.28095598791021
C           -2.18689441439175        2.30491651548618       -1.17255125075170
C           -1.25475433056741        1.18646865162815       -1.66472542410978
C            0.01388826604545        1.13077007284307       -0.89269347463768
N            0.63791679866906       -0.04533516345765       -0.55563286534780
C            2.00703128419821       -0.03596928003282       -0.14830236966372
C            2.93842896784927       -0.54099216585706       -1.27052510639962
C            4.36522702601063       -0.43515230117626       -0.83532343651940
C            5.08219900000597        0.72924109973050       -1.03861363111944
C            6.39429971564296        0.83923015518767       -0.60211204037876
C            7.00669110126011       -0.21393287125070        0.05320431913237
O            8.28608826697380       -0.21792823989079        0.51960802194552
C            9.07973131111261        0.92132019459216        0.30898077204180
C            6.27944255454068       -1.40583480103808        0.27535211326539
O            6.96302990425366       -2.38984414558570        0.92299934635104
C            6.32579797990525       -3.62155269794384        1.14272257430364
C            4.97291520464822       -1.49665806067537       -0.16404060005313
C           -0.04600560500380       -1.30411081238587       -0.61267447191551
C           -3.88886343253892        3.06854291953973        0.57286969542567
C           -4.51097171738501        2.77172924165720        1.93600622384223
C           -3.43417368110678        4.51981756142436        0.51009893141830
H           -4.65350637529927        0.95481730986685       -1.30734896792638
H           -6.84579514209902        0.27675162876638       -1.79114549280619
H           -7.17503030828190       -1.16122760549376       -2.78754875368457
H           -5.66679132982615       -0.24785197355366       -3.02984446322866
H           -4.88238917615667       -3.71669832706219        2.40242424927600
H           -5.29377099042134       -4.96451049894393        1.20020791113411
H           -3.61198341760424       -4.39708071922223        1.34506878194353
H           -3.06518157367730       -2.22221710498204        2.09449662847029
H           -2.13750299218982        0.01865233145277        2.00980129005660
H           -3.01666761975633        2.39509260894843       -1.87271987233991
H           -1.63979139542995        3.24898498346259       -1.18340214686956
H           -1.79389586208582        0.24015865592760       -1.61988418850792
H           -1.01778802126494        1.39084897122554       -2.71783919491573
H           -0.68737500552267        1.64751468219740        0.67063030894910
H            0.66515554649954        1.98872096790838       -0.95188168474863
H            2.12587685118961       -0.67051052413978        0.73664864615994
H            2.30754062955708        0.97848547499589        0.12485515841952
H            2.76552204419824        0.07001168489280       -2.15777263119909
H            2.68388599834462       -1.57520730814377       -1.50586471765084
H            4.62604333042754        1.56234522535232       -1.55234127310559
H            6.93153978930680        1.75555323525858       -0.78745168783531
H            8.66404060945491        1.80230824232160        0.80944113031895
H            9.20634445984834        1.13550088392459       -0.75782986852753
H           10.04858447425851        0.68390653937987        0.74547542446622
H            7.06589220135848       -4.24665618080650        1.64000525652219
H            5.44988472908714       -3.51536180570174        1.79196731854114
H            6.02615927463374       -4.09677814558070        0.20218468194273
H            4.40821661423528       -2.40245369177212       -0.00412160892703
H           -0.21028229436421       -1.62592888763119       -1.64543035701469
H           -1.01384472183387       -1.24243191000719       -0.10661520745924
H            0.56100135909679       -2.05464488469329       -0.11137590282299
H           -4.66839556647368        2.94679501053265       -0.20114014665921
H           -3.77102305943546        2.89293026580246        2.72119912642035
H           -4.89371779041435        1.75471676740086        1.97005225805767
H           -5.33367852869159        3.45794151308138        2.12287811893404
H           -2.60618040227391        4.69219333983988        1.18007746105944
H           -3.12450125563973        4.78511637968389       -0.49412393997941
H           -4.25389726109694        5.17387022165670        0.79451175305205
H           -0.61447411525069        2.77810121957731        2.75039174541767
72
 energy: -103.316617908128 gnorm: 0.004310786782 xtb: 6.6.1 (8d0f1dd)
N           -1.50457021751342        2.78127428682483        2.25320535414251
C           -1.55868625499212        2.15754786966264        1.16508331269467
C           -2.74966706501954        2.06350525406273        0.25223346914488
C           -3.31359654087964        0.65089965513736        0.33164378483160
C           -4.30180548811396        0.25188789391658       -0.57047610819253
C           -4.84873187518606       -1.01538754301633       -0.52763900191963
O           -5.82160819748658       -1.47708886526552       -1.36110799422117
C           -6.39561536785626       -0.59120308971688       -2.28757610081697
C           -4.39840920895521       -1.93838412406642        0.44308451496192
O           -4.99371668137395       -3.16259457846713        0.40625125694563
C           -4.66441900464790       -4.09923037454060        1.39976320301019
C           -3.42238168980960       -1.54172702180009        1.33663393086079
C           -2.88615645933636       -0.25932263912631        1.28089349513454
C           -2.18753806681234        2.30634214051307       -1.17238289543391
C           -1.25380753151264        1.18679916019095       -1.65927067964631
C            0.01347611681894        1.13297326142440       -0.88447646722781
N            0.63976774905096       -0.04609729723241       -0.55055927335264
C            2.00998859398649       -0.03671577624164       -0.14999779747073
C            2.94026518794617       -0.54168462726189       -1.27395901828503