72
 energy: 0.000000000000 xtb: 6.6.1 (8d0f1dd)
N           -1.47310934822924        2.74401318561852        2.22063942287560
C           -1.55658894218425        2.16490305624665        1.13274284460745
C           -2.74549225258129        2.05621251263064        0.23826250649470
C           -3.31377583855761        0.64333417511334        0.32332515650284
C           -4.30230195924506        0.24487112428158       -0.58026167086503
C           -4.85238808050968       -1.02286499940159       -0.53363593669082
O           -5.81420026757557       -1.48606047972767       -1.36157895357670
C           -6.39655692584623       -0.60827005826649       -2.29568495601309
C           -4.39972542350640       -1.94646120241305        0.44396933240983
O           -4.98748357557592       -3.16146026488900        0.41085995818162
C           -4.66362171172287       -4.10093865802695        1.40909140816864
C           -3.42072545213514       -1.54561399150247        1.33436558640148
C           -2.88302826362110       -0.26315802838497        1.27400162590187
C           -2.19303818453636        2.30467021687947       -1.18742988123374
C           -1.26651549989641        1.17243380322503       -1.65249445018642
C            0.01082525039567        1.09745464658138       -0.89354811789923
N            0.61779399208289       -0.02034948241203       -0.57705527866251
C            2.00145228921113       -0.02376006609561       -0.15611401051620
C            2.92554961797610       -0.53865287672537       -1.27700100652360
C            4.35756883501756       -0.43050761225877       -0.83075552032494
C            5.07346182539911        0.73206415878124       -1.03980975472950
C            6.38628045899965        0.84224449235903       -0.60344828301384
C            7.00047329721665       -0.20824758267940        0.05722314949100
O            8.26703733840855       -0.21011315050632        0.52410948507466
C            9.06912311989339        0.92943609656965        0.31863060963839
C            6.27040022445068       -1.40439766990411        0.28033468609137
O            6.94830004375713       -2.38012947787858        0.92752007684741
C            6.31537376337817       -3.61583233633369        1.15217722400438
C            4.96302840674480       -1.49347485723979       -0.16064431849589
C           -0.05511211878686       -1.29906259857679       -0.62085692079872
C           -3.86758072907722        3.07992629005348        0.58498065642721
C           -4.49286201346546        2.77383518785172        1.94313307512182
C           -3.39165211343248        4.52917708609625        0.54797528556046
H           -4.66030069703099        0.94509076131725       -1.31640581036773
H           -6.85037992114187        0.25803164586058       -1.80468862056629
H           -7.17287509152171       -1.18600121846629       -2.79318183475679
H           -5.66836870040540       -0.26952968819383       -3.04040283452035
H           -4.88416765986127       -3.71589494995018        2.40913564538747
H           -5.29223619720187       -4.96637504833431        1.20969248126828
H           -3.61139846644506       -4.39919876145526        1.35529370415983
H           -3.07077825100221       -2.21868786295666        2.10002682176568
H           -2.14562774333496        0.02067850888151        2.01001363031684
H           -3.02188903413801        2.38238034416975       -1.88813562572432
H           -1.65198546223364        3.25146730843841       -1.20556295755141
H           -1.81103391047759        0.23006526775522       -1.62116316669324
H           -0.99335697743926        1.37490224954061       -2.69443281971844
H           -0.67628070635666        1.65183902374723        0.61785732877701
H            0.63525847086258        1.98466388206871       -0.92314029755375
H            2.11132572081740       -0.65949698961381        0.72532619960637
H            2.30680494458141        0.98978260887088        0.11078973822125
H            2.76694224489122        0.06750735773687       -2.17075272340394
H            2.67954606229959       -1.57455642411728       -1.51167757545099
H            4.62170041431221        1.56295626549351       -1.56123593485311
H            6.92357738865082        1.75715832247601       -0.79119604059515
H            8.65159193263071        1.81001840117181        0.81701562739969
H            9.20136256512460        1.14042868409438       -0.74698998879646
H           10.03428931104811        0.69003246578081        0.76064945022918
H            7.05567240429544       -4.23621211097668        1.65347581279537
H            5.43848051513375       -3.50813590722545        1.79970582482858
H            6.02060097762632       -4.09420535105165        0.21253284608183
H            4.40102799328555       -2.40127288651695       -0.00490198294521
H           -0.22071301762289       -1.61775598610935       -1.65116024301020
H           -1.01972267469312       -1.24102728946113       -0.10935207845464
H            0.55899959333766       -2.04486104898380       -0.12333731565713
H           -4.63991918782192        2.95501120214274       -0.18098089750912
H           -3.76095251366987        2.90314731895452        2.73380846416528
H           -4.87457659255110        1.75695657819473        1.97884621460846
H           -5.31925601899505        3.45579242388173        2.12325583951056
H           -2.60025614255587        4.69225089676674        1.27368930043085
H           -3.03987434616939        4.81897697030947       -0.43870979129779
H           -4.22191779840287        5.18069696155015        0.80616701440619
H           -0.59832439338922        2.77744720721660        2.72959009765665
72
 energy: -4.410748955755 xtb: 6.6.1 (8d0f1dd)
N           -1.50660764998770        2.77643891451927        2.26772443367723
C           -1.56688932727202        2.16321928559435        1.17893548076593
C           -2.74823111268410        2.06603614091467        0.26002602965536
C           -3.30995852949102        0.65310426377845        0.33982415334602
C           -4.29877622451002        0.25922940197152       -0.56332250162476
C           -4.84906438680500       -1.00732561170283       -0.52463252008165
O           -5.81863700776008       -1.46567975233327       -1.35658805271689
C           -6.39570261226968       -0.57801449425864       -2.28247156414750
C           -4.39796973129430       -1.93567456787216        0.44448960473932
O           -4.99199082904386       -3.15500539044912        0.40380194074640
C           -4.66468091160928       -4.09818120447895        1.39464678492154
C           -3.41987522617747       -1.54175479357247        1.33754884959101
C           -2.88203963873959       -0.25921682472690        1.28589660376065
C           -2.17938432198865        2.30807384477298       -1.16149733642808
C           -1.25099836076237        1.18627412913666       -1.64947875511395
C            0.02045899716342        1.12118623073345       -0.87476683795189
N            0.64147517773773       -0.04041958871035       -0.54775520569791
C            2.01762651947915       -0.03862616816812       -0.14279283436488
C            2.94194406454538       -0.54244775671193       -1.26894764566401
C            4.37144844160511       -0.43720687761071       -0.83475255199304
C            5.08628356932668        0.72793992057792       -1.03770530356249
C            6.39894039667908        0.83675145279377       -0.60358822972084
C            7.01441094432622       -0.21689570656346        0.05022172459490
O            8.29093145598741       -0.22251718275994        0.51263707487321
C            9.08720701175760        0.91791098499644        0.30456655593734
C            6.28566041304539       -1.41102770238608        0.27250451353546
O            6.96937103438068       -2.39325400014081        0.91560629660218
C            6.33340523338705       -3.62658285556173        1.13765269866173
C            4.97883631726059       -1.50030088913180       -0.16546616190132
C           -0.04132734063836       -1.30586846461539       -0.60611330549006
C           -3.91218141016976        3.06370778119326        0.56029372775223
C           -4.51682848821877        2.77189860652726        1.93376117319915
C           -3.46150869065527        4.50985741338745        0.49389048787578
H           -4.65358852578274        0.96449356559671       -1.29647220431933
H           -6.84560243094122        0.28733489188334       -1.78513293153859
H           -7.17467420761626       -1.14944436436506       -2.78408711061441
H           -5.66647684026152       -0.23503955922850       -3.02438120922423
H           -4.88214563402549       -3.71935522997522        2.39830366366830
H           -5.29420394161415       -4.96245500373652        1.19106170955470
H           -3.61223129237402       -4.39569187455282        1.33739212912343
H           -3.06744748879349       -2.22277013330648        2.09618847395120
H           -2.13787081164562        0.01760792328217        2.01678876071840
H           -3.00560099104393        2.39915128837044       -1.86612754939149
H           -1.62992020278847        3.25095039779759       -1.17055954113563
H           -1.79274599772339        0.24191761403006       -1.60462410420280
H           -1.00398212102531        1.38677871145254       -2.70041112184550
H           -0.68117432866986        1.66196966622415        0.68269619996647
H            0.65772985509128        1.99326875035670       -0.92572356952320
H            2.13315696402164       -0.67278501130237        0.74011149650705
H            2.31487382231365        0.97807616191446        0.12540199945272
H            2.77142063538373        0.06893508704456       -2.15674497611372
H            2.68814516234640       -1.57617838865975       -1.50486665453358
H            4.63028877520947        1.56121020304694       -1.55131299394135
H            6.93656232764465        1.75246833722176       -0.79008533722846
H            8.67157351414926        1.79767985177499        0.80692087385744
H            9.21282281106994        1.13298716649991       -0.76163663938658
H           10.05525237209912        0.67804648095285        0.74053157752343
H            7.07479967271676       -4.25038967830356        1.63393121790607
H            5.45868033627895       -3.51968507430264        1.78837278439625
H            6.03241123171907       -4.10163570664835        0.19786713857428
H            4.41472422672108       -2.40676751718143       -0.00776651454744
H           -0.20856779540090       -1.62028657642168       -1.64078127786751
H           -1.00862069593666       -1.24154561088618       -0.09937809435857
H            0.56614572536012       -2.05574535391870       -0.10742065597354
H           -4.69580883927961        2.96179357073320       -0.23275437363933
H           -3.78070710967059        2.88596194886962        2.72512239339545
H           -4.90264009567325        1.75709931070228        1.96362821377154
H           -5.33587726919431        3.46137901874079        2.12223349559044
H           -2.61649867488317        4.69069839924473        1.14429501959612
H           -3.21400198649160        4.74188176057520       -0.53835480034571
H           -4.27211387188504        5.16969961543898        0.78718667051246
H           -0.62953525913096        2.78204859396636        2.77892504635005
72
 energy: -1.134508065578 xtb: 6.6.1 (8d0f1dd)
N           -1.55724960149831        2.81799886465302        2.32517446604025
C           -1.57942330772024        2.17185226460640        1.23419089339681
C           -2.75359399989596        2.07764731112584        0.28538693196274
C           -3.30179979862351        0.66286308094445        0.35994322792156
C           -4.29402001290058        0.27798601276993       -0.54062391792668
C           -4.84496580747425       -0.98592507171532       -0.51182369224370
O           -5.82557962583193       -1.43619937853526       -1.34945150866647
C           -6.39443629516137       -0.53450706210450       -2.26339368632568
C           -4.39554409254082       -1.92045471422063        0.44517653429790
O           -4.99850560616710       -3.14540881576745        0.39416752961004
C           -4.66574381792834       -4.09359514626799        1.37382967633096
C           -3.41743540739426       -1.53817928325551        1.34153480991084
C           -2.87743718587000       -0.25716647999195        1.30021013044630
C           -2.15905431956431        2.31719981445328       -1.12759822695883
C           -1.23119177361705        1.19998086491405       -1.63286906402122
C            0.03454758989850        1.14932474312708       -0.84753854239414
N            0.66904951239023       -0.06138930463208       -0.50743017621843
C            2.03623622734755       -0.05201584092782       -0.12386796164390
C            2.96252307179360       -0.54637176040949       -1.25545313575462
C            4.38885409307668       -0.44493390249866       -0.83445726447223
C            5.10376034135934        0.72187460356817       -1.03208395071441
C            6.41775938734843        0.82853137692878       -0.60348345740682
C            7.03400632627502       -0.22942734317310        0.03982786333880
O            8.32372578458879       -0.24007145563942        0.49486035042553
C            9.11263179285602        0.90084024287382        0.28358892903995
C            6.30772909152720       -1.42033403299291        0.26090659036724
O            6.99911807384293       -2.41200310843348        0.89725243126664
C            6.35944753403035       -3.64209035173848        1.11569914854087
C            5.00007582183483       -1.50916832346238       -0.17073728969786
C           -0.02491414370428       -1.30965659336734       -0.58519249567865
C           -3.96575592489831        3.04247366151159        0.53558980077477
C           -4.55610686860263        2.76383033402967        1.91932215206623
C           -3.55462549836443        4.48726505264963        0.41315595163898
H           -4.64444022559532        0.99181992920855       -1.26789674632117
H           -6.83937753828997        0.32927341141951       -1.75727882181858
H           -7.17723901059758       -1.09649040188190       -2.77104527628294
H           -5.66406606879612       -0.18583143691805       -3.00185020425200
H           -4.87898214238265       -3.72458771153758        2.38295622449846
H           -5.29635962220776       -4.95633853444658        1.16456935811716
H           -3.61309634775828       -4.39070474475548        1.31144946787263
H           -3.06294066137004       -2.22922819856494        2.09128848187252
H           -2.12728076105330        0.01151718480655        2.02742173772566
H           -2.98176439516726        2.42587579195323       -1.83661956998907
H           -1.59732304891550        3.25441202136864       -1.12138854597042
H           -1.76893867443953        0.25275416857021       -1.57717577942980
H           -1.01393540074503        1.40037734147025       -2.69326625126554
H           -0.69191321269534        1.67440226217266        0.77221512057318
H            0.69145233772453        1.99822437922594       -0.92025858068440
H            2.16380690060396       -0.68698692344066        0.76019399844139
H            2.32830403667201        0.96649876244481        0.14805310044449
H            2.77812152497588        0.07092089963381       -2.13647978450306
H            2.69945641249834       -1.57776734836830       -1.49422597152822
H            4.64214125286009        1.55808020220048       -1.53583421671365
H            6.95512883835968        1.74567035718395       -0.78762829891497
H            8.70140586641518        1.77983024977597        0.79223090779869
H            9.22946475162735        1.12196177126318       -0.78324283731492
H           10.08510538337941        0.66019215867179        0.71025727314818
H            7.10261349980605       -4.27095396777717        1.60411117382410
H            5.48841067551294       -3.53737519219462        1.77195480062154
H            6.04998205816843       -4.11259577670116        0.17572777690582
H            4.43345244059656       -2.41415998540012       -0.01149717483880
H           -0.19175494158393       -1.62384887845460       -1.62391324603210
H           -0.99571572824764       -1.24154932505047       -0.08501936332054
H            0.57412681993198       -2.06527467755223       -0.08313171285258
H           -4.76416479514781        2.95950013564280       -0.29918286729290
H           -3.81227900333850        2.85739773816726        2.70911738469046
H           -4.94990472839741        1.75303132482805        1.94193625990343
H           -5.36013289519360        3.46793386158911        2.12009409535700
H           -2.63497827106916        4.69419095778288        0.94945418513864
H           -3.46703198034850        4.64110527503593       -0.68002127084218
H           -4.33632800347965        5.15410317681085        0.76679645444520
H           -0.67320810585242        2.78314125487074        2.83580220399920
72
 energy: 9.103478951414 xtb: 6.6.1 (8d0f1dd)
N           -1.60873369298781        2.85059749478240        2.38230587061171
C           -1.59312808935735        2.18607832345129        1.28683570836157
C           -2.75992731707547        2.08809579865116        0.30927276276439
C           -3.29306681867176        0.67107044336149        0.37967482313407
C           -4.28904964875630        0.29628258429714       -0.51899212252461
C           -4.84152173135162       -0.96460680875768       -0.49932098942318
O           -5.83238252135198       -1.40545363178388       -1.34196717787835
C           -6.39327775574591       -0.48978423215735       -2.24373830333853
C           -4.39331456665078       -1.90540592772143        0.44592337881674
O           -5.00455104455839       -3.13467075569113        0.38485579150931
C           -4.66660543822140       -4.08866149748880        1.35263027307257
C           -3.41412748392364       -1.53553301830771        1.34530025347649
C           -2.87126350339629       -0.25629197944356        1.31396691554344
C           -2.13913738059122        2.32813498236465       -1.09398296180982
C           -1.21280970720444        1.21237779344494       -1.61183604534083
C            0.04862398293625        1.17438491513981       -0.82265986875342
N            0.69369806282039       -0.07846975871586       -0.46747226719542
C            2.05444639380381       -0.06273457008279       -0.10333256051841
C            2.98160854608744       -0.54976990187416       -1.24112227078214
C            4.40591159867337       -0.45206597967116       -0.83153437033334
C            5.12131785314782        0.71601084896635       -1.02507238175652
C            6.43728081855088        0.82035986696822       -0.60326350160285
C            7.05449672930185       -0.24243715439269        0.02901439738218
O            8.35602320331375       -0.25773328339101        0.47601194120781
C            9.13873708471798        0.88306100177210        0.26157874643792
C            6.33064805548594       -1.43057320366831        0.24895647152145
O            7.02883528954718       -2.43106446837542        0.87777079107445
C            6.38632709942820       -3.65836408496740        1.09256343058896
C            5.02124606485003       -1.51842603015579       -0.17508902328589
C           -0.00905510676709       -1.31203809610708       -0.56272507208811
C           -4.01615411711349        3.02122162720133        0.51269606820676
C           -4.59620246710260        2.75453247488069        1.90350960187320
C           -3.64822673795830        4.46624870000266        0.32461628087571
H           -4.63531174120756        1.01951553872545       -1.23896591309351
H           -6.83340060969071        0.37214654974334       -1.72879232687283
H           -7.17991882280660       -1.04184403603095       -2.75755984052534
H           -5.66186827205467       -0.13556537397147       -2.97892465757756
H           -4.87560759465924       -3.73014780098731        2.36730465980774
H           -5.29823508072678       -4.94981318644885        1.13758951987958
H           -3.61385533608930       -4.38559990550093        1.28473962895935
H           -3.05839025010841       -2.23582077229328        2.08654289989801
H           -2.11628050529399        0.00477889165648        2.03876553084917
H           -2.95657104769813        2.45341702277361       -1.80798474828701
H           -1.56555506261489        3.25925079256433       -1.07182086876422
H           -1.74639804905662        0.26278646464590       -1.54795935305737
H           -1.02043972529536        1.41270104977412       -2.67980934789663
H           -0.70362610440657        1.69020460991079        0.86028121659004
H            0.72486990984696        2.00119709983587       -0.91093196421913
H            2.19506094522623       -0.69963580460957        0.78112956079027
H            2.34392726781655        0.95644792285060        0.17188464337649
H            2.78550219035624        0.07273426553334       -2.11618889486063
H            2.71071498747776       -1.57919105479772       -1.48259406136175
H            4.65431391296093        1.55507582613353       -1.51931780798284
H            6.97396576383607        1.73883223061530       -0.78499524638162
H            8.73285066653026        1.76137587078948        0.77690267099099
H            9.24671372116858        1.11021827591218       -0.80575804249704
H           10.11581876173075        0.64145811740747        0.67836233559354
H            7.13141689665120       -4.29235891109229        1.57253697641542
H            5.51937457188775       -3.55632250906915        1.75492941655507
H            6.06846402153663       -4.12403203300273        0.15236488990834
H            4.45252870161789       -2.42214612650278       -0.01484128554013
H           -0.17384446031138       -1.62735375584040       -1.60456496482965
H           -0.98340455440241       -1.24114304446600       -0.06942163124446
H            0.58155295423421       -2.07362252955284       -0.05665979717093
H           -4.83293754573281        2.94635297664399       -0.36202587372411
H           -3.84623165141559        2.82682212731264        2.69284657294212
H           -5.00058531593547        1.74883013022540        1.91866184638792
H           -5.38402608353280        3.47366693766500        2.11647187051064
H           -2.66316018705023        4.69966144078188        0.74042831074862
H           -3.71891503795090        4.54850014522360       -0.80745898358244
H           -4.39638342248285        5.13868916809538        0.74334424063955
H           -0.71689566936819        2.78485268889224        2.88860076126337
72
 energy: 21.999145705770 xtb: 6.6.1 (8d0f1dd)
N           -1.66009576876940        2.87263238910860        2.43767462443448
C           -1.60714959727715        2.20873361590120        1.33631542709717
C           -2.76736627061230        2.09637815735333        0.33084031208744
C           -3.28417754354881        0.67699330181089        0.39942007904479
C           -4.28425563074951        0.31337057599351       -0.49858690348168
C           -4.83890210127940       -0.94396712435597       -0.48706025431252
O           -5.83852547976522       -1.37398650764519       -1.33432474987572
C           -6.39190102512820       -0.44507000665760       -2.22364122021382
C           -4.39136314484287       -1.89075089601127        0.44702699931805
O           -5.00984229359549       -3.12289768977020        0.37645301411141
C           -4.66753108512405       -4.08340586876163        1.33149005018441
C           -3.41021571478461       -1.53405367984244        1.34931156241968
C           -2.86374062234840       -0.25701322221071        1.32748787768168
C           -2.11967554125089        2.34106195444722       -1.06110110524532
C           -1.19606471616472        1.22236590504462       -1.58558947538225
C            0.06250911296477        1.19572270669536       -0.80330185440360
N            0.71408392501951       -0.09095202464065       -0.42913389717219
C            2.07184272653626       -0.07055916419952       -0.08235707036591
C            2.99882229123750       -0.55315095225790       -1.22747445069596
C            4.42262781035351       -0.45881326179255       -0.82672118676904
C            5.13901359472295        0.70993359445533       -1.01786609997922
C            6.45760696356772        0.81223137825075       -0.60374107203502
C            7.07540699498005       -0.25569132583000        0.01744624225501
O            8.38647326357805       -0.27454958706247        0.45673146785619
C            9.16440573077664        0.86527063270984        0.23961807668440
C            6.35422456390017       -1.44150556725097        0.23634473866861
O            7.05735565542908       -2.44956632585092        0.85801496114965
C            6.41301672128094       -3.67438857526976        1.06963854163136
C            5.04207953910931       -1.52812445472156       -0.17944313401892
C            0.00603476859591       -1.31282525897861       -0.54155156353276
C           -4.05689460217868        3.00252263178513        0.49450115536916
C           -4.63506464517134        2.74625473752464        1.88657876355976
C           -3.73929609919221        4.44887749862119        0.22514947532739
H           -4.62572510087917        1.04669647534347       -1.20983807777226
H           -6.82771917216693        0.41460750554989       -1.70012408178627
H           -7.18225307676065       -0.98681911241517       -2.74362615514692
H           -5.65979465632828       -0.08548189265313       -2.95597585157803
H           -4.87260102175033       -3.73622778501941        2.35167799574728
H           -5.30006464711749       -4.94296610959684        1.11067922230951
H           -3.61483571879991       -4.38076987978297        1.25820460719396
H           -3.05419132097876       -2.24230007730593        2.08233067622675
H           -2.10553185308720       -0.00258514241525        2.05147056250176
H           -2.93019871061474        2.48140387998489       -1.77925755497206
H           -1.53502581409295        3.26511938695895       -1.02258129893927
H           -1.72486658679575        0.27110286560066       -1.51868418038091
H           -1.02333848495899        1.42461901823965       -2.65877336507687
H           -0.71690840009219        1.70853402551762        0.94882272621942
H            0.75851151862140        2.00049246382089       -0.89706207479867
H            2.22682335810411       -0.71232018526118        0.80096568004789
H            2.36222977851566        0.94713810350694        0.19684503013648
H            2.79345279678280        0.07430534765973       -2.09693726592517
H            2.72214386986716       -1.58101197673093       -1.47192251336853
H            4.66688400906081        1.55160638748660       -1.50330293249334
H            6.99283286116859        1.73194057870530       -0.78289947342554
H            8.76460092964635        1.74305619817786        0.76167227598936
H            9.26427056050949        1.09841764796007       -0.82792618020355
H           10.14609939559671        0.62293590444774        0.64645891969944
H            7.15985528975828       -4.31336787362904        1.54119039032890
H            5.55040456354774       -3.57524725878354        1.73841034763624
H            6.08720621988406       -4.13562738079963        0.12948827464235
H            4.47165744112281       -2.43063424657924       -0.01860413116617
H           -0.15488033947382       -1.63043017422432       -1.58538280019724
H           -0.97143103985538       -1.24171598625901       -0.05478636404018
H            0.58847961898058       -2.08175582215005       -0.03165056256094
H           -4.90440110205049        2.92106739508244       -0.42240960521050
H           -3.88123820670331        2.79727662977579        2.67678257579152
H           -5.05167116120400        1.74660164657710        1.89553005557559
H           -5.40524017288684        3.47996863040357        2.11206179962613
H           -2.72054196080338        4.70400925685825        0.51823674843367
H           -3.95758296800093        4.46680312288547       -0.90060981148953
H           -4.44709802311899        5.12294470190002        0.70940514895336
H           -0.75985565605565        2.78682791664908        2.93645844454168
72
 energy: 32.278073261699 xtb: 6.6.1 (8d0f1dd)
N           -1.70320992984286        2.88144462515183        2.48464520051825
C           -1.62591728282445        2.23459965045056        1.38234037456054
C           -2.77559380615943        2.10273500935737        0.34999430000540
C           -3.27735785009749        0.68100080018963        0.41902689599768
C           -4.27897364035161        0.32749924949151       -0.48219961570466
C           -4.83824549652986       -0.92600268707883       -0.47713174975070
O           -5.84218466137155       -1.34298763871215       -1.32664344426368
C           -6.39058714969896       -0.40235247513764       -2.20436352204179
C           -4.39056239247010       -1.87921475412443        0.44847268921890
O           -5.01298427641174       -3.10973050678078        0.36941435830762
C           -4.66890378000158       -4.07920139506641        1.31166694174422
C           -3.40629378097889       -1.53417564331828        1.35291866043668
C           -2.85614304128192       -0.25835905534321        1.34044447779842
C           -2.10222203909559        2.35374347723947       -1.02944835860562
C           -1.18063438494799        1.23049406140554       -1.55533091214061
C            0.07766282076740        1.20584874198321       -0.78890354783104
N            0.72712658825533       -0.09379953021602       -0.39640364176483
C            2.08949199723978       -0.07645091472220       -0.06137878224899
C            3.01195179332619       -0.55613121641929       -1.21599371296096
C            4.43908282113324       -0.46492186053741       -0.82110137111902