72
 energy: 0.000000000000 xtb: 6.6.1 (8d0f1dd)
N           -1.47310921155849        2.74401293103706        2.22063921685122
C           -1.55658879776851        2.16490285539332        1.13274273951491
C           -2.74549199786261        2.05621232186130        0.23826248438941
C           -3.31377553111525        0.64333411542669        0.32332512650568
C           -4.30230156009016        0.24487110156316       -0.58026161703006
C           -4.85238763031941       -1.02286490450319       -0.53363588718165
O           -5.81419972815119       -1.48606034185536       -1.36157882725342
C           -6.39655633239252       -0.60827000183299       -2.29568474302620
C           -4.39972501531283       -1.94646102182611        0.44396929121966
O           -4.98748311285188       -3.16145997157803        0.41085992006324
C           -4.66362127904578       -4.10093827755394        1.40909127743729
C           -3.42072513477031       -1.54561384810496        1.33436546260297
C           -2.88302799614223       -0.26315800396994        1.27400150770375
C           -2.19303798107274        2.30467000305896       -1.18742977106749
C           -1.26651538239283        1.17243369445008       -1.65249429687285
C            0.01082524939134        1.09745454476277       -0.89354803499847
N            0.61779393476578       -0.02034948052406       -0.57705522512502
C            2.00145210352228       -0.02376006389122       -0.15611399603240
C            2.92554934655222       -0.53865282675074       -1.27700088804721
C            4.35756843073516       -0.43050757231754       -0.83075544324989
C            5.07346135469827        0.73206409086248       -1.03980965825901
C            6.38627986649936        0.84224441421807       -0.60344822702769
C            7.00047264773336       -0.20824756335880        0.05722314418200
O            8.26703657141718       -0.21011313101264        0.52410943644933
C            9.06912227848686        0.92943601033931        0.31863058007678
C            6.27039964270142       -1.40439753960823        0.28033466008274
O            6.94829939911432       -2.38012925705718        0.92751999079483
C            6.31537317745639       -3.61583200086742        1.15217711710877
C            4.96302794628964       -1.49347471867959       -0.16064430359178
C           -0.05511211367372       -1.29906247805359       -0.62085686319744
C           -3.86758037025447        3.07992600430699        0.58498060215443
C           -4.49286159663096        2.77383493050346        1.94313289484366
C           -3.39165179876499        4.52917666589254        0.54797523472093
H           -4.66030026466202        0.94509067363451       -1.31640568823548
H           -6.85037928558380        0.25803162192116       -1.80468845313260
H           -7.17287442604349       -1.18600110843259       -2.79318157561361
H           -5.66836817451085       -0.26952966318766       -3.04040255244073
H           -4.88416720672258       -3.71589460520039        2.40913542187496
H           -5.29223570620378       -4.96637458756866        1.20969236903657
H           -3.61139813139015       -4.39919835331056        1.35529357841967
H           -3.07077796610445       -2.21868765711333        2.10002662693138
H           -2.14562754426994        0.02067850696302        2.01001344383370
H           -3.02188875377605        2.38238012313952       -1.88813545054866
H           -1.65198530896729        3.25146700677685       -1.20556284570283
H           -1.81103374245520        0.23006524641044       -1.62116301628650
H           -0.99335688527853        1.37490212198123       -2.69443256973690
H           -0.67628064361333        1.65183887049447        0.61785727145403
H            0.63525841192517        1.98466369793744       -0.92314021190751
H            2.11132552493482       -0.65949692842762        0.72532613231274
H            2.30680473056284        0.98978251704176        0.11078972794250
H            2.76694198818247        0.06750735147374       -2.17075252200790
H            2.67954581369920       -1.57455627803457       -1.51167743520200
H            4.62169998552446        1.56295612048703       -1.56123579000624
H            6.92357674630170        1.75715815945204       -0.79119596719031
H            8.65159112996149        1.81001823324363        0.81701555159939
H            9.20136171144928        1.14042857828877       -0.74698991949293
H           10.03428838009630        0.69003240176163        0.76064937965836
H            7.05567174969094       -4.23621171795340        1.65347565939075
H            5.43848001056755       -3.50813558175093        1.79970565785717
H            6.02060041905269       -4.09420497120334        0.21253282636366
H            4.40102758497114       -2.40127266373392       -0.00490198249042
H           -0.22071299714579       -1.61775583601871       -1.65116008982042
H           -1.01972258008625       -1.24102717432227       -0.10935206830928
H            0.55899954147532       -2.04486085926761       -0.12333730421426
H           -4.63991875734388        2.95501092798550       -0.18098088071825
H           -3.76095216473977        2.90314704960906        2.73380821053058
H           -4.87457614030224        1.75695641518947        1.97884603101694
H           -5.31925552549014        3.45579210326349        2.12325564252114
H           -2.60025590131176        4.69225046143352        1.27368918226171
H           -3.03987406413880        4.81897652321898       -0.43870975059559
H           -4.22191740670577        5.18069648090034        0.80616693961239
H           -0.59832433787845        2.77744694953323        2.72958984441332
72
 energy: -5.964834958784 xtb: 6.6.1 (8d0f1dd)
N           -1.50639565445998        2.78159061884341        2.25180030631025
C           -1.55726498700906        2.15792497294648        1.16295600378732
C           -2.74941417678579        2.06320589913363        0.25128931014398
C           -3.31244265025056        0.65047800432421        0.33133652253548
C           -4.30125918526569        0.25200426877106       -0.57027718080920
C           -4.84841466398918       -1.01506170942649       -0.52730466531443
O           -5.82178483795766       -1.47655605594738       -1.36083263849957
C           -6.39608457922949       -0.59075684747643       -2.28703035789076
C           -4.39799327198322       -1.93798390013149        0.44312599905372
O           -4.99349863712940       -3.16236228054474        0.40641428595164
C           -4.66382822385058       -4.09871064640604        1.39970251681593
C           -3.42163200542928       -1.54199652163580        1.33659395916500
C           -2.88522589809419       -0.25981568009352        1.28088167016194
C           -2.18725656970597        2.30648050304935       -1.17280564199288
C           -1.25460333226046        1.18581480495296       -1.65940042452906
C            0.01303578692464        1.13285743514537       -0.88603384452045
N            0.63948049837078       -0.04667021656175       -0.55213347074035
C            2.00877151340905       -0.03653026778497       -0.15102364928958
C            2.94029096677040       -0.54172001586699       -1.27396250488164
C            4.36596107425581       -0.43596490264591       -0.83712137624811
C            5.08276594328433        0.72858809957401       -1.03992806699076
C            6.39466448281506        0.83863490558896       -0.60333413601149
C            7.00666964327402       -0.21437537423654        0.05250834686802
O            8.28661152922114       -0.21823293690054        0.52012643294198
C            9.08017674417564        0.92083788677366        0.31056522351741
C            6.27961152867033       -1.40596983570532        0.27463232313113
O            6.96394643296332       -2.38999193966252        0.92266469911104
C            6.32750631606000       -3.62161190862190        1.14350975530770
C            4.97340047113967       -1.49724901705746       -0.16532898819877
C           -0.04535889048368       -1.30412401266495       -0.61368048262379
C           -3.89119743325925        3.06927387816961        0.57193550829438
C           -4.51096588618845        2.77270297019568        1.93650825505715
C           -3.43538149658038        4.52073666752788        0.50949377900643
H           -4.65505188853751        0.95479368409036       -1.30654727054559
H           -6.84716835353916        0.27614640308234       -1.79251014569708
H           -7.17543810098965       -1.16268883372150       -2.78808356642852
H           -5.66765248314781       -0.24864707391638       -3.03046791251295
H           -4.88161281330555       -3.71765210995236        2.40290451141109
H           -5.29228819047116       -4.96510379616340        1.19976408344714
H           -3.61089780979911       -4.39631523390152        1.34474488469005
H           -3.06844852889619       -2.22079971073259        2.09700528880012
H           -2.14126010600765        0.02005684118176        2.01164813757099
H           -3.01586068912268        2.39545334249074       -1.87502615816949
H           -1.63904246344880        3.25023519786531       -1.18301964885365
H           -1.79379799696708        0.23924560473191       -1.61369235645680
H           -1.01383080535205        1.38805373785516       -2.71189220724142
H           -0.68688498589947        1.65687561684150        0.66698165835054
H            0.66248218991337        1.99155069738373       -0.94089498018587
H            2.12797015280457       -0.67063793711200        0.73407283174431
H            2.30850515283193        0.97879524796329        0.12082542630870
H            2.76834109026214        0.06895495181986       -2.16177923457600
H            2.68447904950559       -1.57574761393910       -1.50878429611479
H            4.62687816135070        1.56086301738621       -1.55538107227680
H            6.93198214961175        1.75478571498707       -0.78905544388758
H            8.66456896365223        1.80249655253836        0.81031682372563
H            9.20872161138079        1.13508216119380       -0.75606176950429
H           10.04832640150196        0.68306048401445        0.74847869058661
H            7.06799682599929       -4.24529948911911        1.64209069812365
H            5.45117170772891       -3.51541828568536        1.79231285896011
H            6.02866136886084       -4.09862007934643        0.20358715704652
H            4.40914596562358       -2.40376922845278       -0.00765931957169
H           -0.21330856957147       -1.62381293686052       -1.64751347768905
H           -1.01225694894364       -1.24278354949997       -0.10536412516254
H            0.56303173435079       -2.05518189865012       -0.11489262436143
H           -4.66854141030093        2.95315731268526       -0.20182596811054
H           -3.77130079399462        2.89133286687131        2.72267490038262
H           -4.89516674052809        1.75631294732487        1.96933282799376
H           -5.33233417657602        3.46011060320828        2.12417926626237
H           -2.60562022453975        4.69058457773970        1.18115480913607
H           -3.12808603286682        4.78452405870879       -0.49676883351673
H           -4.25514665877405        5.17521111052479        0.79523846837431
H           -0.61556874758036        2.77355727610349        2.74658708010932
72
 energy: -5.926984630279 xtb: 6.6.1 (8d0f1dd)
N           -1.52170877806052        2.79231182163688        2.27024661449544
C           -1.56589559425337        2.16360974860981        1.18339572353721
C           -2.75254706672549        2.06666687144633        0.25999356936617
C           -3.31031521341682        0.65311135553337        0.33864055696487
C           -4.29968013815722        0.25813855945481       -0.56321623683685
C           -4.84813193951545       -1.00800102483560       -0.52372865749106
O           -5.82418589108247       -1.46389328893905       -1.35725246016485
C           -6.39593870829099       -0.57212951596065       -2.27901047350589
C           -4.39777510354992       -1.93396214498195        0.44340533023111
O           -4.99533356049494       -3.15748993287943        0.40252230210580
C           -4.66453172533242       -4.09758684860342        1.39167086690074
C           -3.42087916362535       -1.54102724519077        1.33787733552057
C           -2.88359097124891       -0.25893323101490        1.28638796724436
C           -2.17887173374969        2.31085311557707       -1.15878878991783
C           -1.24557167383474        1.19271745678102       -1.65020641218013
C            0.02268574910776        1.13755136747073       -0.87623633041177
N            0.64590533105250       -0.04742248231084       -0.54133381174540
C            2.01659377834625       -0.04165435319901       -0.14310719265906
C            2.94649027773013       -0.54348567566335       -1.26909791282632
C            4.37352938786798       -0.43891530727952       -0.83676994103986
C            5.09021388663161        0.72599370112813       -1.03805633585265
C            6.40310865751606        0.83491400680136       -0.60363393748887
C            7.01693248810474       -0.21988044701137        0.04790383636407
O            8.29843463823537       -0.22517590961537        0.51240220486735
C            9.09170200030217        0.91372467853859        0.30125826099859
C            6.28982284551810       -1.41130196800034        0.26960991148614
O            6.97544676609114       -2.39699748663496        0.91454216749955
C            6.33872365985328       -3.62865172415679        1.13405735093702
C            4.98226682770505       -1.50105697256569       -0.16757898909174
C           -0.03884869206954       -1.30556267305613       -0.60563486756762
C           -3.91335329506526        3.06092546653196        0.56052431593521
C           -4.52786058713432        2.77009913181876        1.92900695212153
C           -3.47626757233563        4.51260205961043        0.47015453051667
H           -4.65201807617036        0.96483558171106       -1.29610732568931
H           -6.84449556918062        0.29374881042486       -1.78032229457674
H           -7.17681799337608       -1.13954446043713       -2.78259658419960
H           -5.66653763478154       -0.22818039602458       -3.02065450914022
H           -4.88071680681649       -3.72006391250364        2.39638723156390
H           -5.29345582352958       -4.96299675444303        1.18903568089747
H           -3.61158692416053       -4.39469476054059        1.33429425310970
H           -3.06661611637247       -2.22311177853054        2.09486610210771
H           -2.13698510776783        0.01741040935789        2.01628697711038
H           -3.00472751879124        2.40666405725732       -1.86309717585864
H           -1.62608721068404        3.25176322317322       -1.16260914438902
H           -1.78364875125436        0.24547836283937       -1.60340267033475
H           -1.01854945952859        1.39903536848925       -2.70532949668621
H           -0.69059114926615        1.66159015349201        0.69702279487710
H            0.67947823898545        1.99213265538540       -0.93720844310672
H            2.13775723610721       -0.67714218899684        0.74085223108644
H            2.31608856240086        0.97261266303113        0.13192552198419
H            2.77116135130175        0.06979380897635       -2.15408750119723
H            2.68987830747957       -1.57695985875802       -1.50483657106495
H            4.63249164903344        1.55992058297267       -1.54900617647202
H            6.94004171566908        1.75160846100740       -0.78827815875255
H            8.67791085397612        1.79456000533410        0.80378315110432
H            9.21614927011905        1.12997140034014       -0.76558290120791
H           10.06153053246769        0.67536761821158        0.73521010163950
H            7.07990959226165       -4.25429367702879        1.62925368155661
H            5.46417246117417       -3.52307377200631        1.78523649257836
H            6.03648262044318       -4.10329040506953        0.19392697146929
H            4.41765009153213       -2.40719907079555       -0.00918263549400
H           -0.20404943692948       -1.62535246130781       -1.63961472242404
H           -1.00696730953517       -1.24337926541571       -0.10012887862849
H            0.56661199124233       -2.05898410364224       -0.10590829924881
H           -4.69319052165901        2.94427376083352       -0.22137499420551
H           -3.78514454278479        2.88012473263544        2.71443292943631
H           -4.91673412351124        1.75560906956630        1.95958173797447
H           -5.34382142202294        3.46263008859056        2.12249959116569
H           -2.61119456016898        4.69526224024580        1.08623920743292
H           -3.21755834980886        4.75267744485503       -0.55345142165002
H           -4.28527805271996        5.16766544365496        0.78387398181026
H           -0.63520553190552        2.77722358515121        2.77357193617294
72
 energy: -5.415445080934 xtb: 6.6.1 (8d0f1dd)
N           -1.53793416629091        2.80403938300619        2.28742136233600
C           -1.57459258901289        2.17022932760032        1.20282134910800
C           -2.75601516005733        2.07046734018270        0.26836007410328
C           -3.30789771077237        0.65563289956750        0.34585496387161
C           -4.29803638819143        0.26413193379347       -0.55612459073514
C           -4.84781273466630       -1.00105112350805       -0.52015018096338
O           -5.82665813813538       -1.45125023709905       -1.35368091561525
C           -6.39576397347485       -0.55337119412079       -2.27086453732848
C           -4.39745479342393       -1.93000200271505        0.44368845060287
O           -4.99710190971301       -3.15268365428056        0.39878554579909
C           -4.66511042804901       -4.09651902858486        1.38374802191998
C           -3.41992871505143       -1.54020137155995        1.33912342498190
C           -2.88163913377075       -0.25826026479412        1.29182597566423
C           -2.17045686479784        2.31584582450302       -1.14479185261425
C           -1.23687505557272        1.19876571005042       -1.63763245343529
C            0.03224589560433        1.14227406761943       -0.86413666877904
N            0.65254758674628       -0.04798167083159       -0.52972222664661
C            2.02461051715943       -0.04610610944352       -0.13513208491691
C            2.95274624880161       -0.54508289408550       -1.26418546038128
C            4.38095823289714       -0.44178013664299       -0.83556559470758
C            5.09748489584290        0.72345789603923       -1.03546575057426
C            6.41146439581780        0.83121870397799       -0.60366766446935
C            7.02710572530231       -0.22541061680151        0.04334062049053
O            8.31022709419236       -0.23212577096681        0.50454295643241
C            9.10317360024053        0.90660032427607        0.29189098640943
C            6.30000646532763       -1.41664228418549        0.26463832395909
O            6.98702215106418       -2.40406948977925        0.90621202684236
C            6.35003756994028       -3.63570498566776        1.12457524345397
C            4.99107780378630       -1.50492866345887       -0.16948242469279
C           -0.03255882860468       -1.30624320730541       -0.59715647457357
C           -3.93559883856056        3.05266413978708        0.54869533987122
C           -4.54382819208255        2.76716990530182        1.92159202959448
C           -3.51711475315783        4.50520748915005        0.43111863790776
H           -4.64919385770928        0.97466835850931       -1.28560040255563
H           -6.84169981683452        0.31147394812814       -1.76789217469014
H           -7.17830461054779       -1.11609718034715       -2.77692319417982
H           -5.66548163194989       -0.20762837968059       -3.01085056448135
H           -4.87966977720423       -3.72274136226144        2.39005412503436
H           -5.29461211615910       -4.96081171203236        1.17838003806166
H           -3.61221609477859       -4.39340479504473        1.32399934149394
H           -3.06458388148328       -2.22564441213003        2.09259497312189
H           -2.13290234887865        0.01453087895763        2.02118299990662
H           -2.99325810001157        2.41781533970369       -1.85172475131351
H           -1.61283576146425        3.25390810922377       -1.14310745084769
H           -1.77431832470848        0.25086785433989       -1.59116346773584
H           -1.02044860787422        1.40897966919187       -2.69428804815007
H           -0.69484880174328        1.66427636908481        0.72826985382810
H            0.69636160106862        1.99246021632246       -0.93005424902716
H            2.14717819446767       -0.68307653620719        0.74746530776995
H            2.32435680996028        0.96713230861655        0.14307394322702
H            2.77465816160385        0.07046898240379       -2.14680152364477
H            2.69503399591551       -1.57798306833317       -1.50087907617671
H            4.63797126497940        1.55872167863541       -1.54246063713050
H            6.94803353036389        1.74845648225870       -0.78705581342887
H            8.69149257275835        1.78678580706144        0.79719396924084
H            9.22372824851552        1.12481388014136       -0.77511540040081
H           10.07459051265669        0.66758378865903        0.72193846442568
H            7.09194206399129       -4.26309486141111        1.61653384362210
H            5.47729215651741       -3.53080696546454        1.77819410875421
H            6.04452456748891       -4.10819353951790        0.18434284104211
H            4.42631778104787       -2.41094755917096       -0.01117421695761
H           -0.19539094907986       -1.62653778144060       -1.63127502948933
H           -1.00184475132823       -1.24314684289838       -0.09430538241371
H            0.57011047235455       -2.06164450133471       -0.09636281021511
H           -4.71889992344162        2.93379183667623       -0.24108800753546
H           -3.79946918779191        2.86765570140282        2.70774697064480
H           -4.93744687738719        1.75453210271394        1.94794243919345
H           -5.35445891858545        3.46481314471695        2.12045590326234
H           -2.61839300582870        4.70085428773795        0.98896496308014
H           -3.30886054025566        4.72086114833268       -0.60790146612581
H           -4.31423928556022        5.16140353391680        0.77334540389516
H           -0.65613655515376        2.78098251442001        2.79925415624974
72
 energy: -4.541804010470 xtb: 6.6.1 (8d0f1dd)
N           -1.55489469628543        2.81418180854959        2.30662822853311
C           -1.58445310351640        2.17717426678236        1.22349110521964
C           -2.75997761045147        2.07448977333637        0.27750167788902
C           -3.30495704235006        0.65793571130884        0.35352721766257
C           -4.29585287541794        0.27011882549267       -0.54873755504610
C           -4.84729603110296       -0.99394214352823       -0.51644388782213
O           -5.82897138393487       -1.43829792018112       -1.34998967725473
C           -6.39566645854448       -0.53453738716057       -2.26266001442513
C           -4.39710918685704       -1.92598599050466        0.44407016108710
O           -4.99913344522727       -3.14759127528619        0.39509630634144
C           -4.66586441257338       -4.09525064105907        1.37569379338212
C           -3.41874948127225       -1.53971219386841        1.34046273191754
C           -2.87891218409836       -0.25811625446340        1.29735486488780
C           -2.16205924688174        2.32084693820445       -1.12989997121074
C           -1.22830768546482        1.20445278696264       -1.62427258335374
C            0.04193581165457        1.14667888503544       -0.85156847082921
N            0.65928238623802       -0.04870718429445       -0.51727214605547
C            2.03292937526771       -0.05053596105440       -0.12669044494138
C            2.95908066322941       -0.54685305253730       -1.25895023496300
C            4.38861428863766       -0.44473176700273       -0.83451183786153
C            5.10480101936994        0.72095818909029       -1.03286769177569
C            6.41989022267608        0.82763612376868       -0.60379073603613
C            7.03741079115425       -0.23082022428573        0.03867124579738
O            8.32218056230847       -0.23899316845502        0.49635476683621
C            9.11470868534766        0.89960273920369        0.28224017943648
C            6.31037911080061       -1.42188791254971        0.25967256931132
O            6.99868172775915       -2.41102539925929        0.89794197324823
C            6.36129136337549       -3.64258935993887        1.11508864427960
C            5.00013780098696       -1.50878220902673       -0.17138610075115
C           -0.02647014165212       -1.30696414404125       -0.58825404010842
C           -3.95778458027782        3.04467213218311        0.53633000124377
C           -4.56119059804325        2.76404018738808        1.91290087651683
C           -3.55702575382597        4.49788738831865        0.39096427960522
H           -4.64554761391354        0.98461433799290       -1.27478193898065
H           -6.83917854737227        0.32925876512353       -1.75558753430561
H           -7.17976220072978       -1.09280894901307       -2.77107749341871
H           -5.66466732267996       -0.18696798872885       -3.00111529733335
H           -4.87864367127876       -3.72515600169798        2.38356707667306
H           -5.29586277605219       -4.95851355998674        1.16769782672572
H           -3.61299767691171       -4.39171538604617        1.31329559381496
H           -3.06322100672517       -2.22845135628856        2.09088185255130
H           -2.12819975914397        0.01104412985522        2.02627861449085
H           -2.98142482453890        2.42938303813006       -1.83974751634089
H           -1.59984389378266        3.25617857278953       -1.12201898022080
H           -1.76432942630678        0.25549164738574       -1.57787281349715
H           -1.02114291292935        1.41726008789998       -2.68186998773908
H           -0.69981909089727        1.67236235969500        0.75712421376495
H            0.71274535308118        1.99288752712783       -0.92178082285768
H            2.15820435806822       -0.68876978774328        0.75450577045314
H            2.33277747570565        0.96189663888605        0.15396890683626
H            2.77789367098665        0.07070054051418       -2.13931793036304
H            2.70060795239495       -1.57930194639030       -1.49652301589296
H            4.64329298430548        1.55759895124767       -1.53566588793098
H            6.95608134779938        1.74538502188694       -0.78609658758902
H            8.70507789256435        1.77903381754153        0.79044701989973
H            9.23120811171350        1.11982655222875       -0.78491111368123
H           10.08776779728832        0.65997321350208        0.70825069890123
H            7.10386176808412       -4.27191657519719        1.60359901432107
H            5.49041124417557       -3.53844636686946        1.77123958602935
H            6.05238514117385       -4.11271258323804        0.17471782676836
H            4.43511988787009       -2.41450096916047       -0.01257500542238
H           -0.18721899918554       -1.62728986261893       -1.62264838170992
H           -0.99698451753341       -1.24325894710880       -0.08816313823674
H            0.57294837712368       -2.06488461466664       -0.08673136550206
H           -4.74463250740945        2.92211771460247       -0.26187878077502
H           -3.81327965363786        2.85482089969899        2.69766531615951
H           -4.96069555300467        1.75362242191414        1.93667185954249
H           -5.36563511276238        3.46744186593733        2.11849472832076
H           -2.62841257286944        4.70589054804175        0.89014140720713
H           -3.40014636743707        4.69168404686566       -0.66072222710591
H           -4.34230971503665        5.15356139158221        0.76200211776017
H           -0.67661432392408        2.78416664236495        2.82492499803999
72
 energy: -3.424311118609 xtb: 6.6.1 (8d0f1dd)
N           -1.57261128646358        2.82422774301629        2.32554872993002
C           -1.59463133613525        2.18463288201931        1.24353835852702
C           -2.76371290559678        2.07808552785828        0.28634119390009
C           -3.30209619738255        0.65995350352132        0.36132882904799
C           -4.29369136974139        0.27591670839001       -0.54132351404989
C           -4.84703693002967       -0.98685604629646       -0.51268859430293
O           -5.83114125717578       -1.42538360996868       -1.34668195191687
C           -6.39497040993371       -0.51611617728705       -2.25549953318589
C           -4.39712450168818       -1.92194512257912        0.44459513004735
O           -5.00132367306652       -3.14244929420946        0.39140805583977
C           -4.66631365818023       -4.09375322892771        1.36757833216482
C           -3.41787930572768       -1.53941281160368        1.34198837472247
C           -2.87636908505962       -0.25827876680741        1.30306228705338
C           -2.15416470541337        2.32566387423935       -1.11552883242330
C           -1.21987683709979        1.20988060842068       -1.61104024809546
C            0.05125118362367        1.15067927237953       -0.83917638822711
N            0.66569169707499       -0.04953294765549       -0.50427319129543
C            2.04098999074010       -0.05435478625447       -0.11777613341175
C            2.96516311271006       -0.54795977223914       -1.25323402057796
C            4.39613936889118       -0.44742749229511       -0.83329448378116