72
 energy: -103.312038906209 gnorm: 0.078528723246 xtb: 6.6.1 (8d0f1dd)
N           -1.47742463687776        2.76115524989614        2.22816966356186
C           -1.55600176628191        2.16090982902459        1.14410859232173
C           -2.74322972270842        2.05569566668732        0.24602395379727
C           -3.30914974015534        0.64261806453748        0.33054755445700
C           -4.29361636866018        0.24015792820220       -0.57581582144928
C           -4.84243696675257       -1.02767346323856       -0.53066260993938
O           -5.80227032345698       -1.49573519214889       -1.36246488739459
C           -6.38139329083445       -0.61818997659758       -2.29891251901646
C           -4.39171845523637       -1.94912314331947        0.44906858639364
O           -4.98053344961064       -3.16815345145936        0.41596271303969
C           -4.65700473573492       -4.10420937139807        1.41612980270464
C           -3.41744331429823       -1.54604823494974        1.34272825540937
C           -2.88194291545330       -0.26293777535579        1.28255345542915
C           -2.19160072504267        2.30509230129540       -1.17860929562989
C           -1.26679595627567        1.17688032400851       -1.66023220730429
C            0.00964349754475        1.11367366540846       -0.90487613339249
N            0.63458526288359       -0.03336267984199       -0.58950830547322
C            2.01019149216899       -0.02397857562926       -0.17780839939482
C            2.93432805537741       -0.52225050827687       -1.29559268879445
C            4.36035684499055       -0.42197218904867       -0.84493205172455
C            5.08589591062237        0.73586035506013       -1.05326103763059
C            6.39753552404946        0.84018991757051       -0.61161239229164
C            6.99887997711062       -0.21743588073465        0.05054259200502
O            8.27024492269720       -0.22514981445015        0.52651436799008
C            9.07918506640625        0.91106090778651        0.32096263129678
C            6.24530745528423       -1.40525646958913        0.27518668732128
O            6.92149067646393       -2.37950657061124        0.93728379546497
C            6.27845375757830       -3.60592265033947        1.15586316600603
C            4.91803729352602       -1.48363793400999       -0.15575744528916
C           -0.04107712711530       -1.30423753514882       -0.64117313666364
C           -3.86985733433807        3.07302725517054        0.58987903720777
C           -4.49241287487270        2.76876329718904        1.95077876502566
C           -3.39803441062924        4.52515492982100        0.55080266966822
H           -4.64892175024100        0.93869523932749       -1.31632192714371
H           -6.83684352099147        0.24918829298801       -1.81077485897112
H           -7.15573349580303       -1.19722739293125       -2.79836303856844
H           -5.65078032530540       -0.27966737673153       -3.04149015437777
H           -4.88063021925958       -3.71811611777411        2.41521197436066
H           -5.28429973184499       -4.97086642224208        1.21576646874080
H           -3.60429424300085       -4.40058424392145        1.36566877011031
H           -3.06773854728084       -2.21904181661549        2.10970436313912
H           -2.14493629496365        0.02229093727916        2.02012608282047
H           -3.02218934554799        2.39374354455655       -1.87724171418706
H           -1.64648112328685        3.24942049072380       -1.19359255654849
H           -1.80917823636912        0.23604279065508       -1.62711140031749
H           -1.00437134327843        1.38125336843910       -2.70555938066356
H           -0.67859744696651        1.64190894533008        0.64504660171462
H            0.63623742511436        1.99087943338999       -0.93315431168330
H            2.12287369089803       -0.66733773617903        0.70157666889391
H            2.30236854092765        0.99098723401155        0.09818096395378
H            2.77610844409858        0.09497105128173       -2.18431717813315
H            2.68826273888085       -1.55379926000364       -1.54200370191821
H            4.64466444946686        1.57047785264582       -1.58001174005991
H            6.94408570245957        1.75131385713435       -0.79953997687507
H            8.66626468376793        1.79766507137003        0.81464986526299
H            9.21763674167376        1.12067447935472       -0.74475890650946
H           10.04211393210426        0.66689262583790        0.76790565037333
H            7.00336600259500       -4.23035444334583        1.67275821515286
H            5.39652742036727       -3.48408404958047        1.78795792910260
H            5.99431801512651       -4.08550853927104        0.21374536468398
H            4.27320977800893       -2.34446336423036        0.08925996367008
H           -0.18342003933893       -1.62989975170617       -1.67492535350034
H           -1.01610336751567       -1.24552351725617       -0.16028649278415
H            0.56965593013257       -2.03843272122167       -0.12922204978730
H           -4.64413840478093        2.94491686559896       -0.17408850584269
H           -3.75678737236547        2.90231615300528        2.73919344493583
H           -4.86811662347759        1.74986346732363        1.98833209785040
H           -5.32236483336743        3.44801581220041        2.13014127538665
H           -2.60507874374485        4.68903213786896        1.27423729152199
H           -3.04838522837267        4.81303198253549       -0.43671051845249
H           -4.23086351923613        5.17491275041733        0.80991271950911
H           -0.60213139122980        2.79142314709199        2.73853565355914
72
 energy: -103.314442105920 gnorm: 0.031166797545 xtb: 6.6.1 (8d0f1dd)
N           -1.49402512004908        2.79430175156498        2.24151262831779
C           -1.56216441147700        2.15366268732013        1.16712436099855
C           -2.74474696609386        2.05853584283143        0.25332842802949
C           -3.31381351992074        0.64748087244894        0.33432637120541
C           -4.29645638425699        0.24190738546948       -0.57189831636655
C           -4.84167401519738       -1.02720172764368       -0.52877952690619
O           -5.80524914642839       -1.49738955313076       -1.36368366537190
C           -6.38042928705128       -0.61849140403325       -2.29897051390180
C           -4.39251494314158       -1.94697401670433        0.44902238330345
O           -4.98328646019273       -3.17072488780511        0.41503443084686
C           -4.65661975624970       -4.10370028966093        1.41524377078282
C           -3.42091725704349       -1.54285156915044        1.34419302949801
C           -2.88837537751263       -0.25858254592909        1.28658379213745
C           -2.19407479680387        2.30202630039910       -1.17634012851432
C           -1.26290218280909        1.18727882581480       -1.68008004787581
C            0.01002020848723        1.12895827987985       -0.90893102243153
N            0.63886336169229       -0.04391083707872       -0.58019502364892
C            2.01132085985478       -0.03368792362829       -0.17688499290422
C            2.94094397324946       -0.52310318462228       -1.30008570492302
C            4.36513119918251       -0.42186474278376       -0.85096975290575
C            5.09169743325927        0.73427073453960       -1.06313410196139
C            6.39901121215486        0.83846356999702       -0.61312448255509
C            6.99809968213176       -0.21863819522504        0.05137605899297
O            8.27349136881045       -0.22895295100343        0.52738754289696
C            9.07700217450054        0.90780043341228        0.32064583919763
C            6.24973622114461       -1.39898372729367        0.28715983996243
O            6.92574510168778       -2.38082278113436        0.94365599105630
C            6.27763168283531       -3.60660621292753        1.15879693019727
C            4.93535988310116       -1.47668369849327       -0.14635970655108
C           -0.03835592882947       -1.31028687485375       -0.64114006649512
C           -3.87530566875892        3.07231760379901        0.58765611867306
C           -4.49635146329242        2.77071564110516        1.94977578304311
C           -3.40230480994996        4.52387349081168        0.55121134568354
H           -4.64669082586687        0.93822530241937       -1.31623203106804
H           -6.83450293969330        0.24965881417744       -1.81027297423810
H           -7.15567759239856       -1.19551989704007       -2.80033899541684
H           -5.64844760102348       -0.27883209000671       -3.03969780692054
H           -4.87899414416125       -3.71685366249506        2.41492786686278
H           -5.28239257043953       -4.97238464987169        1.21730882152239
H           -3.60297591277532       -4.39825221591519        1.36540422865935
H           -3.06697460060979       -2.21819766541346        2.10736801638547
H           -2.14518890229825        0.02515232220169        2.01621215146663
H           -3.02752931017337        2.39706092794085       -1.87355372553657
H           -1.64557383343916        3.24495830216117       -1.18835964034623
H           -1.79829513943013        0.24091832427742       -1.63331710071594
H           -1.03319865304323        1.39145895591743       -2.73646241258759
H           -0.68819071843604        1.63654319986117        0.67945704471585
H            0.65170004109426        1.99507984909672       -0.96927689418762
H            2.13544729193349       -0.67216969356781        0.70500234157611
H            2.29763497673038        0.98382661382130        0.09783061685566
H            2.77375772522597        0.09507159187890       -2.18453230783696
H            2.69086257574454       -1.55510396307960       -1.54621836548896
H            4.64618647710353        1.56778485946762       -1.58566991497494
H            6.94458329105118        1.75073827447618       -0.79574967912737
H            8.66238257615033        1.79351914024059        0.81426904629126
H            9.21449633967219        1.11825201412094       -0.74520856573439
H           10.04068615853900        0.66685784137249        0.76694057118174
H            7.00261086933450       -4.23545564857297        1.67271009184388
H            5.39226823559234       -3.48791298772061        1.79082515239356
H            5.99023933367775       -4.08206681923966        0.21474565639378
H            4.31940948979978       -2.34724754913527        0.06492441644873
H           -0.18461400208919       -1.63761927190256       -1.67665499116535
H           -1.01454277205281       -1.24684501704515       -0.15644910730290
H            0.56464467845665       -2.05232861286052       -0.12511047185702
H           -4.65143882650450        2.94866680421490       -0.17660842814316
H           -3.75401724005606        2.90193456610703        2.73118869955206
H           -4.86963326547133        1.75039482428449        1.98807681350042
H           -5.32618189665431        3.44976704144897        2.13406530635328
H           -2.60628242056167        4.67971018998829        1.27323559940882
H           -3.04891527293171        4.80897351696993       -0.43633542167237
H           -4.23234910738815        5.17800342528980        0.81063360555863
H           -0.61328940921943        2.79256579870719        2.74779015197059
72
 energy: -103.315253592515 gnorm: 0.016742868466 xtb: 6.6.1 (8d0f1dd)
N           -1.48027699764838        2.78638866665042        2.23220593415533
C           -1.54720471623841        2.14655011938186        1.15218225636046
C           -2.74100159504760        2.05778160568449        0.24890362181731
C           -3.30650153791680        0.64480661063188        0.32789170796421
C           -4.29271962153499        0.23979004976302       -0.57441397932240
C           -4.83783426220274       -1.02872159132381       -0.52956178227484
O           -5.80651431429792       -1.49870502159884       -1.36424860390974
C           -6.38130702027626       -0.61981998267597       -2.29819238727727
C           -4.38944789186891       -1.94750923307368        0.44688842993875
O           -4.98444891816546       -3.17274242291962        0.41466353274794
C           -4.65822694833745       -4.10416105751908        1.41491024515782
C           -3.41722507495724       -1.54507608640138        1.34146818978654
C           -2.88223520947998       -0.26228931092360        1.28140315296032
C           -2.19461324175496        2.30451876601978       -1.18180612461282
C           -1.26393230134329        1.18420171182561       -1.67180599247079
C            0.00329159542133        1.13611231095756       -0.89468574018468
N            0.63815986132467       -0.04646824593813       -0.56875864846056
C            2.00705817935733       -0.02857445652198       -0.17199551679263
C            2.93560710084057       -0.51890798905885       -1.29843680734250
C            4.35512221628065       -0.41765734641512       -0.84710317809942
C            5.08500837748155        0.73665769316126       -1.05918084756255
C            6.39282660417634        0.83857238998425       -0.61269407184625
C            6.99023929493887       -0.22061572382298        0.04684320846072
O            8.26942001496699       -0.23003126578087        0.52303464203535
C            9.07384959920445        0.90643289274914        0.32058113235662
C            6.24242266865022       -1.39968149464261        0.28082590806981
O            6.92204475725222       -2.38157660654316        0.93619978232733
C            6.27710620155012       -3.60767389732219        1.15581007759608
C            4.92711800048547       -1.47425860789154       -0.13977504811273
C           -0.03746171293304       -1.30825127021661       -0.64387765238632
C           -3.86760201354320        3.07103599458613        0.58982932296236
C           -4.49185445878882        2.76941091415872        1.95117723530839
C           -3.39935875087597        4.52516897747600        0.55194004744905
H           -4.64589070850461        0.93720594377534       -1.31628337228517
H           -6.83596537230522        0.24871863866086       -1.81003925446117
H           -7.15712224688336       -1.19737673709374       -2.79842991088317
H           -5.65117980572278       -0.27987329741446       -3.04074900397400
H           -4.88049720810389       -3.71766469851121        2.41518924657199
H           -5.28516160172100       -4.97208325049398        1.21686052327048
H           -3.60488074659378       -4.40100011626228        1.36600413459638
H           -3.06698941813719       -2.21928767796660        2.10771448076056
H           -2.14390003437059        0.02260422148706        2.01464824490403
H           -3.02699193039301        2.39674448778580       -1.88111936924207
H           -1.64472254705208        3.24755515076048       -1.19483902669444
H           -1.79968011160513        0.23552979140678       -1.62306255493481
H           -1.02120849480291        1.38227626946134       -2.72432025638598
H           -0.68082613551732        1.64250594064533        0.65751856252400
H            0.64338720167570        2.00148332559019       -0.93898301790557
H            2.13289281427214       -0.66638071145200        0.70947363110265
H            2.29466256889232        0.99028373220991        0.10092691555416
H            2.76987569390326        0.09808014675722       -2.18246079489055
H            2.68304270456888       -1.55184955312286       -1.54227914743758
H            4.63878991099799        1.57056834224474       -1.57889461511324
H            6.94065800783987        1.74903752151053       -0.79809644489295
H            8.66288619207857        1.79385276977689        0.81468978887596
H            9.21576822747693        1.12021327076516       -0.74426827640356
H           10.03736076445351        0.66486263291533        0.76750079854073
H            7.00478282814781       -4.23094406088292        1.67321316532632
H            5.39078616799110       -3.48787231272146        1.78763226567159
H            5.99213545458014       -4.08818554028734        0.21321599825427
H            4.30166660287623       -2.32550039303887        0.09058608518329
H           -0.18293768673362       -1.63132321549606       -1.68155670494153
H           -1.01572470682559       -1.24871785567721       -0.15885514227503
H            0.56740509506678       -2.05012230326218       -0.12821416867086
H           -4.64410254200534        2.94650063301911       -0.17412742404340
H           -3.75445894835464        2.90159466252475        2.73644296650401
H           -4.86544439966911        1.74878329929046        1.98857806973959
H           -5.32308527633715        3.44774275616882        2.13059211882010
H           -2.60383955825103        4.68670893726702        1.27332443422388
H           -3.04726035712808        4.81166300826228       -0.43613943658378
H           -4.23210586940218        5.17592794125466        0.81023166617000
H           -0.58613244269912        2.77350026057028        2.71847773475669
72
 energy: -103.315574215166 gnorm: 0.010992757323 xtb: 6.6.1 (8d0f1dd)
N           -1.50218336269812        2.78095681797119        2.23971602058765
C           -1.55244319583462        2.15292054041231        1.15249416039385
C           -2.74524619377329        2.05810721267901        0.24915711500373
C           -3.31005557490941        0.64521906661804        0.33054082755133
C           -4.29546541850049        0.24092441433669       -0.57286322935511
C           -4.84007582766242       -1.02734022211741       -0.52725085637766
O           -5.80689088066525       -1.49718907066608       -1.36417178350194
C           -6.38000685335118       -0.61831108956777       -2.29874224589146
C           -4.39146307171376       -1.94575554236010        0.44929522983351
O           -4.98403846971411       -3.17194258322477        0.41597037845626
C           -4.65633009342881       -4.10329421488766        1.41519790043956
C           -3.41946650608177       -1.54428836820507        1.34467371179744
C           -2.88547618786398       -0.26145093309869        1.28515874053877
C           -2.19310486465624        2.30543569150893       -1.17824280161925
C           -1.26606185874055        1.18093893302937       -1.66549708431717
C            0.00440860015775        1.13131639518759       -0.89966462410302
N            0.64024961913703       -0.04733068340793       -0.57940926399604
C            2.00876962548970       -0.02856923950759       -0.18188866048811
C            2.94152869703489       -0.52382673652904       -1.30295679350490
C            4.35989529273491       -0.42284791866750       -0.85066558279194
C            5.09006251149778        0.73314669560098       -1.05666770209120
C            6.39831447911734        0.83751296774754       -0.61030474858492
C            6.99404905286747       -0.22067186303016        0.05074100842083
O            8.27351075432502       -0.22612182774461        0.52852680684949
C            9.07843273744651        0.90958271764433        0.32216760098672
C            6.24556370416509       -1.40384692692279        0.27601846508850
O            6.92482605724056       -2.38180350961462        0.93719319774956
C            6.27929097506490       -3.60660677918140        1.15732040016200
C            4.92950472289022       -1.48568279967722       -0.15185272637702
C           -0.03918155142850       -1.30540871565606       -0.64434564866713
C           -3.87076740639139        3.07173909768268        0.58972823394886
C           -4.49489823258853        2.77013807620139        1.95130377947567
C           -3.40030381745641        4.52537141612198        0.55106667609837
H           -4.64942845276368        0.93877716888362       -1.31442575439523
H           -6.83643833348950        0.25007625336358       -1.81173116011414
H           -7.15477732413420       -1.19616349181421       -2.80012565580316
H           -5.64921008181084       -0.27842599782170       -3.04082047460178
H           -4.87961795575609       -3.71838814698970        2.41587761943964
H           -5.28219997245529       -4.97168953134052        1.21609445639693
H           -3.60265832688014       -4.39905818685688        1.36592434655897
H           -3.06920461044400       -2.21851669776007        2.11090754053024
H           -2.14878977869316        0.02397336329981        2.02068103290798
H           -3.02444316700889        2.39648946677603       -1.87741067009560
H           -1.64495278996855        3.24945051689302       -1.19044820294062
H           -1.80628890321025        0.23464101898957       -1.62579008228600
H           -1.01157743685487        1.38252918956385       -2.71263431304700
H           -0.68501542017531        1.64737898759364        0.65909783408584
H            0.64560908433137        1.99360499969459       -0.94327985296289
H            2.12913972186319       -0.66852639469210        0.69861808354552
H            2.30179754737725        0.98856481846106        0.09272131151406
H            2.78001889566411        0.09271349521923       -2.18779373404130
H            2.69017057230803       -1.55695113684720       -1.54661861250095
H            4.64692699122623        1.56588559300640       -1.58149197502183
H            6.94605493820885        1.74832329773655       -0.79709394536581
H            8.66844669670507        1.79904509788873        0.81391744976267
H            9.21918839937097        1.12025886993055       -0.74371047858917
H           10.04313685840877        0.66929103406689        0.76823585388435
H            7.00516472259644       -4.23119571918655        1.67455169044153
H            5.39481324533256       -3.48391738357061        1.78999729753143
H            5.99356732100419       -4.08581800866899        0.21458795780459
H            4.29465505156948       -2.33834029101433        0.07479313769166
H           -0.18678036822090       -1.63534362920294       -1.67826908738971
H           -1.01644094596858       -1.24345012412493       -0.15806149072078
H            0.56818815816761       -2.04238195792974       -0.12614204776421
H           -4.64658026616259        2.94575193882754       -0.17462641634435
H           -3.75814808882660        2.90203003187349        2.73747712298169
H           -4.87093746179495        1.75043201912755        1.98859960622133
H           -5.32479401241343        3.44965275243386        2.13037940896197
H           -2.60574310710277        4.68738951774748        1.27338609817418
H           -3.04871470254027        4.81233730925985       -0.43705867569108
H           -4.23254554886285        5.17602649975431        0.80944565401783
H           -0.61103863988482        2.78299149162108        2.73081758163847
72
 energy: -103.315729202467 gnorm: 0.007879192688 xtb: 6.6.1 (8d0f1dd)
N           -1.49141309560763        2.78547630986175        2.23827420197851
C           -1.54724895075858        2.15353088549313        1.15468380164135
C           -2.74201169623331        2.05779521358522        0.25146684570979
C           -3.31007338401093        0.64596164872687        0.33184925189546
C           -4.29407523599569        0.24141292976069       -0.57347716712649
C           -4.83873893518875       -1.02722955775239       -0.52827779423563
O           -5.80537381470365       -1.49730769783758       -1.36468234667613
C           -6.38042388234598       -0.61882006452780       -2.29810129736141
C           -4.39017257390453       -1.94591288368795        0.44800976252877
O           -4.98307252140885       -3.17161039268777        0.41501179622471
C           -4.65733052883355       -4.10298740599201        1.41478935082503
C           -3.41728926466313       -1.54480695397510        1.34283967365886
C           -2.88385564621812       -0.26165558334889        1.28432833991236
C           -2.19320142515815        2.30274900952681       -1.17825574559283
C           -1.26544640449560        1.18225844053253       -1.67407860226091
C            0.00591269629741        1.12942877365529       -0.90893034298223
N            0.63893568563599       -0.04603998377610       -0.58053945177556
C            2.00569270467747       -0.02747175871908       -0.17426435238400
C            2.93861918198577       -0.52064763844167       -1.29565720674583
C            4.35825062294480       -0.41965132567096       -0.84599468775222
C            5.08817680040995        0.73558436292980       -1.05607694427830
C            6.39763921192865        0.83967212480281       -0.61166919408499
C            6.99345243202440       -0.21867772477344        0.05045940889353
O            8.27272417688001       -0.22697998544714        0.52646102042668
C            9.07625154230474        0.90846106681842        0.32007652038980
C            6.24376756921982       -1.39997170697276        0.28205444786381
O            6.92277280576183       -2.37960951028876        0.94136147985771
C            6.27697149111263       -3.60550813875762        1.15675442009220
C            4.92745738813567       -1.48164928269346       -0.14579225542766
C           -0.03874092782123       -1.30596886720901       -0.64327417094261
C           -3.86949944541964        3.07110372810536        0.58922403621871
C           -4.49260703676207        2.76918422798512        1.95086852756375
C           -3.39908383310691        4.52424405622245        0.55157455241139
H           -4.64598606467349        0.93849431790919       -1.31680399162858
H           -6.83569332195250        0.24944064796049       -1.80988712460677
H           -7.15622882562323       -1.19645105959572       -2.79833190579400
H           -5.65054597225744       -0.27902339391383       -3.04108212670010
H           -4.88009121470649       -3.71683812613748        2.41502493797336
H           -5.28439528121108       -4.97088856809730        1.21671716374548
H           -3.60414351477314       -4.40022745662679        1.36584469556643
H           -3.06489651874424       -2.21996289922670        2.10697021695237
H           -2.14246846162432        0.02226555185799        2.01602554914724
H           -3.02675550549955        2.39476292005276       -1.87450816394700
H           -1.64610818130925        3.24681504698242       -1.19198771818744
H           -1.80459087100967        0.23681623317517       -1.63353279569286
H           -1.02059279541372        1.38685352944817       -2.72401121927031
H           -0.68417971591425        1.63518945218150        0.66455805626690
H            0.64805575354413        1.99112360264265       -0.95639110484736
H            2.12706774951408       -0.66844231925282        0.70636369720478
H            2.29731996709743        0.98904882908091        0.10222820347955
H            2.77271497761279        0.09680285741869       -2.17963463027849
H            2.68725163525123       -1.55318436849928       -1.54021663152750
H            4.64399330318514        1.56849719685908       -1.58119785238506
H            6.94391301323530        1.75141306348547       -0.79800358713726
H            8.66362844859743        1.79521748633956        0.81436183419172
H            9.21431380314693        1.12011177541935       -0.74602522981279
H           10.04083452687802        0.66672608726383        0.76552999449036
H            7.00190937520782       -4.23316611075714        1.67132686791331
H            5.39233329323516       -3.48649572457467        1.78937524048139
H            5.99093210599911       -4.08147761507647        0.21262999708137
H            4.29604385493465       -2.34027307728649        0.07676925842675
H           -0.18294776872084       -1.63579878322045       -1.67720238450208
H           -1.01700965295846       -1.24678716139762       -0.15988305576663
H            0.56654960379398       -2.04519486535342       -0.12549226337653
H           -4.64582398687717        2.94596872239805       -0.17496772497584
H           -3.75371487796117        2.90161530983834        2.73491130288468
H           -4.86684237047621        1.74897201926131        1.98824864828937
H           -5.32287261388646        3.44779869793046        2.13219839511143
H           -2.60429988819303        4.68355527442453        1.27409842387795
H           -3.04742575695684        4.81079400577684       -0.43643691601183
H           -4.23054975746265        5.17566956080643        0.81087553497396
H           -0.60016422928898        2.78637207792346        2.73084748605511
72
 energy: -103.315798712311 gnorm: 0.005576079796 xtb: 6.6.1 (8d0f1dd)
N           -1.49161847699039        2.78577028794028        2.23869523549756
C           -1.54974241511244        2.15107581592949        1.15681462570703
C           -2.74395307723188        2.05850831160000        0.25127922561724
C           -3.31108919110184        0.64606585116140        0.33038085292667
C           -4.29513338413068        0.24063827973196       -0.57433909012144
C           -4.83973873369663       -1.02818674451582       -0.52861165749531
O           -5.80671596778775       -1.49840562543855       -1.36495671588396
C           -6.38072626448402       -0.61973175978366       -2.29863217133098
C           -4.39157289416485       -1.94634852955406        0.44800727891071
O           -4.98406503638323       -3.17263030330467        0.41538399658646
C           -4.65730133075931       -4.10383182726180        1.41490520852359
C           -3.41970974777563       -1.54394584626645        1.34341080540710
C           -2.88595579583729       -0.26084430156617        1.28384537061966
C           -2.19387828649084        2.30397351761935       -1.17843458206568
C           -1.26328358871190        1.18405817223260       -1.67037118740967
C            0.00669923875118        1.13177921393136       -0.90176830845163
N            0.64046149941666       -0.04588552633312       -0.57564733935082
C            2.00890003419995       -0.02914606740284       -0.17583582364995
C            2.93951324013435       -0.52135227588143       -1.30069588283535