72
 energy: -103.309808277595 gnorm: 0.070292431786 xtb: 6.6.1 (8d0f1dd)
N           -1.36756794915829        2.76759326274483        2.15100573582383
C           -1.51385113733532        2.12643672990215        1.09286123439646
C           -2.73438884657737        2.02947215857226        0.23626454635242
C           -3.31680480710866        0.62960413087279        0.32447217380466
C           -4.30925058960317        0.24062218213843       -0.57279414072914
C           -4.86145766513094       -1.02656691009216       -0.52336177165708
O           -5.83211674968186       -1.48947208393951       -1.35131281740179
C           -6.40814854833201       -0.60860396749286       -2.28472238045831
C           -4.40823891405097       -1.95009702993471        0.44936354533602
O           -5.00114245758984       -3.16851746792726        0.41681735266337
C           -4.66931517362098       -4.10647249006741        1.41088457040607
C           -3.42510013441649       -1.55251490714751        1.33547320224570
C           -2.88533074346511       -0.27470525358892        1.27230969199531
C           -2.20538259764959        2.29303444458470       -1.19713588217428
C           -1.26791461399567        1.17927507799873       -1.68097637687016
C            0.01609503361976        1.14447193935937       -0.93989920940277
N            0.61681222504321       -0.05563863821436       -0.60900417680366
C            1.98384447069891       -0.03960989384427       -0.15993944277583
C            2.92376143017262       -0.54664920163058       -1.26957721142179
C            4.34465075138134       -0.43249230210952       -0.82376414056555
C            5.06110605495323        0.73716098269599       -1.02240630116781
C            6.37285493349343        0.84971164949421       -0.58270238526369
C            6.98814289393460       -0.20235947060315        0.07329799710550
O            8.25983216357603       -0.20355609075399        0.54423718792756
C            9.05443360532567        0.93969247293463        0.34266804686779
C            6.26215785254848       -1.39959443195999        0.28951080454705
O            6.94519601863704       -2.37975251601248        0.93619393697808
C            6.31330008313375       -3.61697463699416        1.14754606428623
C            4.95547059603120       -1.49337250058156       -0.15508190491941
C           -0.06897514150662       -1.29983451593458       -0.64404926983879
C           -3.84700300437906        3.06360217657498        0.60135711128379
C           -4.46384106499054        2.76492426053966        1.96144065551403
C           -3.37183967940921        4.51761593543972        0.55915202191615
H           -4.66534963017756        0.94105516227904       -1.30972103602254
H           -6.85780926814472        0.26023091438941       -1.79380583307627
H           -7.18753205164426       -1.18367322933896       -2.78144872548793
H           -5.67902859160954       -0.27128103807673       -3.03069124210514
H           -4.88239695206784       -3.72288655010134        2.41370719029449
H           -5.29871054195974       -4.97111115639855        1.21402752994406
H           -3.61694143907598       -4.40457806754407        1.35109765186161
H           -3.06993634149589       -2.22614610619712        2.09733589891849
H           -2.13739933544875        0.01010274264554        1.99931757562772
H           -3.04116062332749        2.38236342843557       -1.88687539513517
H           -1.66317746345526        3.23486380077005       -1.21346629940354
H           -1.80149497282539        0.23346846640220       -1.64705226259625
H           -1.01674856703932        1.37854793918007       -2.72273981927902
H           -0.63528481572226        1.68396343016494        0.51834818242850
H            0.65349962654475        2.07287258376057       -1.00183261260487
H            2.08696163323936       -0.67250362299962        0.72803570577085
H            2.28672899940470        0.98336671961657        0.11140061325002
H            2.76012994143896        0.06635524036043       -2.16433128580624
H            2.67336604176350       -1.57881428205011       -1.50786756880990
H            4.60697056848278        1.56854568172418       -1.54057404170501
H            6.90809359426125        1.76759186834976       -0.76486575666613
H            8.63349860554851        1.81627502526441        0.84240450206105
H            9.18674495193453        1.15637845164812       -0.72319077257009
H           10.02106008937309        0.70226658243725        0.78350457121056
H            7.05516556123612       -4.23863457402969        1.64799447849475
H            5.43568555225670       -3.51392795220849        1.79590435390163
H            6.02085926401997       -4.09056870258608        0.20710247763212
H            4.39621772969577       -2.40301543154042       -0.00598851884335
H           -0.23372416641845       -1.62602474445755       -1.66889814027791
H           -1.03287934520893       -1.24319050988855       -0.13043933513015
H            0.53926633909784       -2.05330899292707       -0.13857794899168
H           -4.63871444047227        2.95475901630266       -0.15119057117248
H           -3.72303623402462        2.88672417993544        2.73719526595210
H           -4.85278428663209        1.75025901456669        1.99590088415905
H           -5.28645622136171        3.45272802770751        2.15463895269674
H           -2.57209508795792        4.67186919894283        1.27201497979291
H           -3.03171694723800        4.80912624492749       -0.43200999887610
H           -4.19525342727487        5.17598018464797        0.83109994551836
H           -0.47796796460212        2.84929753144328        2.57947154207702
72
 energy: -103.311904965430 gnorm: 0.033429350157 xtb: 6.6.1 (8d0f1dd)
N           -1.39537862700155        2.81132162165816        2.16412920657506
C           -1.52226380613615        2.14788580878102        1.10822372616604
C           -2.73834205209211        2.04240795364521        0.24052966096321
C           -3.31756613161952        0.63843674257757        0.32557157630537
C           -4.31078951528384        0.24175851029313       -0.57085473726921
C           -4.86089339175835       -1.02581247051750       -0.52270849528038
O           -5.83437593610582       -1.49080892306687       -1.35211107120383
C           -6.40763992667164       -0.60881877136533       -2.28449056060072
C           -4.40848676734488       -1.94801439604823        0.44913392612426
O           -5.00333087482406       -3.17052194338633        0.41662478657828
C           -4.66885049847963       -4.10633215144613        1.41058960309276
C           -3.42787310715510       -1.54931123860168        1.33756954543422
C           -2.88913998134343       -0.26871968035417        1.27561052252815
C           -2.20649797824811        2.29218687881077       -1.19659269556264
C           -1.26363043429966        1.18889587023134       -1.70331264341515
C            0.01538050620342        1.14759035427741       -0.93841905757597
N            0.62614047732675       -0.04882884926495       -0.60222011499005
C            1.98976376127904       -0.04224817726583       -0.16383517874295
C            2.93260903135878       -0.54658226647083       -1.27431676299257
C            4.35502442971124       -0.43557496356235       -0.83266153557401
C            5.06703323764391        0.73389470286075       -1.02662258357879
C            6.37546504456286        0.84876223890464       -0.58105702160115
C            6.99022853019980       -0.20318836925774        0.07518216860370
O            8.26622422179860       -0.20458766090901        0.54658209080760
C            9.05612043385306        0.93987692623949        0.34295265019899
C            6.26601667396743       -1.39917243173547        0.29000635148468
O            6.94930066135951       -2.38153698857781        0.93866815332180
C            6.31392479730972       -3.61651747133516        1.14948346899206
C            4.96294093158890       -1.49448384864376       -0.15949083206741
C           -0.06599479391765       -1.29886898953070       -0.64423431052822
C           -3.85694041658539        3.06656563917182        0.59624912228868
C           -4.46478112093354        2.76531121456233        1.96257066226811
C           -3.37372700468729        4.51592561242475        0.55965639429316
H           -4.66420291447417        0.94025231289502       -1.31086740846510
H           -6.85598523938747        0.26126450853152       -1.79376674423930
H           -7.18749493630081       -1.18176837983422       -2.78359138961088
H           -5.67708828566730       -0.27140426950060       -3.02818391472479
H           -4.88095204406534       -3.72208213188714        2.41371573320836
H           -5.29730180140719       -4.97345187302684        1.21600971489269
H           -3.61582842764184       -4.40235222996514        1.35077388696977
H           -3.06977990331702       -2.22664754596172        2.09656065527007
H           -2.13685765722364        0.01415082472498        1.99649649886801
H           -3.04669455135767        2.38216683684689       -1.88490784011498
H           -1.66546832632936        3.23811954016760       -1.20996523206761
H           -1.78881335409605        0.23703450316826       -1.64959336509539
H           -1.04288836257096        1.38904278893040       -2.75944011997759
H           -0.65447322917756        1.64748804800816        0.57073749228477
H            0.67017202604837        2.01878968335154       -1.04647060435382
H            2.09728689838718       -0.67441237405529        0.72500437829193
H            2.28055782842002        0.97661285459308        0.10967118148340
H            2.76151947135576        0.06477590737147       -2.16406836802179
H            2.67915111187900       -1.57989843087444       -1.51157062168472
H            4.60891407013566        1.56611838847112       -1.54023699626522
H            6.90961379970144        1.76793477461636       -0.76126975590590
H            8.63277341792074        1.81709479563153        0.84246976608089
H            9.18610605289740        1.15645624335699       -0.72301931287420
H           10.02391112085654        0.70586750426154        0.78326433239285
H            7.05307928510268       -4.24129134269919        1.64915607839170
H            5.43434683008278       -3.51354273730128        1.79475211608863
H            6.02024180572952       -4.08830763208148        0.20659923543683
H            4.39988547319625       -2.40213877127754       -0.00633012967531
H           -0.23868862735084       -1.63292959269949       -1.67216975846802
H           -1.03112023186684       -1.23920058158512       -0.13110386433417
H            0.53763106061714       -2.05304897736445       -0.13871769151009
H           -4.64417498909710        2.95383664069649       -0.15940236497202
H           -3.71522838763296        2.88487470247054        2.73633094132469
H           -4.85189262574280        1.74970752064739        1.99842516151301
H           -5.28642532326373        3.45243098075697        2.15861794062202
H           -2.56909215288606        4.66357860322700        1.27256946393636
H           -3.03147333861103        4.80376414938792       -0.43136990235881
H           -4.19674029641457        5.17461437181393        0.83127389378155
H           -0.48955754246314        2.84136947366981        2.61027450387133
72
 energy: -103.313440996715 gnorm: 0.019242895805 xtb: 6.6.1 (8d0f1dd)
N           -1.38645572352457        2.79337028008434        2.15986203662398
C           -1.51031667073619        2.13247602211385        1.09948263928476
C           -2.73515014128996        2.04085259603958        0.24014365444150
C           -3.31231034859201        0.63527669009807        0.32210073108755
C           -4.30931309788186        0.23874324266339       -0.57134638311083
C           -4.85935039688201       -1.02779230988813       -0.52338550879668
O           -5.83573209068825       -1.49241520811067       -1.35301517888662
C           -6.40840406387344       -0.60992438972697       -2.28418622974141
C           -4.40699346171225       -1.94975270009960        0.44722754576343
O           -5.00512799416382       -3.17335782830763        0.41592853290728
C           -4.67022574223052       -4.10734486038660        1.41022460780991
C           -3.42598884034383       -1.55341341581157        1.33586256355997
C           -2.88502093777536       -0.27360270363199        1.27275890061166
C           -2.20627228286284        2.29280341456607       -1.19732620103921
C           -1.26393366820643        1.18686743353130       -1.69816902700429
C            0.01474793105437        1.15373133043353       -0.93186559325533
N            0.62981871937211       -0.04164888971578       -0.59403023688958
C            1.98836844265603       -0.03851530892997       -0.15830860367609
C            2.92871413260953       -0.54415073936919       -1.27100950870051
C            4.35012983823444       -0.43273302838857       -0.82791744817858
C            5.06119477582400        0.73575448499357       -1.02342307791222
C            6.37057150281042        0.84965684467988       -0.58165566716514
C            6.98464114772154       -0.20269874156703        0.07374094556012
O            8.26360324711599       -0.20532816526172        0.54456820995875
C            9.05362494416823        0.93808477012745        0.34190365776100
C            6.26083527887644       -1.39721492527063        0.29030115726712
O            6.94728028026324       -2.38109010743462        0.93667818621734
C            6.31377526335795       -3.61609422425433        1.14926849092091
C            4.95747958874209       -1.49232043987349       -0.15582907837179
C           -0.06362525505200       -1.29687487173764       -0.64392370311851
C           -3.84991292547706        3.06579572391562        0.59797203361790
C           -4.46482513319094        2.76520428994825        1.96234574683587
C           -3.37275152443337        4.51724572083690        0.56023303678953
H           -4.66367239443169        0.93910159136239       -1.30949442471490
H           -6.85713987610392        0.26028672761280       -1.79345719309102
H           -7.18868384501766       -1.18299345575416       -2.78267418673304
H           -5.67919428913938       -0.27204641181134       -3.02882681216257
H           -4.88240893561372       -3.72287002085093        2.41352083220114
H           -5.29956748104464       -4.97424253538915        1.21573783977158
H           -3.61741686158993       -4.40455921599669        1.35095227869431
H           -3.07011583160777       -2.23063618872725        2.09661318071207
H           -2.13587750358570        0.00984375181126        1.99559502223768
H           -3.04569949635814        2.38329210666967       -1.88806434130173
H           -1.66185254266218        3.23848787764023       -1.21081260964612
H           -1.78804520016929        0.23226641405951       -1.64192667023930
H           -1.03756263417118        1.38556230078071       -2.75316244126100
H           -0.64438846975236        1.68782460826844        0.53326223350527
H            0.64850604218760        2.02390772293327       -1.00158293077348
H            2.09299714308372       -0.67163040947086        0.73075549506378
H            2.27905798474436        0.97812617913552        0.11376195654074
H            2.75700091403537        0.06531878706599       -2.15978635085924
H            2.67273257576830       -1.57839854586880       -1.50626210247831
H            4.60313274544673        1.56705765562138       -1.53894025761548
H            6.90602462306063        1.76769510659491       -0.76491588071592
H            8.63182837106843        1.81636880765041        0.84237267553252
H            9.18513985509763        1.15598872639757       -0.72351097552559
H           10.02073049479208        0.70248853438256        0.78296896296355
H            7.05476486493790       -4.23928464297198        1.64754822207055
H            5.43487338815882       -3.51484304319997        1.79541045109726
H            6.01936827515586       -4.08965528895114        0.20636173773010
H            4.39399564954011       -2.40063635098096       -0.00411346233343
H           -0.23567491025069       -1.62937281827587       -1.67519096329729
H           -1.03105720151903       -1.23975081569667       -0.13359948544837
H            0.53843635809685       -2.05194225164077       -0.14001961070277
H           -4.63682019196367        2.95253869544624       -0.15632259139196
H           -3.71775961532945        2.88544545606199        2.74029503502256
H           -4.85227848821917        1.74958020160148        1.99687375895405
H           -5.28659260192639        3.45283950885049        2.15308283277774
H           -2.56814574154538        4.66970280855545        1.27322222479086
H           -3.03125132657616        4.80608429241082       -0.43075234134744
H           -4.19759919338755        5.17370035658501        0.83077026373595
H           -0.45622136943856        2.83552336240383        2.57216300209768
72
 energy: -103.313773428808 gnorm: 0.010393178225 xtb: 6.6.1 (8d0f1dd)
N           -1.40166097068814        2.78456934147206        2.16193344305537
C           -1.51179633133267        2.12581254376217        1.09847939287325
C           -2.73651537209558        2.03712099362241        0.23802782402551
C           -3.31658618907717        0.63484959511018        0.32389932669123
C           -4.31192979529590        0.24026126648958       -0.57084264076605
C           -4.86085675619577       -1.02586443539378       -0.52197938723051
O           -5.83536671764984       -1.49072444994135       -1.35300737090525
C           -6.40712809018731       -0.60863062333139       -2.28486399856587
C           -4.40787513906044       -1.94685359137775        0.44928854347594
O           -5.00370322039455       -3.17104018820406        0.41718968808093
C           -4.66796698822392       -4.10507251638014        1.41062363508231
C           -3.42699847571592       -1.55099668850928        1.33786533182379
C           -2.88786426568935       -0.27181085572520        1.27495273725082
C           -2.20631938609411        2.29327004141997       -1.19709912007982
C           -1.26640324756173        1.18252017822080       -1.68674422717767
C            0.01882767171580        1.15625916167306       -0.93717448830545
N            0.62803476270518       -0.04332148048394       -0.60079857835969
C            1.98690325388682       -0.03997192195623       -0.16553831463608
C            2.93033848890675       -0.54653936219570       -1.27560745648527
C            4.35058261291493       -0.43300075468013       -0.82728493579824
C            5.06392353749450        0.73550761644310       -1.02361833657393
C            6.37419287363434        0.84905642965740       -0.58253889184116
C            6.98720946818191       -0.20324176399452        0.07327010494473
O            8.26543209049643       -0.20421907490738        0.54587155504478
C            9.05553764516113        0.93909710882514        0.34320874441970
C            6.26312133291938       -1.39812098426294        0.28889327753969
O            6.94858289767974       -2.38168943769268        0.93647817745850
C            6.31443324740826       -3.61610551787975        1.14928612178442
C            4.95919439384769       -1.49376557212734       -0.15710273483612
C           -0.06713524802955       -1.29782793985603       -0.64208035496971
C           -3.84875114706459        3.06495593051664        0.59828487664579
C           -4.46602442760619        2.76533818791440        1.96151932679135
C           -3.37359799945721        4.51768195818389        0.55851119018435
H           -4.66589209438477        0.94140073728620       -1.30895851765428
H           -6.85740062510346        0.26118389477715       -1.79475662327403
H           -7.18680572484288       -1.18265466656936       -2.78302496418650
H           -5.67799162156118       -0.27061107250061       -3.02993383311287
H           -4.88123437360936       -3.72233768317880        2.41434770587581
H           -5.29686135317915       -4.97154010910220        1.21443785545926
H           -3.61517296970701       -4.40241562921110        1.35126887585088
H           -3.07086063810220       -2.22604177249848        2.09954750220690
H           -2.14054491926566        0.01349987657680        1.99974574728109
H           -3.04340278397711        2.38300546670927       -1.88915509540264
H           -1.66166795346386        3.23780616005974       -1.21274402444643
H           -1.79675868044737        0.23138553536274       -1.64156299418714
H           -1.02422622735202        1.37989965948698       -2.73437363303147
H           -0.64506504296174        1.67028653710780        0.54005627041793
H            0.65074124853477        2.04213698121245       -1.01357361789752
H            2.08979516453384       -0.67394926482223        0.72326822691196
H            2.28579347138581        0.97704435073456        0.10546678538390
H            2.76351901810576        0.06326655630295       -2.16616556209126
H            2.67638576770419       -1.58085742007621       -1.51165537373294
H            4.60900356380825        1.56670365857881       -1.54210179518379
H            6.91009234363255        1.76725779689067       -0.76398050742907
H            8.63414237266804        1.81771045059248        0.84299607171180
H            9.18822922434733        1.15690325595855       -0.72217881939355
H           10.02263073767107        0.70408532208404        0.78473742111338
H            7.05454951796207       -4.23907574771388        1.64920372008716
H            5.43526141788571       -3.51340236969377        1.79489440550418
H            6.02134041700313       -4.09095532166662        0.20681704087162
H            4.39808519758119       -2.40392603372822       -0.00896037316280
H           -0.23864607503199       -1.62945090904738       -1.67152123343955
H           -1.03279296992078       -1.23910913747381       -0.12939752302343
H            0.53752322008720       -2.05159179448447       -0.13850862098055
H           -4.63950756171487        2.95432812982184       -0.15241066255246
H           -3.71974533990546        2.88599447538691        2.73809252592471
H           -4.85344897467425        1.74992055763631        1.99634140063365
H           -5.28677107727132        3.45322267202844        2.15505094297838
H           -2.57030126555438        4.67019695676540        1.27159628830850
H           -3.03228396204349        4.80839980203965       -0.43226968357371
H           -4.19607820786087        5.17605923115152        0.83087589962255
H           -0.47882867284830        2.83447724338572        2.58024991600296
72
 energy: -103.313881000336 gnorm: 0.008216923526 xtb: 6.6.1 (8d0f1dd)
N           -1.39293996207492        2.80118511105373        2.15896918361224
C           -1.50535974263809        2.13713203997797        1.09856749335211
C           -2.73345859166310        2.03784775709179        0.24060996680030
C           -3.31369681455113        0.63459398240187        0.32447535192515
C           -4.30854659880925        0.23981299210674       -0.57137028314110
C           -4.85849914606939       -1.02632494153436       -0.52271412641115
O           -5.83413181867726       -1.49084085502868       -1.35271684606636
C           -6.40748155138279       -0.60912969161894       -2.28366131238393
C           -4.40624525713703       -1.94799034894022        0.44801182059679
O           -5.00347224103374       -3.17175683211546        0.41626510873548
C           -4.66999188658169       -4.10635236105282        1.40988907489505
C           -3.42425874175219       -1.55297154588405        1.33558382055025
C           -2.88445106460314       -0.27386699265033        1.27343246655645
C           -2.20620292161905        2.29214488886237       -1.19637280126965
C           -1.26609917164580        1.18479942292400       -1.69466483236346
C            0.01880005099375        1.15268649053192       -0.94314119182230
N            0.62557106690792       -0.04651124509872       -0.60059795291175
C            1.98317174109831       -0.03982290918453       -0.15925760714828
C            2.92713711425199       -0.54486153937825       -1.26986496272195
C            4.34843284975797       -0.43254846667316       -0.82533717002524
C            5.06176299288969        0.73587604672360       -1.02258144667910
C            6.37213008270888        0.84970507283638       -0.58150466148648
C            6.98535271386294       -0.20286231618606        0.07390951647358
O            8.26387077761334       -0.20422785679819        0.54536164308429
C            9.05357808254214        0.93875528543526        0.34148324637758
C            6.26157626759434       -1.39772446613788        0.29006623020811
O            6.94701645987762       -2.38141105448348        0.93744917308249
C            6.31306386630151       -3.61604000089858        1.14903709177263
C            4.95736442888896       -1.49324214970433       -0.15521711154118
C           -0.06703313692632       -1.30161724640905       -0.64407532112205
C           -3.84861360437988        3.06346830833423        0.59858367972891
C           -4.46466131936516        2.76439202891178        1.96247648805036
C           -3.37275297185406        4.51573938658121        0.55974231475838
H           -4.66199856468117        0.94086206886684       -1.30981553150834
H           -6.85684982482043        0.26072069251833       -1.79284183323766
H           -7.18799674490733       -1.18290114051856       -2.78107020129336
H           -5.67904716295600       -0.27132707816156       -3.02947982145255
H           -4.88261001232575       -3.72292415602087        2.41344559160053
H           -5.30003982868181       -4.97231498088709        1.21463023737129
H           -3.61771467767025       -4.40543701936505        1.35095974871645
H           -3.06734272923458       -2.22900724270764        2.09569492638350
H           -2.13403378762632        0.00923238008672        1.99606482583494
H           -3.04561191814865        2.38235703747092       -1.88512591791064
H           -1.66408946630646        3.23766248728994       -1.21196659593917
H           -1.79586782205647        0.23435242108922       -1.65162476577027
H           -1.03001490118321        1.38598923048293       -2.74366821256510
H           -0.64212290464642        1.67228250345605        0.54284496196769
H            0.65685657764167        2.03698006479581       -1.02207209974235
H            2.08913218478626       -0.67346874550885        0.72971871627141
H            2.28002418101576        0.97824764344273        0.11365761247494
H            2.75792748003145        0.06604555285477       -2.15960000632665
H            2.67364135462390       -1.57889121141141       -1.50637876121789
H            4.60544384767440        1.56805923377530       -1.53829690171376
H            6.90741865146440        1.76820413803970       -0.76266481042928
H            8.63231706788978        1.81703078610914        0.84179506661261
H            9.18444791856695        1.15637009872652       -0.72422640620437
H           10.02136576081038        0.70382428610744        0.78166327578636
H            7.05354596956394       -4.24004130615677        1.64732883834691
H            5.43441219341678       -3.51436447120978        1.79553065127550
H            6.01905891827151       -4.08923863246370        0.20615093193385
H            4.39517631921401       -2.40186148884206       -0.00334231782829
H           -0.23374210592513       -1.63124294019084       -1.67408562499145
H           -1.03362771784385       -1.24333212391398       -0.13423680054989
H            0.53846531568674       -2.05378408314854       -0.13905847969081
H           -4.63838643120568        2.95223942193953       -0.15389474347804
H           -3.71809125638926        2.88561453376785        2.73830565161690
H           -4.85127377433372        1.74884425717566        1.99781744542683
H           -5.28574217025206        3.45188404722255        2.15606904846892
H           -2.57008604164736        4.66745505221623        1.27367080761889
H           -3.03037790979360        4.80570743314350       -0.43086186651775
H           -4.19576029169431        5.17384324691520        0.83132728302130
H           -0.47109957119303        2.84405157959918        2.57986363920488
72
 energy: -103.313958575195 gnorm: 0.005709815695 xtb: 6.6.1 (8d0f1dd)
N           -1.39410305781006        2.79405935989372        2.16444819109726
C           -1.50918831775695        2.13389443866282        1.10189424526316
C           -2.73670247338298        2.03989108582611        0.24106953385657
C           -3.31676201010647        0.63607774364452        0.32361586804394
C           -4.31149717511968        0.23965707678263       -0.57196650685868
C           -4.86087301705419       -1.02692647035885       -0.52293109821836
O           -5.83616383937450       -1.49202830685277       -1.35342399172305
C           -6.40818778029312       -0.61004785407987       -2.28480301576883
C           -4.40870332200255       -1.94799803595665        0.44821593302206
O           -5.00465235147797       -3.17282148594602        0.41665706352606
C           -4.66917853592415       -4.10644698629421        1.41043088637639
C           -3.42814443528435       -1.55146859027337        1.33677033941563
C           -2.88853333892619       -0.27182360688222        1.27383773808553
C           -2.20628855381927        2.29202895352135       -1.19577415453592
C           -1.26479830310130        1.18560302597731       -1.69509376130960
C            0.01827703929618        1.15176795828729       -0.93872397187108
N            0.62820743077230       -0.04556600618715       -0.59729948392097
C            1.98734933765474       -0.03948917514206       -0.16098775039523
C            2.92976162033516       -0.54517796464852       -1.27335865390443