      -----------------------------------------------------------      
     |                   =====================                   |     
     |                           x T B                           |     
     |                   =====================                   |     
     |                         S. Grimme                         |     
     |          Mulliken Center for Theoretical Chemistry        |     
     |                    University of Bonn                     |     
      -----------------------------------------------------------      

   * xtb version 6.6.1 (8d0f1dd) compiled by 'conda@1efc2f54142f' on 2023-08-01

   xtb is free software: you can redistribute it and/or modify it under
   the terms of the GNU Lesser General Public License as published by
   the Free Software Foundation, either version 3 of the License, or
   (at your option) any later version.
   
   xtb is distributed in the hope that it will be useful,
   but WITHOUT ANY WARRANTY; without even the implied warranty of
   MERCHANTABILITY or FITNESS FOR A PARTICULAR PURPOSE.  See the
   GNU Lesser General Public License for more details.
   
   Cite this work as:
   * C. Bannwarth, E. Caldeweyher, S. Ehlert, A. Hansen, P. Pracht,
     J. Seibert, S. Spicher, S. Grimme, WIREs Comput. Mol. Sci., 2020, 11,
     e01493. DOI: 10.1002/wcms.1493
   
   for GFN2-xTB:
   * C. Bannwarth, S. Ehlert and S. Grimme., J. Chem. Theory Comput., 2019,
     15, 1652-1671. DOI: 10.1021/acs.jctc.8b01176
   for GFN1-xTB:
   * S. Grimme, C. Bannwarth, P. Shushkov, J. Chem. Theory Comput., 2017,
     13, 1989-2009. DOI: 10.1021/acs.jctc.7b00118
   for GFN0-xTB:
   * P. Pracht, E. Caldeweyher, S. Ehlert, S. Grimme, ChemRxiv, 2019, preprint.
     DOI: 10.26434/chemrxiv.8326202.v1
   for GFN-FF:
   * S. Spicher and S. Grimme, Angew. Chem. Int. Ed., 2020, 59, 15665-15673.
     DOI: 10.1002/anie.202004239
   
   for ALPB and GBSA implicit solvation:
   * S. Ehlert, M. Stahn, S. Spicher, S. Grimme, J. Chem. Theory Comput.,
     2021, 17, 4250-4261. DOI: 10.1021/acs.jctc.1c00471
   
   for DFT-D4:
   * E. Caldeweyher, C. Bannwarth and S. Grimme, J. Chem. Phys., 2017,
     147, 034112. DOI: 10.1063/1.4993215
   * E. Caldeweyher, S. Ehlert, A. Hansen, H. Neugebauer, S. Spicher,
     C. Bannwarth and S. Grimme, J. Chem. Phys., 2019, 150, 154122.
     DOI: 10.1063/1.5090222
   * E. Caldeweyher, J.-M. Mewes, S. Ehlert and S. Grimme, Phys. Chem. Chem. Phys.
     2020, 22, 8499-8512. DOI: 10.1039/D0CP00502A
   
   for sTDA-xTB:
   * S. Grimme and C. Bannwarth, J. Chem. Phys., 2016, 145, 054103.
     DOI: 10.1063/1.4959605
   
   in the mass-spec context:
   * V. Asgeirsson, C. Bauer and S. Grimme, Chem. Sci., 2017, 8, 4879.
     DOI: 10.1039/c7sc00601b
   * J. Koopman and S. Grimme, ACS Omega 2019, 4, 12, 15120-15133.
     DOI: 10.1021/acsomega.9b02011
   
   for metadynamics refer to:
   * S. Grimme, J. Chem. Theory Comput., 2019, 155, 2847-2862
     DOI: 10.1021/acs.jctc.9b00143
   
   for SPH calculations refer to:
   * S. Spicher and S. Grimme, J. Chem. Theory Comput., 2021, 17, 1701-1714
     DOI: 10.1021/acs.jctc.0c01306
   
   with help from (in alphabetical order)
   P. Atkinson, C. Bannwarth, F. Bohle, G. Brandenburg, E. Caldeweyher
   M. Checinski, S. Dohm, S. Ehlert, S. Ehrlich, I. Gerasimov, C. Hölzer
   A. Katbashev, J. Koopman, C. Lavigne, S. Lehtola, F. März, M. Müller,
   F. Musil, H. Neugebauer, J. Pisarek, C. Plett, P. Pracht, F. Pultar,
   J. Seibert, P. Shushkov, S. Spicher, M. Stahn, M. Steiner, T. Strunk,
   J. Stückrath, T. Rose, and J. Unsleber
   
 * started run on 2024/06/05 at 20:00:09.960     

           -------------------------------------------------
          |                Calculation Setup                |
           -------------------------------------------------

          program call               : xtb struc.xyz --opt loose --input .xc1 --gfn2
          hostname                   : n-62-11-66
          coordinate file            : struc.xyz
          omp threads                :                     1

   ID    Z sym.   atoms
    1    6 C      1, 3, 5-7, 10, 11, 14
    2    7 N      2, 4, 9, 13
    3    8 O      8, 12
    4    1 H      15-25
constraining bond 5 12 to    5.7600000 Å, actual value:    3.4583605 Å

           -------------------------------------------------
          |                 G F N 2 - x T B                 |
           -------------------------------------------------

        Reference                      10.1021/acs.jctc.8b01176
      * Hamiltonian:
        H0-scaling (s, p, d)           1.850000    2.230000    2.230000
        zeta-weighting                 0.500000
      * Dispersion:
        s8                             2.700000
        a1                             0.520000
        a2                             5.000000
        s9                             5.000000
      * Repulsion:
        kExp                           1.500000    1.000000
        rExp                           1.000000
      * Coulomb:
        alpha                          2.000000
        third order                    shell-resolved
        anisotropic                    true
        a3                             3.000000
        a5                             4.000000
        cn-shift                       1.200000
        cn-exp                         4.000000
        max-rad                        5.000000


          ...................................................
          :                      SETUP                      :
          :.................................................:
          :  # basis functions                  67          :
          :  # atomic orbitals                  67          :
          :  # shells                           39          :
          :  # electrons                        74          :
          :  max. iterations                   250          :
          :  Hamiltonian                  GFN2-xTB          :
          :  restarted?                      false          :
          :  GBSA solvation                  false          :
          :  PC potential                    false          :
          :  electronic temp.         5000.0000000     K    :
          :  accuracy                    1.0000000          :
          :  -> integral cutoff          0.2500000E+02      :
          :  -> integral neglect         0.1000000E-07      :
          :  -> SCF convergence          0.1000000E-05 Eh   :
          :  -> wf. convergence          0.1000000E-03 e    :
          :  Broyden damping             0.4000000          :
          ...................................................

 iter      E             dE          RMSdq      gap      omega  full diag
   1    -42.5894031 -0.425894E+02  0.445E+00    3.52       0.0  T
   2    -42.7683054 -0.178902E+00  0.251E+00    3.36       1.0  T
   3    -42.7759211 -0.761567E-02  0.147E+00    3.35       1.0  T
   4    -42.7728404  0.308066E-02  0.553E-01    3.33       1.0  T
   5    -42.7789548 -0.611444E-02  0.112E-01    3.35       1.0  T
   6    -42.7790473 -0.924914E-04  0.614E-02    3.33       1.0  T
   7    -42.7790721 -0.247928E-04  0.258E-02    3.34       1.0  T
   8    -42.7790772 -0.508996E-05  0.938E-03    3.34       2.1  T
   9    -42.7790779 -0.669422E-06  0.448E-03    3.34       4.5  T
  10    -42.7790780 -0.821510E-07  0.115E-03    3.34      17.4  T
  11    -42.7790780 -0.322663E-08  0.553E-04    3.34      36.2  T
  12    -42.7790780 -0.287051E-08  0.180E-04    3.34     111.1  T

   *** convergence criteria satisfied after 12 iterations ***

         #    Occupation            Energy/Eh            Energy/eV
      -------------------------------------------------------------
         1        2.0000           -0.9185990             -24.9964
       ...           ...                  ...                  ...
        31        1.9996           -0.6230278             -16.9534
        32        1.9995           -0.6194601             -16.8564
        33        1.9979           -0.5974976             -16.2587
        34        1.9932           -0.5789629             -15.7544
        35        1.9817           -0.5631863             -15.3251
        36        1.9779           -0.5602245             -15.2445
        37        1.9748           -0.5581234             -15.1873 (HOMO)
        38        0.0652           -0.4353579             -11.8467 (LUMO)
        39        0.0099           -0.4050467             -11.0219
        40        0.0013           -0.3732218             -10.1559
        41        0.0000           -0.2886859              -7.8555
        42                         -0.2065804              -5.6213
       ...                                ...                  ...
        67                          0.5625656              15.3082
      -------------------------------------------------------------
                  HL-Gap            0.1227656 Eh            3.3406 eV
             Fermi-level           -0.4890455 Eh          -13.3076 eV

 SCC (total)                   0 d,  0 h,  0 min,  0.032 sec
 SCC setup                      ...        0 min,  0.000 sec (  0.705%)
 Dispersion                     ...        0 min,  0.000 sec (  0.766%)
 classical contributions        ...        0 min,  0.000 sec (  0.215%)
 integral evaluation            ...        0 min,  0.005 sec ( 14.033%)
 iterations                     ...        0 min,  0.015 sec ( 47.956%)
 molecular gradient             ...        0 min,  0.012 sec ( 35.869%)
 printout                       ...        0 min,  0.000 sec (  0.436%)

         :::::::::::::::::::::::::::::::::::::::::::::::::::::
         ::                     SUMMARY                     ::
         :::::::::::::::::::::::::::::::::::::::::::::::::::::
         :: total energy              -4.412115920443 Eh    ::
         :: gradient norm             24.606876607377 Eh/a0 ::
         :: HOMO-LUMO gap              3.340621582928 eV    ::
         ::.................................................::
         :: SCC energy               -42.779077977399 Eh    ::
         :: -> isotropic ES            0.141123876439 Eh    ::
         :: -> anisotropic ES         -0.005230418907 Eh    ::
         :: -> anisotropic XC          0.011966818540 Eh    ::
         :: -> dispersion             -0.022657731803 Eh    ::
         :: repulsion energy           0.531105277918 Eh    ::
         :: add. restraining          37.835742620028 Eh    ::
         :: total charge               1.000000000002 e     ::
         :::::::::::::::::::::::::::::::::::::::::::::::::::::

      ----------------------------------------------------------- 
     |                   =====================                   |
     |                        A N C O P T                        |
     |                   =====================                   |
     |               Approximate Normal Coordinate               |
     |                Rational Function Optimizer                |
      ----------------------------------------------------------- 

          ...................................................
          :                      SETUP                      :
          :.................................................:
          :   optimization level             loose          :
          :   max. optcycles                   200          :
          :   ANC micro-cycles                  20          :
          :   degrees of freedom                69          :
          :.................................................:
          :   RF solver                   davidson          :
          :   write xtbopt.log                true          :
          :   linear?                        false          :
          :   energy convergence         0.5000000E-04 Eh   :
          :   grad. convergence          0.4000000E-02 Eh/α :
          :   maxmium RF displ.          1.0000000          :
          :   Hlow (freq-cutoff)         0.1000000E-01      :
          :   Hmax (freq-cutoff)         5.0000000          :
          :   S6 in model hess.         20.0000000          :
          ...................................................

generating ANC from model Hessian ...
Using Lindh-Hessian (1995)
 Shifting diagonal of input Hessian by    4.9546476618472628     
 Lowest  eigenvalues of input Hessian
    0.010000    0.455390    0.000000    0.000000    0.000000    0.000000
    0.000000    0.000000    4.957653    4.959029    4.962519    4.963814
    4.964707    4.966232    4.966602    4.969711    4.975508    4.981152
 Highest eigenvalues
    6.929275    7.098943    7.177448    7.261691    7.400312   14.254419


........................................................................
.............................. CYCLE    1 ..............................
........................................................................

 iter      E             dE          RMSdq      gap      omega  full diag
   1    -42.7790780 -0.427791E+02  0.626E-05    3.34       0.0  T
   2    -42.7790780 -0.124416E-10  0.329E-05    3.34     607.4  T
   3    -42.7790780  0.127898E-12  0.193E-05    3.34    1034.2  T
     SCC iter.                  ...        0 min,  0.004 sec
     gradient                   ...        0 min,  0.012 sec
 * total energy  :    -4.4121159 Eh     change       -0.6650680E-10 Eh
   gradient norm :    24.6068766 Eh/α   predicted     0.0000000E+00 (-100.00%)
   displ. norm   :     0.9035642 α      lambda       -0.2223383E+02
   maximum displ.:     0.8970046 α      in ANC's #15, #61, #65, ...

........................................................................
.............................. CYCLE    2 ..............................
........................................................................

 iter      E             dE          RMSdq      gap      omega  full diag
   1    -42.5509607 -0.425510E+02  0.162E+00    2.93       0.0  T
   2    -42.5658089 -0.148482E-01  0.147E+00    1.41       1.0  T
   3    -42.5974110 -0.316021E-01  0.729E-01    2.59       1.0  T
   4    -42.5918275  0.558349E-02  0.770E-01    1.70       1.0  T
   5    -42.6033446 -0.115171E-01  0.181E-01    2.06       1.0  T
   6    -42.6040811 -0.736557E-03  0.581E-02    2.12       1.0  T
   7    -42.6041439 -0.627590E-04  0.265E-02    2.14       1.0  T
   8    -42.6041492 -0.526411E-05  0.131E-02    2.14       1.5  T
   9    -42.6041507 -0.154065E-05  0.482E-03    2.15       4.1  T
  10    -42.6041509 -0.191211E-06  0.237E-03    2.14       8.4  T
  11    -42.6041509 -0.282815E-07  0.611E-04    2.14      32.7  T
  12    -42.6041509 -0.337520E-08  0.212E-04    2.14      94.1  T
     SCC iter.                  ...        0 min,  0.015 sec
     gradient                   ...        0 min,  0.011 sec
 * total energy  :   -23.1182478 Eh     change       -0.1870613E+02 Eh
   gradient norm :    16.8188407 Eh/α   predicted    -0.2019309E+02 (   7.95%)
   displ. norm   :     0.7788949 α      lambda       -0.1307248E+02
   maximum displ.:     0.7659029 α      in ANC's #15, #61, #63, ...

........................................................................
.............................. CYCLE    3 ..............................
........................................................................

 iter      E             dE          RMSdq      gap      omega  full diag
   1    -42.3150771 -0.423151E+02  0.169E+00    1.53       0.0  T
   2    -42.3271490 -0.120719E-01  0.169E+00    1.15       1.0  T
   3    -42.3794666 -0.523176E-01  0.674E-01    1.58       1.0  T
   4    -42.2936092  0.858574E-01  0.155E+00    0.63       1.0  T
   5    -42.3799011 -0.862919E-01  0.407E-01    1.44       1.0  T
   6    -42.3833037 -0.340258E-02  0.784E-02    1.37       1.0  T
   7    -42.3834137 -0.110015E-03  0.350E-02    1.38       1.0  T
   8    -42.3834261 -0.123831E-04  0.197E-02    1.38       1.0  T
   9    -42.3834261 -0.100037E-08  0.946E-03    1.38       2.1  T
  10    -42.3834282 -0.209422E-05  0.454E-03    1.38       4.4  T
  11    -42.3834282 -0.116200E-07  0.216E-03    1.38       9.3  T
  12    -42.3834283 -0.102566E-06  0.552E-04    1.38      36.2  T
  13    -42.3834283 -0.840496E-08  0.180E-04    1.38     110.8  T
     SCC iter.                  ...        0 min,  0.016 sec
     gradient                   ...        0 min,  0.011 sec
 * total energy  :   -33.6414025 Eh     change       -0.1052315E+02 Eh
   gradient norm :    10.3135860 Eh/α   predicted    -0.1051199E+02 (  -0.11%)
   displ. norm   :     0.7360377 α      lambda       -0.7388191E+01
   maximum displ.:     0.6499413 α      in ANC's #15, #63, #2, ...

........................................................................
.............................. CYCLE    4 ..............................
........................................................................

 iter      E             dE          RMSdq      gap      omega  full diag
   1    -42.1877501 -0.421878E+02  0.116E+00    0.86       0.0  T
   2    -42.0366425  0.151108E+00  0.218E+00    1.41       1.0  T
   3    -42.1696280 -0.132986E+00  0.124E+00    0.46       1.0  T
   4    -42.2175402 -0.479122E-01  0.480E-01    0.85       1.0  T
   5    -42.2102188  0.732140E-02  0.514E-01    0.74       1.0  T
   6    -42.2173885 -0.716973E-02  0.218E-01    0.84       1.0  T
   7    -42.2190660 -0.167741E-02  0.615E-02    0.91       1.0  T
   8    -42.2192047 -0.138779E-03  0.206E-02    0.94       1.0  T
   9    -42.2192066 -0.185494E-05  0.141E-02    0.94       1.4  T
  10    -42.2192123 -0.574711E-05  0.325E-03    0.94       6.2  T
  11    -42.2192123  0.254452E-09  0.187E-03    0.94      10.7  T
  12    -42.2192124 -0.465962E-07  0.593E-04    0.94      33.8  T
  13    -42.2192124 -0.278313E-08  0.246E-04    0.94      81.2  T
     SCC iter.                  ...        0 min,  0.016 sec
     gradient                   ...        0 min,  0.011 sec
 * total energy  :   -39.2935661 Eh     change       -0.5652164E+01 Eh
   gradient norm :     5.3699931 Eh/α   predicted    -0.5695387E+01 (   0.76%)
   displ. norm   :     0.5723251 α      lambda       -0.2982529E+01
   maximum displ.:     0.4987843 α      in ANC's #15, #2, #63, ...

........................................................................
.............................. CYCLE    5 ..............................
........................................................................

 iter      E             dE          RMSdq      gap      omega  full diag
   1    -42.0077457 -0.420077E+02  0.206E+00    0.02       0.0  T
   2    -41.3143848  0.693361E+00  0.420E+00    1.60       1.0  T
   3    -42.1278081 -0.813423E+00  0.614E-01    0.72       1.0  T
   4    -42.1291129 -0.130484E-02  0.474E-01    0.61       1.0  T
   5    -42.1292992 -0.186261E-03  0.412E-01    0.48       1.0  T
   6    -42.1347056 -0.540641E-02  0.132E-01    0.64       1.0  T
   7    -42.1351728 -0.467195E-03  0.726E-02    0.63       1.0  T
   8    -42.1352609 -0.881855E-04  0.506E-02    0.60       1.0  T
   9    -42.1353511 -0.901747E-04  0.236E-02    0.62       1.0  T
  10    -42.1353694 -0.182355E-04  0.107E-02    0.62       1.9  T
  11    -42.1353744 -0.503796E-05  0.186E-03    0.62      10.7  T
  12    -42.1353744 -0.452931E-07  0.126E-03    0.62      15.9  T
  13    -42.1353745 -0.611774E-07  0.265E-04    0.62      75.5  T
  14    -42.1353745 -0.113760E-08  0.125E-04    0.62     159.9  T
     SCC iter.                  ...        0 min,  0.017 sec
     gradient                   ...        0 min,  0.011 sec
 * total energy  :   -41.2055939 Eh     change       -0.1912028E+01 Eh
   gradient norm :     1.4866551 Eh/α   predicted    -0.1979738E+01 (   3.54%)
   displ. norm   :     0.3051973 α      lambda       -0.3873941E+00
   maximum displ.:     0.1853546 α      in ANC's #2, #15, #63, ...

........................................................................
.............................. CYCLE    6 ..............................
........................................................................

 iter      E             dE          RMSdq      gap      omega  full diag
   1    -42.0713086 -0.420713E+02  0.123E+00    0.05       0.0  T
   2    -41.4382967  0.633012E+00  0.377E+00    1.59       1.0  T
   3    -42.1215943 -0.683298E+00  0.588E-01    0.57       1.0  T
   4    -42.1111509  0.104433E-01  0.683E-01    0.68       1.0  T
   5    -42.1283766 -0.172257E-01  0.254E-01    0.57       1.0  T
   6    -42.1288556 -0.478991E-03  0.186E-01    0.45       1.0  T
   7    -42.1301278 -0.127212E-02  0.578E-02    0.49       1.0  T
   8    -42.1302218 -0.940579E-04  0.279E-02    0.49       1.0  T
   9    -42.1302524 -0.305986E-04  0.880E-03    0.51       2.3  T
  10    -42.1302483  0.411490E-05  0.112E-02    0.50       1.8  T
  11    -42.1302540 -0.575127E-05  0.108E-03    0.51      18.5  T
  12    -42.1302540  0.288493E-07  0.114E-03    0.51      17.6  T
  13    -42.1302541 -0.563496E-07  0.229E-04    0.51      87.2  T
  14    -42.1302541 -0.167652E-08  0.861E-05    0.51     232.2  T
     SCC iter.                  ...        0 min,  0.017 sec
     gradient                   ...        0 min,  0.011 sec
 * total energy  :   -41.4352315 Eh     change       -0.2296376E+00 Eh
   gradient norm :     0.5151298 Eh/α   predicted    -0.2117409E+00 (  -7.79%)
   displ. norm   :     0.1631848 α      lambda       -0.7382885E-01
   maximum displ.:     0.0648910 α      in ANC's #26, #1, #31, ...

........................................................................
.............................. CYCLE    7 ..............................
........................................................................

 iter      E             dE          RMSdq      gap      omega  full diag
   1    -42.1390900 -0.421391E+02  0.495E-01    0.30       0.0  T
   2    -41.9844173  0.154673E+00  0.185E+00    1.30       1.0  T
   3    -42.1368001 -0.152383E+00  0.557E-01    0.40       1.0  T
   4    -42.1427367 -0.593656E-02  0.408E-01    0.60       1.0  T
   5    -42.1471456 -0.440894E-02  0.220E-01    0.55       1.0  T
   6    -42.1488886 -0.174295E-02  0.619E-02    0.45       1.0  T
   7    -42.1490502 -0.161665E-03  0.178E-02    0.48       1.1  T
   8    -42.1490527 -0.248414E-05  0.107E-02    0.47       1.9  T
   9    -42.1490527  0.353381E-07  0.636E-03    0.48       3.1  T
  10    -42.1490543 -0.165042E-05  0.892E-04    0.47      22.4  T
  11    -42.1490543  0.330418E-08  0.785E-04    0.47      25.5  T
  12    -42.1490543 -0.221559E-07  0.167E-04    0.47     119.6  T
     SCC iter.                  ...        0 min,  0.015 sec
     gradient                   ...        0 min,  0.011 sec
 * total energy  :   -41.4929512 Eh     change       -0.5771969E-01 Eh
   gradient norm :     0.4500562 Eh/α   predicted    -0.3789784E-01 ( -34.34%)
   displ. norm   :     0.3204268 α      lambda       -0.9257968E-01
   maximum displ.:     0.1922946 α      in ANC's #1, #26, #31, ...

........................................................................
.............................. CYCLE    8 ..............................
........................................................................

 iter      E             dE          RMSdq      gap      omega  full diag
   1    -42.1552605 -0.421553E+02  0.830E-01    0.21       0.0  T
   2    -41.9186328  0.236628E+00  0.245E+00    1.06       1.0  T
   3    -42.1390419 -0.220409E+00  0.100E+00    0.26       1.0  T
   4    -42.1355192  0.352268E-02  0.103E+00    0.81       1.0  T
   5    -42.1734592 -0.379400E-01  0.441E-01    0.59       1.0  T
   6    -42.1800474 -0.658823E-02  0.112E-01    0.41       1.0  T
   7    -42.1805704 -0.522984E-03  0.372E-02    0.45       1.0  T
   8    -42.1805817 -0.113311E-04  0.225E-02    0.45       1.0  T
   9    -42.1805683  0.133970E-04  0.203E-02    0.46       1.0  T
  10    -42.1805881 -0.198173E-04  0.260E-03    0.45       7.7  T
  11    -42.1805882 -0.120229E-06  0.153E-03    0.45      13.0  T
  12    -42.1805883 -0.835673E-07  0.348E-04    0.45      57.5  T
  13    -42.1805883 -0.212212E-08  0.139E-04    0.45     143.4  T
     SCC iter.                  ...        0 min,  0.016 sec
     gradient                   ...        0 min,  0.011 sec
 * total energy  :   -41.5592536 Eh     change       -0.6630241E-01 Eh
   gradient norm :     0.3614750 Eh/α   predicted    -0.5104281E-01 ( -23.02%)
   displ. norm   :     0.4231430 α      lambda       -0.5692260E-01
   maximum displ.:     0.3483674 α      in ANC's #1, #31, #68, ...

........................................................................
.............................. CYCLE    9 ..............................
........................................................................

 iter      E             dE          RMSdq      gap      omega  full diag
   1    -42.1737268 -0.421737E+02  0.847E-01    0.28       0.0  T
   2    -41.9637430  0.209984E+00  0.228E+00    1.11       1.0  T
   3    -42.1573876 -0.193645E+00  0.978E-01    0.28       1.0  T
   4    -42.1171873  0.402002E-01  0.133E+00    0.92       1.0  T
   5    -42.1842116 -0.670242E-01  0.569E-01    0.65       1.0  T
   6    -42.1959160 -0.117044E-01  0.558E-02    0.45       1.0  T
   7    -42.1959829 -0.668901E-04  0.316E-02    0.46       1.0  T
   8    -42.1959396  0.432761E-04  0.386E-02    0.48       1.0  T
   9    -42.1960071 -0.675527E-04  0.572E-03    0.46       3.5  T
  10    -42.1960074 -0.254654E-06  0.233E-03    0.46       8.6  T
  11    -42.1960076 -0.181989E-06  0.123E-03    0.46      16.3  T
  12    -42.1960076 -0.462133E-07  0.323E-04    0.46      61.9  T
  13    -42.1960076 -0.151644E-08  0.740E-05    0.46     270.2  T
     SCC iter.                  ...        0 min,  0.016 sec
     gradient                   ...        0 min,  0.011 sec
 * total energy  :   -41.6030452 Eh     change       -0.4379163E-01 Eh
   gradient norm :     0.3502905 Eh/α   predicted    -0.3355743E-01 ( -23.37%)
   displ. norm   :     0.4214389 α      lambda       -0.5141097E-01
   maximum displ.:     0.3362235 α      in ANC's #1, #68, #31, ...

........................................................................
.............................. CYCLE   10 ..............................
........................................................................

 iter      E             dE          RMSdq      gap      omega  full diag
   1    -42.1614147 -0.421614E+02  0.117E+00    0.30       0.0  T
   2    -41.6724513  0.488963E+00  0.319E+00    1.82       1.0  T
   3    -42.1698942 -0.497443E+00  0.938E-01    0.37       1.0  T
   4    -42.1355633  0.343308E-01  0.122E+00    0.91       1.0  T
   5    -42.1920201 -0.564568E-01  0.532E-01    0.67       1.0  T
   6    -42.1959116 -0.389152E-02  0.288E-01    0.42       1.0  T
   7    -42.1995535 -0.364190E-02  0.108E-01    0.50       1.0  T
   8    -42.2001622 -0.608714E-03  0.181E-02    0.53       1.1  T
   9    -42.2001639 -0.167057E-05  0.105E-02    0.53       1.9  T
  10    -42.2001522  0.116477E-04  0.159E-02    0.52       1.3  T
  11    -42.2001658 -0.135995E-04  0.315E-03    0.53       6.3  T
  12    -42.2001663 -0.497510E-06  0.682E-04    0.53      29.3  T
  13    -42.2001663 -0.726096E-08  0.209E-04    0.53      95.9  T
     SCC iter.                  ...        0 min,  0.016 sec
     gradient                   ...        0 min,  0.011 sec
 * total energy  :   -41.6422182 Eh     change       -0.3917301E-01 Eh
   gradient norm :     0.2800471 Eh/α   predicted    -0.3027156E-01 ( -22.72%)
   displ. norm   :     0.4515162 α      lambda       -0.4443311E-01
   maximum displ.:     0.3760212 α      in ANC's #1, #2, #68, ...

........................................................................
.............................. CYCLE   11 ..............................
........................................................................

 iter      E             dE          RMSdq      gap      omega  full diag
   1    -42.0954627 -0.420955E+02  0.162E+00    0.18       0.0  T
   2    -41.2278691  0.867594E+00  0.421E+00    2.00       1.0  T
   3    -42.1732214 -0.945352E+00  0.794E-01    0.54       1.0  T
   4    -42.1127806  0.604408E-01  0.133E+00    1.01       1.0  T
   5    -42.1450903 -0.323096E-01  0.895E-01    0.30       1.0  T
   6    -42.1877273 -0.426370E-01  0.240E-01    0.51       1.0  T
   7    -42.1902410 -0.251369E-02  0.927E-02    0.57       1.0  T
   8    -42.1905331 -0.292144E-03  0.496E-02    0.61       1.0  T
   9    -42.1906430 -0.109879E-03  0.211E-02    0.59       1.0  T
  10    -42.1906226  0.204143E-04  0.265E-02    0.58       1.0  T
  11    -42.1906608 -0.382474E-04  0.500E-03    0.59       4.0  T
  12    -42.1906621 -0.128574E-05  0.125E-03    0.59      16.0  T
  13    -42.1906622 -0.748738E-07  0.235E-04    0.59      85.0  T
  14    -42.1906622  0.235796E-08  0.246E-04    0.59      81.2  T
     SCC iter.                  ...        0 min,  0.017 sec
     gradient                   ...        0 min,  0.011 sec
 * total energy  :   -41.6760449 Eh     change       -0.3382670E-01 Eh
   gradient norm :     0.2477120 Eh/α   predicted    -0.2674632E-01 ( -20.93%)
   displ. norm   :     0.5272654 α      lambda       -0.6662669E-01
   maximum displ.:     0.2663014 α      in ANC's #2, #1, #68, ...

........................................................................
.............................. CYCLE   12 ..............................
........................................................................

 iter      E             dE          RMSdq      gap      omega  full diag
   1    -42.1948634 -0.421949E+02  0.109E+00    0.59       0.0  T
   2    -42.1366914  0.581720E-01  0.131E+00    0.46       1.0  T
   3    -41.9628024  0.173889E+00  0.214E+00    1.34       1.0  T
   4    -42.1975850 -0.234783E+00  0.709E-01    0.64       1.0  T
   5    -42.2015677 -0.398266E-02  0.397E-01    0.72       1.0  T
   6    -42.2074528 -0.588510E-02  0.101E-01    0.62       1.0  T
   7    -42.2076586 -0.205847E-03  0.448E-02    0.62       1.0  T
   8    -42.2077358 -0.771661E-04  0.246E-02    0.64       1.0  T
   9    -42.2077581 -0.223436E-04  0.611E-03    0.64       3.3  T
  10    -42.2077589 -0.762335E-06  0.213E-03    0.64       9.4  T
  11    -42.2077590 -0.895123E-07  0.117E-03    0.63      17.1  T
  12    -42.2077590 -0.523128E-07  0.477E-04    0.64      41.9  T
  13    -42.2077590 -0.874762E-08  0.183E-04    0.63     109.1  T
     SCC iter.                  ...        0 min,  0.016 sec
     gradient                   ...        0 min,  0.011 sec
 * total energy  :   -41.6153737 Eh     change        0.6067124E-01 Eh
   gradient norm :     1.1669836 Eh/α   predicted    -0.4257491E-01 (-170.17%)
   displ. norm   :     0.3831196 α      lambda       -0.1466785E+00
   maximum displ.:     0.3636139 α      in ANC's #1, #15, #68, ...

........................................................................
.............................. CYCLE   13 ..............................
........................................................................

 iter      E             dE          RMSdq      gap      omega  full diag
   1    -42.1533042 -0.421533E+02  0.958E-01    0.40       0.0  T
   2    -41.4162412  0.737063E+00  0.362E+00    2.11       1.0  T
   3    -42.1879200 -0.771679E+00  0.344E-01    0.70       1.0  T
   4    -42.1874403  0.479645E-03  0.316E-01    0.68       1.0  T
   5    -42.1840969  0.334337E-02  0.330E-01    0.58       1.0  T
   6    -42.1895497 -0.545279E-02  0.374E-02    0.67       1.0  T
   7    -42.1895831 -0.333755E-04  0.218E-02    0.67       1.0  T
   8    -42.1895854 -0.226011E-05  0.154E-02    0.68       1.3  T
   9    -42.1895944 -0.901560E-05  0.495E-03    0.67       4.0  T
  10    -42.1895935  0.846886E-06  0.540E-03    0.67       3.7  T
  11    -42.1895951 -0.152567E-05  0.159E-03    0.67      12.6  T
  12    -42.1895950  0.837613E-07  0.193E-03    0.67      10.4  T
  13    -42.1895952 -0.211126E-06  0.247E-04    0.67      81.1  T
  14    -42.1895952  0.369789E-08  0.346E-04    0.67      57.8  T
     SCC iter.                  ...        0 min,  0.017 sec
     gradient                   ...        0 min,  0.011 sec
 * total energy  :   -41.7072949 Eh     change       -0.9192120E-01 Eh
   gradient norm :     0.2401394 Eh/α   predicted    -0.8410446E-01 (  -8.50%)
   displ. norm   :     0.4698105 α      lambda       -0.2398110E-01
   maximum displ.:     0.4368796 α      in ANC's #1, #2, #68, ...

........................................................................
.............................. CYCLE   14 ..............................
........................................................................

 iter      E             dE          RMSdq      gap      omega  full diag
   1    -42.0386206 -0.420386E+02  0.156E+00    0.10       0.0  T
   2    -40.9258680  0.111275E+01  0.464E+00    1.57       1.0  T
   3    -42.0502251 -0.112436E+01  0.153E+00    0.97       1.0  T
   4    -42.1608372 -0.110612E+00  0.530E-01    0.48       1.0  T
   5    -42.1604418  0.395354E-03  0.460E-01    0.59       1.0  T
   6    -42.1419114  0.185304E-01  0.639E-01    0.28       1.0  T
   7    -42.1595585 -0.176470E-01  0.356E-01    0.59       1.0  T
   8    -42.1666023 -0.704380E-02  0.558E-02    0.49       1.0  T
   9    -42.1667086 -0.106331E-03  0.328E-02    0.47       1.0  T
  10    -42.1665673  0.141350E-03  0.575E-02    0.46       1.0  T
  11    -42.1667413 -0.173992E-03  0.122E-02    0.47       1.6  T
  12    -42.1667494 -0.818826E-05  0.133E-03    0.48      15.1  T
  13    -42.1667494  0.788722E-07  0.158E-03    0.48      12.6  T
  14    -42.1667495 -0.131372E-06  0.250E-04    0.48      79.9  T
  15    -42.1667495 -0.130562E-09  0.214E-04    0.48      93.5  T
     SCC iter.                  ...        0 min,  0.018 sec
     gradient                   ...        0 min,  0.011 sec
 * total energy  :   -41.7102991 Eh     change       -0.3004255E-02 Eh
   gradient norm :     0.3419210 Eh/α   predicted    -0.1464018E-01 ( 387.31%)
   displ. norm   :     0.2513701 α      lambda       -0.2443382E-01
   maximum displ.:     0.2270750 α      in ANC's #1, #26, #31, ...

........................................................................
.............................. CYCLE   15 ..............................
........................................................................

 iter      E             dE          RMSdq      gap      omega  full diag
   1    -42.1526482 -0.421526E+02  0.838E-01    0.84       0.0  T
   2    -39.4153001  0.273735E+01  0.712E+00    0.41       1.0  T
   3    -42.1613784 -0.274608E+01  0.823E-01    0.38       1.0  T
   4    -42.1703509 -0.897248E-02  0.694E-01    0.40       1.0  T
   5    -42.1836410 -0.132901E-01  0.415E-01    0.47       1.0  T
   6    -42.1907739 -0.713291E-02  0.163E-01    0.54       1.0  T
   7    -42.1920084 -0.123450E-02  0.586E-02    0.57       1.0  T
   8    -42.1920899 -0.815176E-04  0.321E-02    0.58       1.0  T
   9    -42.1921023 -0.123937E-04  0.176E-02    0.58       1.1  T
  10    -42.1921033 -0.978094E-06  0.928E-03    0.59       2.2  T
  11    -42.1921076 -0.433270E-05  0.301E-03    0.58       6.6  T
  12    -42.1921079 -0.292772E-06  0.777E-04    0.58      25.7  T
  13    -42.1921080 -0.140578E-07  0.222E-04    0.58      90.1  T
     SCC iter.                  ...        0 min,  0.016 sec
     gradient                   ...        0 min,  0.011 sec
 * total energy  :   -41.7267456 Eh     change       -0.1644648E-01 Eh
   gradient norm :     0.1917700 Eh/α   predicted    -0.1298871E-01 ( -21.02%)
   displ. norm   :     0.1571426 α      lambda       -0.1886580E-01
   maximum displ.:     0.0751077 α      in ANC's #1, #26, #2, ...

........................................................................
.............................. CYCLE   16 ..............................
........................................................................

 iter      E             dE          RMSdq      gap      omega  full diag
   1    -42.2058721 -0.422059E+02  0.435E-01    0.64       0.0  T
   2    -41.5401035  0.665769E+00  0.342E+00    0.02       1.0  T
   3    -42.2125834 -0.672480E+00  0.282E-01    0.53       1.0  T
   4    -42.2128556 -0.272120E-03  0.248E-01    0.50       1.0  T
   5    -42.2135359 -0.680308E-03  0.179E-01    0.52       1.0  T
   6    -42.2147455 -0.120962E-02  0.700E-02    0.53       1.0  T
   7    -42.2150012 -0.255697E-03  0.220E-02    0.55       1.0  T
   8    -42.2150128 -0.116489E-04  0.123E-02    0.55       1.6  T
   9    -42.2150188 -0.598004E-05  0.488E-03    0.55       4.1  T
  10    -42.2150191 -0.281391E-06  0.250E-03    0.56       8.0  T
  11    -42.2150194 -0.279699E-06  0.649E-04    0.56      30.8  T
  12    -42.2150194 -0.740535E-08  0.372E-04    0.56      53.8  T
     SCC iter.                  ...        0 min,  0.015 sec
     gradient                   ...        0 min,  0.011 sec
 * total energy  :   -41.7420585 Eh     change       -0.1531290E-01 Eh
   gradient norm :     0.1477841 Eh/α   predicted    -0.9665925E-02 ( -36.88%)
   displ. norm   :     0.3564276 α      lambda       -0.3495663E-01
   maximum displ.:     0.1985130 α      in ANC's #2, #26, #64, ...

........................................................................
.............................. CYCLE   17 ..............................
........................................................................

 iter      E             dE          RMSdq      gap      omega  full diag
   1    -42.2478058 -0.422478E+02  0.798E-01    0.20       0.0  T
   2    -42.1254450  0.122361E+00  0.158E+00    0.81       1.0  T
   3    -42.0477408  0.777042E-01  0.194E+00    0.01       1.0  T
   4    -42.2557445 -0.208004E+00  0.340E-01    0.30       1.0  T
   5    -42.2575424 -0.179797E-02  0.111E-01    0.29       1.0  T
   6    -42.2576702 -0.127801E-03  0.288E-02    0.28       1.0  T
   7    -42.2576876 -0.174146E-04  0.163E-02    0.28       1.2  T
   8    -42.2576852  0.247217E-05  0.127E-02    0.28       1.6  T
   9    -42.2576917 -0.655513E-05  0.435E-03    0.28       4.6  T
  10    -42.2576921 -0.388916E-06  0.206E-03    0.28       9.7  T
  11    -42.2576922 -0.647521E-07  0.119E-03    0.28      16.8  T
  12    -42.2576922 -0.388116E-07  0.349E-04    0.28      57.4  T
  13    -42.2576922 -0.393525E-08  0.942E-05    0.28     212.2  T
     SCC iter.                  ...        0 min,  0.016 sec
     gradient                   ...        0 min,  0.011 sec
 * total energy  :   -41.7680435 Eh     change       -0.2598502E-01 Eh
   gradient norm :     0.2160372 Eh/α   predicted    -0.1969926E-01 ( -24.19%)
   displ. norm   :     0.3954045 α      lambda       -0.2926324E-01
   maximum displ.:     0.2352094 α      in ANC's #2, #68, #27, ...

........................................................................
.............................. CYCLE   18 ..............................
........................................................................

 iter      E             dE          RMSdq      gap      omega  full diag
   1    -42.2744725 -0.422745E+02  0.843E-01    0.03       0.0  T
   2    -41.8233006  0.451172E+00  0.288E+00    1.29       1.0  T
   3    -42.2817884 -0.458488E+00  0.604E-01    0.04       1.0  T
   4    -42.2947108 -0.129223E-01  0.259E-01    0.10       1.0  T
   5    -42.2953201 -0.609361E-03  0.136E-01    0.10       1.0  T
   6    -42.2956255 -0.305359E-03  0.644E-02    0.09       1.0  T
   7    -42.2958334 -0.207882E-03  0.186E-02    0.09       1.1  T
   8    -42.2958408 -0.746825E-05  0.586E-03    0.10       3.4  T
   9    -42.2958409 -0.392058E-07  0.316E-03    0.10       6.3  T
  10    -42.2958411 -0.214646E-06  0.107E-03    0.10      18.7  T
  11    -42.2958411 -0.180759E-07  0.474E-04    0.10      42.2  T
  12    -42.2958411 -0.483936E-09  0.195E-04    0.10     102.7  T
     SCC iter.                  ...        0 min,  0.015 sec
     gradient                   ...        0 min,  0.011 sec
 * total energy  :   -41.7873240 Eh     change       -0.1928043E-01 Eh
   gradient norm :     0.2957555 Eh/α   predicted    -0.1691936E-01 ( -12.25%)
   displ. norm   :     0.2518076 α      lambda       -0.2544154E-01
   maximum displ.:     0.1207620 α      in ANC's #2, #1, #68, ...

........................................................................
.............................. CYCLE   19 ..............................
........................................................................

 iter      E             dE          RMSdq      gap      omega  full diag
   1    -42.3175071 -0.423175E+02  0.448E-01    0.03       0.0  T
   2    -42.2108070  0.106700E+00  0.142E+00    0.52       1.0  T
   3    -42.3195474 -0.108740E+00  0.274E-01    0.03       1.0  T
   4    -42.3219903 -0.244285E-02  0.106E-01    0.06       1.0  T
   5    -42.3220940 -0.103699E-03  0.381E-02    0.05       1.0  T
   6    -42.3221550 -0.610666E-04  0.113E-02    0.05       1.8  T
   7    -42.3221571 -0.206416E-05  0.687E-03    0.05       2.9  T
   8    -42.3221581 -0.949216E-06  0.307E-03    0.05       6.5  T
   9    -42.3221583 -0.199825E-06  0.128E-03    0.05      15.6  T
  10    -42.3221583 -0.281741E-07  0.541E-04    0.05      37.0  T
  11    -42.3221583 -0.667762E-08  0.232E-04    0.05      86.1  T
     SCC iter.                  ...        0 min,  0.014 sec
     gradient                   ...        0 min,  0.011 sec
 * total energy  :   -41.8090460 Eh     change       -0.2172203E-01 Eh
   gradient norm :     0.2671633 Eh/α   predicted    -0.1352740E-01 ( -37.72%)
   displ. norm   :     0.4297409 α      lambda       -0.6316867E-01
   maximum displ.:     0.2382184 α      in ANC's #1, #62, #68, ...

........................................................................
.............................. CYCLE   20 ..............................
........................................................................

 iter      E             dE          RMSdq      gap      omega  full diag
   1    -42.3485877 -0.423486E+02  0.710E-01    0.01       0.0  T
   2    -42.2507004  0.978874E-01  0.145E+00    0.47       1.0  T
   3    -42.3382950 -0.875946E-01  0.624E-01    0.01       1.0  T
   4    -42.3532722 -0.149773E-01  0.327E-01    0.04       1.0  T
   5    -42.3553961 -0.212384E-02  0.112E-01    0.02       1.0  T
   6    -42.3559662 -0.570083E-03  0.322E-02    0.03       1.0  T
   7    -42.3559871 -0.208916E-04  0.103E-02    0.03       1.9  T
   8    -42.3559873 -0.260729E-06  0.389E-03    0.03       5.1  T
   9    -42.3559876 -0.318738E-06  0.100E-03    0.03      19.9  T
  10    -42.3559876 -0.892130E-08  0.532E-04    0.03      37.6  T
  11    -42.3559877 -0.528727E-08  0.143E-04    0.03     139.8  T
     SCC iter.                  ...        0 min,  0.014 sec
     gradient                   ...        0 min,  0.011 sec
 * total energy  :   -41.8476516 Eh     change       -0.3860559E-01 Eh
   gradient norm :     0.1792593 Eh/α   predicted    -0.3741812E-01 (  -3.08%)
   displ. norm   :     0.1563090 α      lambda       -0.1284795E-01
   maximum displ.:     0.0840699 α      in ANC's #1, #68, #31, ...
 * RMSD in coord.:     0.8098593 α      energy gain  -0.3743554E+02 Eh

generating ANC from model Hessian ...
Using Lindh-Hessian (1995)
 Shifting diagonal of input Hessian by    1.5364551000210658E-002
 Lowest  eigenvalues of input Hessian
    0.010000    0.011676    0.000000    0.000000    0.000000    0.000000
    0.000000    0.000000    0.016524    0.017803    0.020503    0.021399
    0.022969    0.023796    0.025551    0.028366    0.031068    0.032403
 Highest eigenvalues
    1.807850    1.983707    2.129943    2.194571    2.672562    8.443656


........................................................................
.............................. CYCLE   21 ..............................
........................................................................

 iter      E             dE          RMSdq      gap      omega  full diag
   1    -42.3571410 -0.423571E+02  0.277E-01    0.02       0.0  T
   2    -42.3558584  0.128257E-02  0.245E-01    0.04       1.0  T
   3    -42.3534085  0.244995E-02  0.313E-01    0.01       1.0  T
   4    -42.3566340 -0.322551E-02  0.174E-01    0.04       1.0  T
   5    -42.3578570 -0.122303E-02  0.391E-02    0.02       1.0  T
   6    -42.3579191 -0.620845E-04  0.827E-03    0.03       2.4  T
   7    -42.3579202 -0.111882E-05  0.510E-03    0.03       3.9  T
   8    -42.3579209 -0.632432E-06  0.197E-03    0.03      10.1  T
   9    -42.3579209 -0.266357E-07  0.539E-04    0.03      37.1  T
  10    -42.3579209 -0.446530E-08  0.245E-04    0.03      81.5  T
     SCC iter.                  ...        0 min,  0.012 sec
     gradient                   ...        0 min,  0.011 sec
 * total energy  :   -41.8571377 Eh     change       -0.9486096E-02 Eh
   gradient norm :     0.1578826 Eh/α   predicted     0.0000000E+00 (-100.00%)
   displ. norm   :     0.4560418 α      lambda       -0.4704962E-01
   maximum displ.:     0.1750998 α      in ANC's #27, #17, #26, ...

........................................................................
.............................. CYCLE   22 ..............................
........................................................................

 iter      E             dE          RMSdq      gap      omega  full diag
   1    -42.3965429 -0.423965E+02  0.633E-01    0.02       0.0  T
   2    -42.3918228  0.472016E-02  0.528E-01    0.01       1.0  T
   3    -42.3923479 -0.525158E-03  0.454E-01    0.07       1.0  T
   4    -42.3899535  0.239446E-02  0.547E-01    0.01       1.0  T
   5    -42.4014560 -0.115025E-01  0.541E-02    0.02       1.0  T
   6    -42.4015227 -0.667764E-04  0.274E-02    0.02       1.0  T
   7    -42.4015468 -0.240688E-04  0.101E-02    0.02       2.0  T
   8    -42.4015481 -0.134852E-05  0.342E-03    0.02       5.9  T
   9    -42.4015483 -0.148808E-06  0.995E-04    0.02      20.1  T
  10    -42.4015483 -0.137616E-07  0.507E-04    0.02      39.4  T
     SCC iter.                  ...        0 min,  0.012 sec
     gradient                   ...        0 min,  0.011 sec
 * total energy  :   -41.8931263 Eh     change       -0.3598860E-01 Eh
   gradient norm :     0.1019580 Eh/α   predicted    -0.2846322E-01 ( -20.91%)
   displ. norm   :     0.5285930 α      lambda       -0.3348342E-01
   maximum displ.:     0.2026807 α      in ANC's #27, #17, #30, ...

........................................................................
.............................. CYCLE   23 ..............................
........................................................................

 iter      E             dE          RMSdq      gap      omega  full diag
   1    -42.4196081 -0.424196E+02  0.939E-01    0.01       0.0  T
   2    -42.4164109  0.319722E-02  0.747E-01    0.03       1.0  T
   3    -42.4313645 -0.149536E-01  0.415E-01    0.01       1.0  T
   4    -42.4105679  0.207967E-01  0.677E-01    0.17       1.0  T
   5    -42.4312984 -0.207305E-01  0.221E-01    0.00       1.0  T
   6    -42.4333253 -0.202689E-02  0.375E-02    0.01       1.0  T
   7    -42.4333490 -0.236972E-04  0.221E-02    0.01       1.0  T
   8    -42.4333641 -0.151215E-04  0.491E-03    0.01       4.1  T
   9    -42.4333643 -0.167074E-06  0.161E-03    0.01      12.5  T
  10    -42.4333643 -0.362952E-07  0.850E-04    0.01      23.5  T
  11    -42.4333643 -0.483425E-08  0.386E-04    0.01      51.9  T
     SCC iter.                  ...        0 min,  0.014 sec
     gradient                   ...        0 min,  0.011 sec
 * total energy  :   -41.9180912 Eh     change       -0.2496488E-01 Eh
   gradient norm :     0.1065067 Eh/α   predicted    -0.2141953E-01 ( -14.20%)
   displ. norm   :     0.6161386 α      lambda       -0.3118221E-01
   maximum displ.:     0.1977987 α      in ANC's #27, #30, #14, ...

........................................................................
.............................. CYCLE   24 ..............................
........................................................................

 iter      E             dE          RMSdq      gap      omega  full diag
   1    -42.4412746 -0.424413E+02  0.102E+00    0.01       0.0  T
   2    -42.3339376  0.107337E+00  0.165E+00    0.53       1.0  T
   3    -42.3530816 -0.191440E-01  0.161E+00    0.01       1.0  T
   4    -42.4448300 -0.917484E-01  0.662E-01    0.01       1.0  T
   5    -42.4498067 -0.497674E-02  0.399E-01    0.01       1.0  T
   6    -42.4551879 -0.538117E-02  0.103E-01    0.00       1.0  T
   7    -42.4555191 -0.331169E-03  0.325E-02    0.00       1.0  T
   8    -42.4555513 -0.321927E-04  0.742E-03    0.00       2.7  T
   9    -42.4555518 -0.552564E-06  0.222E-03    0.00       9.0  T
  10    -42.4555518 -0.287957E-07  0.152E-03    0.00      13.2  T
  11    -42.4555519 -0.331261E-07  0.895E-04    0.00      22.3  T
  12    -42.4555519 -0.175241E-07  0.154E-04    0.00     129.9  T
     SCC iter.                  ...        0 min,  0.015 sec
     gradient                   ...        0 min,  0.011 sec
 * total energy  :   -41.9436773 Eh     change       -0.2558617E-01 Eh
   gradient norm :     0.1281368 Eh/α   predicted    -0.2150991E-01 ( -15.93%)
   displ. norm   :     0.4745646 α      lambda       -0.2409787E-01
   maximum displ.:     0.1925467 α      in ANC's #20, #14, #19, ...

........................................................................
.............................. CYCLE   25 ..............................
........................................................................

 iter      E             dE          RMSdq      gap      omega  full diag
   1    -42.4577609 -0.424578E+02  0.734E-01    0.01       0.0  T
   2    -42.3184036  0.139357E+00  0.180E+00    0.53       1.0  T
   3    -42.4474354 -0.129032E+00  0.762E-01    0.01       1.0  T
   4    -42.4645560 -0.171206E-01  0.339E-01    0.01       1.0  T
   5    -42.4670822 -0.252620E-02  0.924E-02    0.01       1.0  T
   6    -42.4672899 -0.207735E-03  0.422E-02    0.01       1.0  T
   7    -42.4673360 -0.460944E-04  0.153E-02    0.01       1.3  T
   8    -42.4673412 -0.521525E-05  0.531E-03    0.01       3.8  T
   9    -42.4673418 -0.640557E-06  0.169E-03    0.01      11.8  T
  10    -42.4673419 -0.481470E-07  0.621E-04    0.01      32.2  T
  11    -42.4673419 -0.345852E-08  0.183E-04    0.01     109.4  T
     SCC iter.                  ...        0 min,  0.014 sec
     gradient                   ...        0 min,  0.011 sec
 * total energy  :   -41.9429699 Eh     change        0.7074382E-03 Eh
   gradient norm :     0.1869577 Eh/α   predicted    -0.1476250E-01 (*******%)
   displ. norm   :     0.3163429 α      lambda       -0.3714068E-01
   maximum displ.:     0.1182186 α      in ANC's #30, #27, #38, ...

........................................................................
.............................. CYCLE   26 ..............................
........................................................................

 iter      E             dE          RMSdq      gap      omega  full diag
   1    -42.4573700 -0.424574E+02  0.463E-01    0.00       0.0  T
   2    -42.4578948 -0.524843E-03  0.317E-01    0.01       1.0  T
   3    -42.4489737  0.892115E-02  0.539E-01    0.04       1.0  T
   4    -42.4597188 -0.107451E-01  0.143E-01    0.01       1.0  T
   5    -42.4598824 -0.163631E-03  0.740E-02    0.00       1.0  T
   6    -42.4600203 -0.137877E-03  0.197E-02    0.00       1.0  T
   7    -42.4600340 -0.137113E-04  0.631E-03    0.00       3.2  T
   8    -42.4600343 -0.335990E-06  0.265E-03    0.00       7.6  T
   9    -42.4600344 -0.972494E-07  0.738E-04    0.00      27.1  T
  10    -42.4600345 -0.750975E-08  0.375E-04    0.00      53.4  T
     SCC iter.                  ...        0 min,  0.013 sec
     gradient                   ...        0 min,  0.011 sec
 * total energy  :   -41.9597870 Eh     change       -0.1681707E-01 Eh
   gradient norm :     0.0416272 Eh/α   predicted    -0.2042881E-01 (  21.48%)
   displ. norm   :     0.1894253 α      lambda       -0.3017804E-02
   maximum displ.:     0.0826351 α      in ANC's #2, #17, #10, ...

........................................................................
.............................. CYCLE   27 ..............................
........................................................................

 iter      E             dE          RMSdq      gap      omega  full diag
   1    -42.4643016 -0.424643E+02  0.121E-01    0.00       0.0  T
   2    -42.4640735  0.228049E-03  0.983E-02    0.00       1.0  T
   3    -42.4625426  0.153094E-02  0.209E-01    0.01       1.0  T
   4    -42.4643239 -0.178126E-02  0.250E-02    0.00       1.0  T
   5    -42.4643347 -0.108582E-04  0.618E-03    0.00       3.2  T
   6    -42.4643358 -0.105193E-05  0.271E-03    0.00       7.4  T
   7    -42.4643359 -0.113200E-06  0.114E-03    0.00      17.5  T
   8    -42.4643359 -0.283882E-08  0.529E-04    0.00      37.8  T
   9    -42.4643359 -0.871503E-08  0.165E-04    0.00     121.0  T
     SCC iter.                  ...        0 min,  0.011 sec
     gradient                   ...        0 min,  0.011 sec
 * total energy  :   -41.9620089 Eh     change       -0.2221891E-02 Eh
   gradient norm :     0.0252486 Eh/α   predicted    -0.1563043E-02 ( -29.65%)
   displ. norm   :     0.2941907 α      lambda       -0.2313998E-02
   maximum displ.:     0.1536839 α      in ANC's #2, #5, #17, ...

........................................................................
.............................. CYCLE   28 ..............................
........................................................................

 iter      E             dE          RMSdq      gap      omega  full diag
   1    -42.4696072 -0.424696E+02  0.125E-01    0.01       0.0  T
   2    -42.4696232 -0.159457E-04  0.762E-02    0.01       1.0  T
   3    -42.4696042  0.189974E-04  0.323E-02    0.01       1.0  T
   4    -42.4696250 -0.208507E-04  0.121E-02    0.01       1.7  T
   5    -42.4696213  0.366325E-05  0.149E-02    0.01       1.3  T
   6    -42.4696304 -0.907636E-05  0.352E-03    0.01       5.7  T
   7    -42.4696308 -0.333774E-06  0.137E-03    0.01      14.6  T
   8    -42.4696308 -0.236944E-07  0.298E-04    0.01      67.0  T
   9    -42.4696308 -0.808576E-09  0.159E-04    0.01     126.0  T
     SCC iter.                  ...        0 min,  0.011 sec
     gradient                   ...        0 min,  0.011 sec
 * total energy  :   -41.9633759 Eh     change       -0.1367041E-02 Eh
   gradient norm :     0.0191927 Eh/α   predicted    -0.1257139E-02 (  -8.04%)
   displ. norm   :     0.2629789 α      lambda       -0.8962427E-03
   maximum displ.:     0.2026963 α      in ANC's #2, #5, #4, ...

........................................................................
.............................. CYCLE   29 ..............................
........................................................................

 iter      E             dE          RMSdq      gap      omega  full diag
   1    -42.4693120 -0.424693E+02  0.809E-02    0.02       0.0  T
   2    -42.4689977  0.314317E-03  0.101E-01    0.02       1.0  T
   3    -42.4690281 -0.303832E-04  0.907E-02    0.02       1.0  T
   4    -42.4693168 -0.288716E-03  0.359E-02    0.02       1.0  T
   5    -42.4693522 -0.354156E-04  0.820E-03    0.02       2.4  T
   6    -42.4693547 -0.243385E-05  0.243E-03    0.02       8.2  T
   7    -42.4693547 -0.497763E-07  0.134E-03    0.02      14.9  T
   8    -42.4693547 -0.287267E-07  0.470E-04    0.02      42.5  T
   9    -42.4693547 -0.167420E-08  0.260E-04    0.02      76.8  T
     SCC iter.                  ...        0 min,  0.011 sec
     gradient                   ...        0 min,  0.011 sec
 * total energy  :   -41.9639273 Eh     change       -0.5514354E-03 Eh
   gradient norm :     0.0326279 Eh/α   predicted    -0.4791179E-03 ( -13.11%)
   displ. norm   :     0.3756027 α      lambda       -0.1046595E-02
   maximum displ.:     0.2578339 α      in ANC's #2, #1, #5, ...

........................................................................
.............................. CYCLE   30 ..............................
........................................................................

 iter      E             dE          RMSdq      gap      omega  full diag
   1    -42.4690046 -0.424690E+02  0.122E-01    0.07       0.0  T
   2    -42.4664059  0.259876E-02  0.258E-01    0.06       1.0  T
   3    -42.4689613 -0.255545E-02  0.926E-02    0.07       1.0  T
   4    -42.4691885 -0.227153E-03  0.503E-02    0.06       1.0  T
   5    -42.4692512 -0.627651E-04  0.118E-02    0.06       1.7  T
   6    -42.4692552 -0.397522E-05  0.417E-03    0.06       4.8  T
   7    -42.4692555 -0.248197E-06  0.176E-03    0.06      11.3  T
   8    -42.4692555 -0.259512E-07  0.848E-04    0.07      23.6  T
   9    -42.4692555 -0.926313E-09  0.576E-04    0.07      34.7  T
     SCC iter.                  ...        0 min,  0.011 sec
     gradient                   ...        0 min,  0.011 sec
 * total energy  :   -41.9648607 Eh     change       -0.9333633E-03 Eh
   gradient norm :     0.0335264 Eh/α   predicted    -0.5971250E-03 ( -36.02%)
   displ. norm   :     0.7509493 α      lambda       -0.2407129E-02
   maximum displ.:     0.4788372 α      in ANC's #2, #1, #5, ...

........................................................................
.............................. CYCLE   31 ..............................
........................................................................

 iter      E             dE          RMSdq      gap      omega  full diag
   1    -42.4651390 -0.424651E+02  0.332E-01    0.28       0.0  T
   2    -42.4532460  0.118930E-01  0.558E-01    0.19       1.0  T
   3    -42.4620466 -0.880066E-02  0.348E-01    0.25       1.0  T
   4    -42.4665795 -0.453294E-02  0.127E-01    0.25       1.0  T
   5    -42.4669207 -0.341160E-03  0.434E-02    0.24       1.0  T
   6    -42.4669613 -0.405899E-04  0.185E-02    0.24       1.1  T
   7    -42.4669682 -0.691337E-05  0.767E-03    0.24       2.6  T
   8    -42.4669692 -0.971973E-06  0.291E-03    0.24       6.9  T
   9    -42.4669692 -0.470035E-07  0.177E-03    0.24      11.3  T
  10    -42.4669693 -0.408449E-07  0.626E-04    0.24      32.0  T
  11    -42.4669693 -0.903299E-08  0.201E-04    0.24      99.6  T
     SCC iter.                  ...        0 min,  0.014 sec
     gradient                   ...        0 min,  0.011 sec
 * total energy  :   -41.9672265 Eh     change       -0.2365773E-02 Eh
   gradient norm :     0.1108429 Eh/α   predicted    -0.1882289E-02 ( -20.44%)
   displ. norm   :     0.7437509 α      lambda       -0.4071909E-02
   maximum displ.:     0.3861899 α      in ANC's #1, #2, #4, ...

........................................................................
.............................. CYCLE   32 ..............................
........................................................................

 iter      E             dE          RMSdq      gap      omega  full diag
   1    -42.4563052 -0.424563E+02  0.479E-01    0.55       0.0  T
   2    -42.4367293  0.195759E-01  0.722E-01    0.33       1.0  T
   3    -42.4474214 -0.106921E-01  0.551E-01    0.43       1.0  T
   4    -42.4596338 -0.122124E-01  0.170E-01    0.47       1.0  T
   5    -42.4601739 -0.540061E-03  0.635E-02    0.45       1.0  T
   6    -42.4602466 -0.726975E-04  0.275E-02    0.45       1.0  T
   7    -42.4602618 -0.152547E-04  0.124E-02    0.45       1.6  T
   8    -42.4602649 -0.310413E-05  0.467E-03    0.45       4.3  T
   9    -42.4602654 -0.509839E-06  0.150E-03    0.45      13.4  T
  10    -42.4602654 -0.327921E-08  0.730E-04    0.45      27.4  T
  11    -42.4602655 -0.916256E-08  0.321E-04    0.45      62.3  T
     SCC iter.                  ...        0 min,  0.014 sec
     gradient                   ...        0 min,  0.011 sec
 * total energy  :   -41.9693982 Eh     change       -0.2171704E-02 Eh
   gradient norm :     0.1803418 Eh/α   predicted    -0.3162170E-02 (  45.61%)
   displ. norm   :     0.4335455 α      lambda       -0.8191676E-02
   maximum displ.:     0.1704674 α      in ANC's #2, #18, #17, ...

........................................................................
.............................. CYCLE   33 ..............................
........................................................................

 iter      E             dE          RMSdq      gap      omega  full diag
   1    -42.4525031 -0.424525E+02  0.305E-01    0.49       0.0  T
   2    -42.4402295  0.122737E-01  0.556E-01    0.39       1.0  T
   3    -42.4518954 -0.116659E-01  0.246E-01    0.49       1.0  T
   4    -42.4534760 -0.158058E-02  0.887E-02    0.47       1.0  T
   5    -42.4537059 -0.229867E-03  0.291E-02    0.46       1.0  T
   6    -42.4537297 -0.238065E-04  0.116E-02    0.46       1.7  T
   7    -42.4537325 -0.284096E-05  0.504E-03    0.46       4.0  T
   8    -42.4537330 -0.469399E-06  0.117E-03    0.46      17.1  T
   9    -42.4537330 -0.207564E-07  0.478E-04    0.46      41.8  T
  10    -42.4537330 -0.274114E-08  0.223E-04    0.46      89.5  T
     SCC iter.                  ...        0 min,  0.012 sec
     gradient                   ...        0 min,  0.011 sec
 * total energy  :   -41.9572255 Eh     change        0.1217273E-01 Eh
   gradient norm :     0.3156087 Eh/α   predicted    -0.4865690E-02 (-139.97%)
   displ. norm   :     0.3484248 α      lambda       -0.2669508E-01
   maximum displ.:     0.2346027 α      in ANC's #2, #17, #20, ...

........................................................................
.............................. CYCLE   34 ..............................
........................................................................

 iter      E             dE          RMSdq      gap      omega  full diag
   1    -42.4629410 -0.424629E+02  0.289E-01    0.60       0.0  T
   2    -42.4631421 -0.201022E-03  0.174E-01    0.54       1.0  T
   3    -42.4624323  0.709730E-03  0.182E-01    0.55       1.0  T
   4    -42.4611627  0.126966E-02  0.237E-01    0.60       1.0  T
   5    -42.4635298 -0.236713E-02  0.169E-02    0.56       1.2  T
   6    -42.4635357 -0.592742E-05  0.908E-03    0.56       2.2  T
   7    -42.4635368 -0.108127E-05  0.427E-03    0.56       4.7  T
   8    -42.4635371 -0.320159E-06  0.157E-03    0.56      12.7  T
   9    -42.4635372 -0.410845E-07  0.793E-04    0.56      25.2  T
  10    -42.4635372 -0.119084E-07  0.278E-04    0.56      72.1  T
     SCC iter.                  ...        0 min,  0.013 sec
     gradient                   ...        0 min,  0.011 sec
 * total energy  :   -41.9737007 Eh     change       -0.1647526E-01 Eh
   gradient norm :     0.0557503 Eh/α   predicted    -0.1496800E-01 (  -9.15%)
   displ. norm   :     0.6822648 α      lambda       -0.8852890E-02
   maximum displ.:     0.5458063 α      in ANC's #2, #5, #4, ...

........................................................................
.............................. CYCLE   35 ..............................
........................................................................

 iter      E             dE          RMSdq      gap      omega  full diag
   1    -42.4490248 -0.424490E+02  0.943E-01    1.25       0.0  T
   2    -42.4120884  0.369364E-01  0.112E+00    0.51       1.0  T
   3    -42.4323631 -0.202747E-01  0.907E-01    0.75       1.0  T
   4    -42.4645231 -0.321600E-01  0.300E-01    1.00       1.0  T
   5    -42.4656141 -0.109097E-02  0.133E-01    0.94       1.0  T
   6    -42.4660502 -0.436138E-03  0.529E-02    0.92       1.0  T
   7    -42.4660808 -0.305283E-04  0.196E-02    0.92       1.0  T
   8    -42.4660856 -0.484344E-05  0.966E-03    0.92       2.1  T
   9    -42.4660872 -0.159406E-05  0.367E-03    0.92       5.5  T
  10    -42.4660873 -0.684614E-07  0.198E-03    0.92      10.1  T
  11    -42.4660873 -0.473943E-07  0.955E-04    0.92      20.9  T
  12    -42.4660873 -0.506054E-08  0.465E-04    0.92      43.0  T
     SCC iter.                  ...        0 min,  0.015 sec
     gradient                   ...        0 min,  0.011 sec
 * total energy  :   -41.9793827 Eh     change       -0.5681958E-02 Eh
   gradient norm :     0.2626743 Eh/α   predicted    -0.6486895E-02 (  14.17%)
   displ. norm   :     0.3447038 α      lambda       -0.8379946E-02
   maximum displ.:     0.1641068 α      in ANC's #1, #17, #2, ...

........................................................................
.............................. CYCLE   36 ..............................
........................................................................

 iter      E             dE          RMSdq      gap      omega  full diag
   1    -42.4657372 -0.424657E+02  0.650E-01    1.32       0.0  T
   2    -42.4340136  0.317236E-01  0.969E-01    0.69       1.0  T
   3    -42.4630490 -0.290354E-01  0.540E-01    1.06       1.0  T
   4    -42.4732645 -0.102155E-01  0.222E-01    1.15       1.0  T
   5    -42.4740053 -0.740752E-03  0.750E-02    1.08       1.0  T
   6    -42.4741777 -0.172433E-03  0.292E-02    1.08       1.0  T
   7    -42.4741856 -0.790169E-05  0.129E-02    1.07       1.5  T
   8    -42.4741872 -0.160744E-05  0.696E-03    1.07       2.9  T
   9    -42.4741878 -0.625954E-06  0.315E-03    1.07       6.3  T
  10    -42.4741879 -0.863139E-07  0.115E-03    1.07      17.4  T
  11    -42.4741879 -0.821061E-08  0.484E-04    1.07      41.3  T
  12    -42.4741879 -0.840487E-09  0.142E-04    1.07     140.4  T
     SCC iter.                  ...        0 min,  0.015 sec
     gradient                   ...        0 min,  0.011 sec
 * total energy  :   -41.9862272 Eh     change       -0.6844503E-02 Eh
   gradient norm :     0.2232044 Eh/α   predicted    -0.4687831E-02 ( -31.51%)
   displ. norm   :     0.3435943 α      lambda       -0.1554101E-01
   maximum displ.:     0.1332752 α      in ANC's #14, #17, #9, ...

........................................................................
.............................. CYCLE   37 ..............................
........................................................................

 iter      E             dE          RMSdq      gap      omega  full diag
   1    -42.4788308 -0.424788E+02  0.801E-01    1.33       0.0  T
   2    -42.3762173  0.102614E+00  0.166E+00    0.43       1.0  T
   3    -42.4811369 -0.104920E+00  0.562E-01    1.15       1.0  T
   4    -42.4891809 -0.804395E-02  0.322E-01    1.18       1.0  T
   5    -42.4916263 -0.244546E-02  0.726E-02    1.08       1.0  T
   6    -42.4917771 -0.150782E-03  0.340E-02    1.07       1.0  T
   7    -42.4917885 -0.114357E-04  0.151E-02    1.07       1.3  T
   8    -42.4917913 -0.276132E-05  0.638E-03    1.06       3.1  T
   9    -42.4917920 -0.758306E-06  0.311E-03    1.06       6.4  T
  10    -42.4917921 -0.502336E-07  0.156E-03    1.06      12.8  T
  11    -42.4917922 -0.542039E-07  0.545E-04    1.07      36.7  T
  12    -42.4917922 -0.291494E-08  0.256E-04    1.07      78.1  T
     SCC iter.                  ...        0 min,  0.015 sec
     gradient                   ...        0 min,  0.011 sec
 * total energy  :   -41.9903953 Eh     change       -0.4168132E-02 Eh
   gradient norm :     0.1278156 Eh/α   predicted    -0.8687868E-02 ( 108.44%)
   displ. norm   :     0.3699418 α      lambda       -0.1201107E-01
   maximum displ.:     0.1566347 α      in ANC's #5, #11, #2, ...

........................................................................
.............................. CYCLE   38 ..............................
........................................................................

 iter      E             dE          RMSdq      gap      omega  full diag
   1    -42.4677946 -0.424678E+02  0.890E-01    0.58       0.0  T
   2    -42.3777054  0.900893E-01  0.157E+00    1.00       1.0  T
   3    -42.4749249 -0.972196E-01  0.563E-01    0.77       1.0  T
   4    -42.4844344 -0.950947E-02  0.260E-01    0.81       1.0  T
   5    -42.4853773 -0.942867E-03  0.857E-02    0.87       1.0  T
   6    -42.4855288 -0.151545E-03  0.431E-02    0.89       1.0  T
   7    -42.4855700 -0.412201E-04  0.164E-02    0.89       1.2  T
   8    -42.4855712 -0.119763E-05  0.636E-03    0.90       3.1  T
   9    -42.4855717 -0.428423E-06  0.337E-03    0.89       5.9  T
  10    -42.4855718 -0.155147E-06  0.130E-03    0.90      15.4  T
  11    -42.4855718 -0.111627E-07  0.689E-04    0.90      29.0  T
  12    -42.4855718 -0.331488E-08  0.361E-04    0.90      55.4  T
     SCC iter.                  ...        0 min,  0.015 sec
     gradient                   ...        0 min,  0.011 sec
 * total energy  :   -41.9882084 Eh     change        0.2186892E-02 Eh
   gradient norm :     0.2096912 Eh/α   predicted    -0.6827468E-02 (-412.20%)
   displ. norm   :     0.4150731 α      lambda       -0.1634610E-01
   maximum displ.:     0.3587543 α      in ANC's #2, #17, #1, ...

........................................................................
.............................. CYCLE   39 ..............................
........................................................................

 iter      E             dE          RMSdq      gap      omega  full diag
   1    -42.4839759 -0.424840E+02  0.389E-01    1.13       0.0  T
   2    -42.4695693  0.144066E-01  0.652E-01    0.72       1.0  T
   3    -42.4830995 -0.135302E-01  0.324E-01    1.09       1.0  T
   4    -42.4863689 -0.326950E-02  0.144E-01    1.04       1.0  T
   5    -42.4867645 -0.395578E-03  0.231E-02    1.00       1.0  T
   6    -42.4867752 -0.106350E-04  0.111E-02    1.00       1.8  T
   7    -42.4867757 -0.574520E-06  0.733E-03    1.00       2.7  T
   8    -42.4867771 -0.134534E-05  0.273E-03    1.00       7.3  T
   9    -42.4867772 -0.845947E-07  0.130E-03    1.00      15.4  T
  10    -42.4867772 -0.188168E-07  0.665E-04    1.00      30.1  T
  11    -42.4867772 -0.489991E-08  0.257E-04    1.00      77.9  T
     SCC iter.                  ...        0 min,  0.014 sec
     gradient                   ...        0 min,  0.011 sec
 * total energy  :   -41.9925496 Eh     change       -0.4341221E-02 Eh
   gradient norm :     0.2052173 Eh/α   predicted    -0.9581075E-02 ( 120.70%)
   displ. norm   :     0.1777128 α      lambda       -0.8033735E-02
   maximum displ.:     0.0785584 α      in ANC's #2, #17, #14, ...

........................................................................
.............................. CYCLE   40 ..............................
........................................................................

 iter      E             dE          RMSdq      gap      omega  full diag
   1    -42.4927617 -0.424928E+02  0.329E-01    1.11       0.0  T
   2    -42.4732256  0.195362E-01  0.709E-01    0.71       1.0  T
   3    -42.4933334 -0.201079E-01  0.229E-01    1.07       1.0  T
   4    -42.4946124 -0.127894E-02  0.120E-01    1.03       1.0  T
   5    -42.4949572 -0.344810E-03  0.235E-02    1.00       1.0  T
   6    -42.4949696 -0.123642E-04  0.131E-02    0.99       1.5  T
   7    -42.4949730 -0.341099E-05  0.705E-03    0.99       2.8  T
   8    -42.4949737 -0.701405E-06  0.229E-03    0.99       8.7  T
   9    -42.4949738 -0.821169E-07  0.109E-03    0.99      18.4  T
  10    -42.4949738 -0.950301E-08  0.436E-04    0.99      45.9  T
  11    -42.4949738 -0.185599E-08  0.173E-04    0.99     115.5  T
     SCC iter.                  ...        0 min,  0.013 sec
     gradient                   ...        0 min,  0.011 sec
 * total energy  :   -41.9968877 Eh     change       -0.4338027E-02 Eh
   gradient norm :     0.0351952 Eh/α   predicted    -0.4143766E-02 (  -4.48%)
   displ. norm   :     0.1720279 α      lambda       -0.1796224E-02
   maximum displ.:     0.0880835 α      in ANC's #4, #2, #9, ...

........................................................................
.............................. CYCLE   41 ..............................
........................................................................

 iter      E             dE          RMSdq      gap      omega  full diag
   1    -42.4951313 -0.424951E+02  0.159E-01    1.01       0.0  T
   2    -42.4937505  0.138078E-02  0.207E-01    0.89       1.0  T
   3    -42.4946414 -0.890923E-03  0.148E-01    1.03       1.0  T
   4    -42.4950513 -0.409875E-03  0.865E-02    0.98       1.0  T
   5    -42.4953266 -0.275354E-03  0.722E-03    0.97       2.8  T
   6    -42.4953280 -0.135852E-05  0.361E-03    0.97       5.5  T
   7    -42.4953281 -0.107830E-06  0.250E-03    0.97       8.0  T
   8    -42.4953282 -0.100361E-06  0.641E-04    0.97      31.2  T
   9    -42.4953282 -0.690575E-08  0.306E-04    0.97      65.4  T
     SCC iter.                  ...        0 min,  0.011 sec
     gradient                   ...        0 min,  0.011 sec
 * total energy  :   -41.9980213 Eh     change       -0.1133679E-02 Eh
   gradient norm :     0.0320223 Eh/α   predicted    -0.9247014E-03 ( -18.43%)
   displ. norm   :     0.2902019 α      lambda       -0.2117612E-02
   maximum displ.:     0.1798579 α      in ANC's #2, #4, #6, ...

........................................................................
.............................. CYCLE   42 ..............................
........................................................................

 iter      E             dE          RMSdq      gap      omega  full diag
   1    -42.5030684 -0.425031E+02  0.200E-01    0.99       0.0  T
   2    -42.5003005  0.276790E-02  0.292E-01    0.83       1.0  T
   3    -42.5025149 -0.221436E-02  0.169E-01    1.01       1.0  T
   4    -42.5029946 -0.479683E-03  0.975E-02    0.95       1.0  T
   5    -42.5033700 -0.375421E-03  0.105E-02    0.95       1.9  T
   6    -42.5033730 -0.303529E-05  0.516E-03    0.95       3.9  T
   7    -42.5033733 -0.285090E-06  0.318E-03    0.95       6.3  T
   8    -42.5033736 -0.246509E-06  0.933E-04    0.95      21.4  T
   9    -42.5033736 -0.170540E-07  0.385E-04    0.95      51.9  T
     SCC iter.                  ...        0 min,  0.011 sec
     gradient                   ...        0 min,  0.011 sec
 * total energy  :   -41.9994374 Eh     change       -0.1416054E-02 Eh
   gradient norm :     0.0285641 Eh/α   predicted    -0.1147998E-02 ( -18.93%)
   displ. norm   :     0.4641375 α      lambda       -0.2604102E-02
   maximum displ.:     0.2522769 α      in ANC's #2, #4, #1, ...
 * RMSD in coord.:     0.8716720 α      energy gain  -0.1517858E+00 Eh

generating ANC from model Hessian ...
Using Lindh-Hessian (1995)
 Shifting diagonal of input Hessian by    8.4241356021848481E-003
 Lowest  eigenvalues of input Hessian
    0.000000    0.000000    0.000000    0.000000    0.000000    0.000000
    0.010000    0.011069    0.012664    0.015440    0.016258    0.017670
    0.018949    0.020686    0.021584    0.022669    0.025290    0.028947
 Highest eigenvalues
    2.030268    2.079337    2.148327    2.244042    2.421383    8.979179


........................................................................
.............................. CYCLE   43 ..............................
........................................................................

 iter      E             dE          RMSdq      gap      omega  full diag
   1    -42.5003259 -0.425003E+02  0.266E-01    0.96       0.0  T
   2    -42.4999845  0.341384E-03  0.184E-01    0.91       1.0  T
   3    -42.4994517  0.532833E-03  0.211E-01    1.00       1.0  T
   4    -42.4995436 -0.918691E-04  0.150E-01    0.89       1.0  T
   5    -42.5005183 -0.974774E-03  0.201E-02    0.95       1.0  T
   6    -42.5005305 -0.121326E-04  0.800E-03    0.94       2.5  T
   7    -42.5005309 -0.426258E-06  0.453E-03    0.94       4.4  T
   8    -42.5005311 -0.240586E-06  0.197E-03    0.94      10.2  T
   9    -42.5005312 -0.114485E-06  0.673E-04    0.94      29.7  T
  10    -42.5005312 -0.452213E-08  0.337E-04    0.94      59.3  T
     SCC iter.                  ...        0 min,  0.012 sec
     gradient                   ...        0 min,  0.011 sec
 * total energy  :   -42.0004090 Eh     change       -0.9716371E-03 Eh
   gradient norm :     0.0653270 Eh/α   predicted     0.0000000E+00 (-100.00%)
   displ. norm   :     0.3242458 α      lambda       -0.4595704E-02
   maximum displ.:     0.2219079 α      in ANC's #1, #15, #2, ...

........................................................................
.............................. CYCLE   44 ..............................
........................................................................

 iter      E             dE          RMSdq      gap      omega  full diag
   1    -42.5051059 -0.425051E+02  0.223E-01    1.03       0.0  T
   2    -42.5013539  0.375198E-02  0.340E-01    0.85       1.0  T
   3    -42.5043160 -0.296203E-02  0.202E-01    1.06       1.0  T
   4    -42.5048494 -0.533399E-03  0.129E-01    0.99       1.0  T
   5    -42.5055129 -0.663478E-03  0.136E-02    0.99       1.5  T
   6    -42.5055177 -0.480462E-05  0.670E-03    0.99       3.0  T
   7    -42.5055185 -0.804218E-06  0.348E-03    0.99       5.7  T
   8    -42.5055186 -0.155866E-06  0.957E-04    0.99      20.9  T
   9    -42.5055186 -0.947347E-08  0.459E-04    0.99      43.6  T
     SCC iter.                  ...        0 min,  0.011 sec
     gradient                   ...        0 min,  0.011 sec
 * total energy  :   -42.0039645 Eh     change       -0.3555430E-02 Eh
   gradient norm :     0.0353307 Eh/α   predicted    -0.2541509E-02 ( -28.52%)
   displ. norm   :     0.5889393 α      lambda       -0.6550791E-02
   maximum displ.:     0.3021496 α      in ANC's #1, #10, #15, ...

........................................................................
.............................. CYCLE   45 ..............................
........................................................................

 iter      E             dE          RMSdq      gap      omega  full diag
   1    -42.5046338 -0.425046E+02  0.519E-01    1.21       0.0  T
   2    -42.4980840  0.654978E-02  0.542E-01    0.97       1.0  T
   3    -42.4992988 -0.121486E-02  0.486E-01    1.33       1.0  T
   4    -42.5006249 -0.132605E-02  0.354E-01    1.08       1.0  T
   5    -42.5060692 -0.544434E-02  0.313E-02    1.16       1.0  T
   6    -42.5060917 -0.224885E-04  0.155E-02    1.15       1.3  T
   7    -42.5060953 -0.355847E-05  0.865E-03    1.15       2.3  T
   8    -42.5060955 -0.225340E-06  0.364E-03    1.15       5.5  T
   9    -42.5060959 -0.410215E-06  0.104E-03    1.15      19.3  T
  10    -42.5060959 -0.796199E-08  0.521E-04    1.15      38.4  T
  11    -42.5060959 -0.238033E-08  0.190E-04    1.15     105.5  T
     SCC iter.                  ...        0 min,  0.014 sec
     gradient                   ...        0 min,  0.011 sec
 * total energy  :   -42.0096427 Eh     change       -0.5678271E-02 Eh
   gradient norm :     0.0627640 Eh/α   predicted    -0.4411493E-02 ( -22.31%)
   displ. norm   :     0.6500172 α      lambda       -0.8961322E-02
   maximum displ.:     0.3746401 α      in ANC's #10, #15, #1, ...

........................................................................
.............................. CYCLE   46 ..............................
........................................................................

 iter      E             dE          RMSdq      gap      omega  full diag
   1    -42.4969633 -0.424970E+02  0.589E-01    1.49       0.0  T
   2    -42.4955194  0.144388E-02  0.410E-01    1.41       1.0  T
   3    -42.4962673 -0.747874E-03  0.367E-01    1.54       1.0  T
   4    -42.4962128  0.545191E-04  0.242E-01    1.38       1.0  T
   5    -42.4986613 -0.244853E-02  0.329E-02    1.48       1.0  T
   6    -42.4986812 -0.198987E-04  0.159E-02    1.47       1.3  T
   7    -42.4986821 -0.881949E-06  0.108E-02    1.47       1.9  T
   8    -42.4986842 -0.208101E-05  0.418E-03    1.47       4.8  T
   9    -42.4986845 -0.368099E-06  0.133E-03    1.47      15.1  T
  10    -42.4986846 -0.104395E-07  0.644E-04    1.47      31.1  T
  11    -42.4986846 -0.348732E-08  0.273E-04    1.47      73.3  T
     SCC iter.                  ...        0 min,  0.014 sec
[...]
H            2.51960734195903        2.09037695664479       -0.35474739751269
H            3.79314771588082       -1.48482627828947        0.10660951896138
H           -1.82566513871043        2.68345848498070        0.73137468130453
H           -4.04754690250887        2.32806059552898       -0.97408180775617
H           -3.09563950503809        1.39487321915173        0.90449015425244
H           -1.01975484347915       -3.31296315393622        1.07000490840973
H           -0.96400996253143       -3.47612805375395       -0.70297459077673
H           -2.40606415986953       -2.81192867425893        0.08559167056611
H            1.79042292782155       -3.06951109305414        0.20263870491302

 Bond Distances (Angstroems)
 ---------------------------
C1-N2=1.4395         C1-H15=1.0911        C1-H16=1.0895        C1-H17=1.0896        N2-C1=1.4395         N2-C3=1.3341         
N2-C6=1.3767         C3-N2=1.3341         C3-N4=1.3586         C3-H18=1.0712        N4-C3=1.3586         N4-C5=1.3474         
N4-H25=1.0101        C5-N4=1.3474         C5-C6=1.4061         C5-N13=1.3937        C6-N2=1.3767         C6-C5=1.4061         
C6-C7=1.4894         C7-C6=1.4894         C7-O8=1.2081         C7-N9=1.4207         O8-C7=1.2081         N9-C7=1.4207         
N9-C10=1.6694        N9-C11=1.3430        C10-N9=1.6694        C10-O12=1.4290       C10-H19=1.0914       C10-H21=1.0930       
C11-N9=1.3430        C11-N13=1.3679       O12-C10=1.4290       O12-H20=0.9657       N13-C5=1.3937        N13-C11=1.3679       
N13-C14=1.4527       C14-N13=1.4527       C14-H22=1.0913       C14-H23=1.0909       C14-H24=1.0868       H15-C1=1.0911        
H16-C1=1.0895        H17-C1=1.0896        H18-C3=1.0712        H19-C10=1.0914       H20-O12=0.9657       H21-C10=1.0930       
H22-C14=1.0913       H23-C14=1.0909       H24-C14=1.0868       H25-N4=1.0101        
 C  H  Rav=1.0883 sigma=0.0063  Rmin=1.0712  Rmax=1.0930     9
 C  C  Rav=1.4477 sigma=0.0416  Rmin=1.4061  Rmax=1.4894     2
 N  H  Rav=1.0101 sigma=0.0000  Rmin=1.0101  Rmax=1.0101     1
 N  C  Rav=1.4094 sigma=0.0905  Rmin=1.3341  Rmax=1.6694    11
 O  H  Rav=0.9657 sigma=0.0000  Rmin=0.9657  Rmax=0.9657     1
 O  C  Rav=1.3185 sigma=0.1105  Rmin=1.2081  Rmax=1.4290     2

 selected bond angles (degree)
 --------------------
H15-C1-N2=110.17               H16-C1-N2=110.28               H16-C1-H15=108.86              H17-C1-N2=108.81               
H17-C1-H15=108.89              H17-C1-H16=109.80              C3-N2-C1=125.37                C6-N2-C1=126.43                
C6-N2-C3=108.20                N4-C3-N2=110.38                H18-C3-N2=125.11               H18-C3-N4=124.51               
C5-N4-C3=107.03                H25-N4-C3=125.69               H25-N4-C5=127.27               C6-C5-N4=108.68                
N13-C5-N4=139.51               N13-C5-C6=111.81               C5-C6-N2=105.71                C7-C6-N2=127.83                
C7-C6-C5=126.44                O8-C7-C6=123.25                N9-C7-C6=113.98                N9-C7-O8=122.74                
C10-N9-C7=117.90               C11-N9-C7=119.34               C11-N9-C10=119.94              O12-C10-N9=133.67              
H19-C10-N9= 98.74              H19-C10-O12=103.79             H21-C10-N9= 97.74              H21-C10-O12=109.70             
H21-C10-H19=112.61             

 selected dihedral angles (degree)
 ---------------------------------
C3-N2-C1-H15=292.31           C3-N2-C1-H16= 52.51           C3-N2-C1-H17=173.01           C6-N2-C1-H15=111.68           
C6-N2-C1-H16=231.88           C6-N2-C1-H17=352.37           N4-C3-N2-C1=179.31            N4-C3-N2-C6=359.84            
H18-C3-N2-C1=359.19           H18-C3-N2-C6=179.73           C5-N4-C3-N2=  0.00            C5-N4-C3-H18=180.12           
H25-N4-C3-N2=179.65           H25-N4-C3-H18=359.76          C6-C5-N4-C3=  0.14            C6-C5-N4-H25=180.51           
N13-C5-N4-C3=180.29           N13-C5-N4-H25=  0.66          C5-C6-N2-C1=180.78            C5-C6-N2-C3=  0.23            
C7-C6-N2-C1=359.04            C7-C6-N2-C3=178.49            N2-C6-C5-N4=359.77            N2-C6-C5-N13=179.66           
C7-C6-C5-N4=181.48            C7-C6-C5-N13=  1.37           O8-C7-C6-N2=359.71            O8-C7-C6-C5=177.63            
N9-C7-C6-N2=181.36            N9-C7-C6-C5=359.28            C10-N9-C7-C6=161.30           C10-N9-C7-O8=342.94           
C11-N9-C7-C6=  0.31           C11-N9-C7-O8=181.95           O12-C10-N9-C7= 97.62          O12-C10-N9-C11=258.50         
H19-C10-N9-C7=338.92          H19-C10-N9-C11=139.80         H21-C10-N9-C7=224.50          H21-C10-N9-C11= 25.38         
           -------------------------------------------------
          |                Final Singlepoint                |
           -------------------------------------------------

          ...................................................
          :                      SETUP                      :
          :.................................................:
          :  # basis functions                  67          :
          :  # atomic orbitals                  67          :
          :  # shells                           39          :
          :  # electrons                        74          :
          :  max. iterations                   250          :
          :  Hamiltonian                  GFN2-xTB          :
          :  restarted?                      false          :
          :  GBSA solvation                  false          :
          :  PC potential                    false          :
          :  electronic temp.         5000.0000000     K    :
          :  accuracy                    1.0000000          :
          :  -> integral cutoff          0.2500000E+02      :
          :  -> integral neglect         0.1000000E-07      :
          :  -> SCF convergence          0.1000000E-05 Eh   :
          :  -> wf. convergence          0.1000000E-03 e    :
          :  Broyden damping             0.4000000          :
          ...................................................

 iter      E             dE          RMSdq      gap      omega  full diag
   1    -42.5924557 -0.425925E+02  0.660E-05    2.07       0.0  T
   2    -42.5924557 -0.126192E-10  0.426E-05    2.07     469.5  T
   3    -42.5924557 -0.238742E-11  0.293E-05    2.07     682.4  T

   *** convergence criteria satisfied after 3 iterations ***

         #    Occupation            Energy/Eh            Energy/eV
      -------------------------------------------------------------
         1        2.0000           -0.9036851             -24.5905
       ...           ...                  ...                  ...
        31        1.9998           -0.6120326             -16.6543
        32        1.9995           -0.6000541             -16.3283
        33        1.9989           -0.5879293             -15.9984
        34        1.9959           -0.5664693             -15.4144
        35        1.9925           -0.5571159             -15.1599
        36        1.9883           -0.5499260             -14.9642
        37        1.8232           -0.5056181             -13.7586 (HOMO)
        38        0.1551           -0.4294582             -11.6862 (LUMO)
        39        0.0377           -0.4060803             -11.0500
        40        0.0094           -0.3839491             -10.4478
        41        0.0002           -0.3228980              -8.7865
        42        0.0000           -0.2905020              -7.9050
       ...           ...                  ...                  ...
        67                          0.5097982              13.8723
      -------------------------------------------------------------
                  HL-Gap            0.0761599 Eh            2.0724 eV
             Fermi-level           -0.4686691 Eh          -12.7531 eV

 SCC (total)                   0 d,  0 h,  0 min,  0.020 sec
 SCC setup                      ...        0 min,  0.000 sec (  0.907%)
 Dispersion                     ...        0 min,  0.000 sec (  0.821%)
 classical contributions        ...        0 min,  0.000 sec (  0.321%)
 integral evaluation            ...        0 min,  0.004 sec ( 20.300%)
 iterations                     ...        0 min,  0.004 sec ( 21.402%)
 molecular gradient             ...        0 min,  0.011 sec ( 55.659%)
 printout                       ...        0 min,  0.000 sec (  0.557%)

         :::::::::::::::::::::::::::::::::::::::::::::::::::::
         ::                     SUMMARY                     ::
         :::::::::::::::::::::::::::::::::::::::::::::::::::::
         :: total energy             -42.116954948865 Eh    ::
         :: gradient norm              0.002548701619 Eh/a0 ::
         :: HOMO-LUMO gap              2.072417065602 eV    ::
         ::.................................................::
         :: SCC energy               -42.592455690218 Eh    ::
         :: -> isotropic ES            0.124675887179 Eh    ::
         :: -> anisotropic ES         -0.005474992893 Eh    ::
         :: -> anisotropic XC          0.014464294183 Eh    ::
         :: -> dispersion             -0.021652636680 Eh    ::
         :: repulsion energy           0.474984200920 Eh    ::
         :: add. restraining           0.000449827925 Eh    ::
         :: total charge               0.999999999934 e     ::
         :::::::::::::::::::::::::::::::::::::::::::::::::::::

           -------------------------------------------------
          |                Property Printout                |
           -------------------------------------------------

    * Orbital Energies and Occupations

         #    Occupation            Energy/Eh            Energy/eV
      -------------------------------------------------------------
         1        2.0000           -0.9036851             -24.5905
       ...           ...                  ...                  ...
        25        2.0000           -0.6647980             -18.0901
        26        2.0000           -0.6515647             -17.7300
        27        2.0000           -0.6469571             -17.6046
        28        1.9999           -0.6263976             -17.0451
        29        1.9999           -0.6197902             -16.8653
        30        1.9998           -0.6168334             -16.7849
        31        1.9998           -0.6120326             -16.6543
        32        1.9995           -0.6000541             -16.3283
        33        1.9989           -0.5879293             -15.9984
        34        1.9959           -0.5664693             -15.4144
        35        1.9925           -0.5571159             -15.1599
        36        1.9883           -0.5499260             -14.9642
        37        1.8232           -0.5056181             -13.7586 (HOMO)
        38        0.1551           -0.4294582             -11.6862 (LUMO)
        39        0.0377           -0.4060803             -11.0500
        40        0.0094           -0.3839491             -10.4478
        41        0.0002           -0.3228980              -8.7865
        42        0.0000           -0.2905020              -7.9050
        43        0.0000           -0.2056204              -5.5952
        44                         -0.1764011              -4.8001
        45                         -0.1380173              -3.7556
        46                         -0.0927331              -2.5234
        47                         -0.0696595              -1.8955
        48                         -0.0575703              -1.5666
       ...                                ...                  ...
        67                          0.5097982              13.8723
      -------------------------------------------------------------
                  HL-Gap            0.0761599 Eh            2.0724 eV
             Fermi-level           -0.4686691 Eh          -12.7531 eV

     #   Z          covCN         q      C6AA      α(0)
     1   6 C        3.691    -0.093    22.461     6.782
     2   7 N        2.828     0.073    19.963     6.636
     3   6 C        3.072     0.045    26.916     8.507
     4   7 N        2.769    -0.050    22.207     6.999
     5   6 C        3.054     0.101    25.725     8.318
     6   6 C        3.092    -0.012    28.204     8.705
     7   6 C        2.763     0.269    22.460     7.761
     8   8 O        0.857    -0.365    20.995     6.143
     9   7 N        2.676    -0.072    22.643     7.067
    10   6 C        3.548     0.117    19.597     6.475
    11   6 C        1.865    -0.069    33.021     9.282
    12   8 O        1.653    -0.361    20.104     6.053
    13   7 N        2.748     0.013    21.022     6.810
    14   6 C        3.705    -0.077    22.123     6.724
    15   1 H        0.924     0.104     1.748     2.068
    16   1 H        0.925     0.101     1.771     2.081
    17   1 H        0.925     0.137     1.481     1.903
    18   1 H        0.926     0.119     1.624     1.993
    19   1 H        0.924     0.120     1.614     1.987
    20   1 H        0.805     0.319     0.666     1.282
    21   1 H        0.924     0.085     1.924     2.169
    22   1 H        0.924     0.078     2.005     2.214
    23   1 H        0.924     0.077     2.005     2.214
    24   1 H        0.925     0.113     1.674     2.024
    25   1 H        0.860     0.227     0.980     1.551

 Mol. C6AA /au·bohr⁶  :       6573.081871
 Mol. C8AA /au·bohr⁸  :     151633.659554
 Mol. α(0) /au        :        123.745884


Wiberg/Mayer (AO) data.
largest (>0.10) Wiberg bond orders for each atom

 ---------------------------------------------------------------------------
     #   Z sym  total        # sym  WBO       # sym  WBO       # sym  WBO
 ---------------------------------------------------------------------------
     1   6 C    3.916 --     2 N    0.986    16 H    0.963    17 H    0.958
                            15 H    0.957
     2   7 N    3.659 --     3 C    1.373     6 C    1.173     1 C    0.986
     3   6 C    3.817 --     2 N    1.373     4 N    1.254    18 H    0.954
     4   7 N    3.582 --     3 C    1.254     5 C    1.217    25 H    0.921
     5   6 C    3.928 --     6 C    1.364     4 N    1.217    13 N    1.138
     6   6 C    3.908 --     5 C    1.364     2 N    1.173     7 C    1.051
     7   6 C    3.917 --     8 O    1.710     9 N    1.068     6 C    1.051
     8   8 O    2.034 --     7 C    1.710     9 N    0.128
     9   7 N    3.577 --    11 C    1.392     7 C    1.068    10 C    0.823
                             8 O    0.128
    10   6 C    3.903 --    12 O    1.101    21 H    0.966    19 H    0.960
                             9 N    0.823
    11   6 C    2.871 --     9 N    1.392    13 N    1.287
    12   8 O    2.085 --    10 C    1.101    20 H    0.886
    13   7 N    3.606 --    11 C    1.287     5 C    1.138    14 C    0.985
    14   6 C    3.940 --    13 N    0.985    24 H    0.973    23 H    0.972
                            22 H    0.972
    15   1 H    0.985 --     1 C    0.957
    16   1 H    0.986 --     1 C    0.963
    17   1 H    0.981 --     1 C    0.958
    18   1 H    0.985 --     3 C    0.954
    19   1 H    0.985 --    10 C    0.960
    20   1 H    0.898 --    12 O    0.886
    21   1 H    0.990 --    10 C    0.966
    22   1 H    0.991 --    14 C    0.972
    23   1 H    0.991 --    14 C    0.972
    24   1 H    0.987 --    14 C    0.973
    25   1 H    0.948 --     4 N    0.921
 ---------------------------------------------------------------------------

Topologies differ in total number of bonds
Writing topology from bond orders to xtbtopo.mol

molecular dipole:
                 x           y           z       tot (Debye)
 q only:        1.562      -2.508       0.338
   full:        2.088      -3.120       0.281       9.569
molecular quadrupole (traceless):
                xx          xy          yy          xz          yz          zz
 q only:       25.393      -5.575      -3.759       0.359       0.500     -21.634
  q+dip:       25.519      -8.905      -5.801       1.492       0.526     -19.717
   full:       24.302      -8.228      -6.731       1.534       0.795     -17.572

           -------------------------------------------------
          |                Geometry Summary                 |
           -------------------------------------------------

      molecular mass/u    :      195.1988581
   center of mass at/Å    :        0.0236903       0.1211192      -0.0705078
  moments of inertia/u·Å² :        0.4879166E+03   0.9115538E+03   0.1380503E+04
rotational constants/cm⁻¹ :        0.3455023E-01   0.1849329E-01   0.1221122E-01

 * 24 selected distances

     #   Z          #   Z                                           value/Å
     1   6 C        2   7 N                                       1.4395106
     2   7 N        3   6 C                                       1.3340633
     3   6 C        4   7 N                                       1.3586241
     4   7 N        5   6 C                                       1.3474091
     2   7 N        6   6 C                                       1.3766640
     5   6 C        6   6 C                                       1.4061052
     7   6 C        8   8 O                                       1.2080605
     7   6 C        9   7 N                                       1.4206744
     9   7 N       11   6 C                                       1.3430396
    10   6 C       12   8 O                                       1.4289833
     5   6 C       13   7 N                                       1.3936838
    11   6 C       13   7 N                                       1.3679486
    13   7 N       14   6 C                                       1.4527481 (max)
     1   6 C       15   1 H                                       1.0910558
     1   6 C       16   1 H                                       1.0894910
     1   6 C       17   1 H                                       1.0896012
     3   6 C       18   1 H                                       1.0712128
    10   6 C       19   1 H                                       1.0914170
    12   8 O       20   1 H                                       0.9656546 (min)
    10   6 C       21   1 H                                       1.0930488
    14   6 C       22   1 H                                       1.0912547
    14   6 C       23   1 H                                       1.0908803
    14   6 C       24   1 H                                       1.0867629
     4   7 N       25   1 H                                       1.0101006

 * 6 distinct bonds (by element types)

   Z      Z             #   av. dist./Å        max./Å        min./Å
   1 H    6 C           9     1.0883027     1.0930488     1.0712128
   6 C    6 C           1     1.4061052     1.4061052     1.4061052
   1 H    7 N           1     1.0101006     1.0101006     1.0101006
   6 C    7 N          10     1.3834366     1.4527481     1.3340633
   1 H    8 O           1     0.9656546     0.9656546     0.9656546
   6 C    8 O           2     1.3185219     1.4289833     1.2080605


optimized geometry written to: xtbopt.xyz


           -------------------------------------------------
          | TOTAL ENERGY              -42.116954948865 Eh   |
          | GRADIENT NORM               0.002548701619 Eh/α |
          | HOMO-LUMO GAP               2.072417065602 eV   |
           -------------------------------------------------

------------------------------------------------------------------------
 * finished run on 2024/06/05 at 20:00:12.346     
------------------------------------------------------------------------
 total:
 * wall-time:     0 d,  0 h,  0 min,  2.386 sec
 *  cpu-time:     0 d,  0 h,  0 min,  2.367 sec
 * ratio c/w:     0.992 speedup
 SCF:
 * wall-time:     0 d,  0 h,  0 min,  0.032 sec
 *  cpu-time:     0 d,  0 h,  0 min,  0.032 sec
 * ratio c/w:     1.000 speedup
 ANC optimizer:
 * wall-time:     0 d,  0 h,  0 min,  2.328 sec
 *  cpu-time:     0 d,  0 h,  0 min,  2.324 sec
 * ratio c/w:     0.998 speedup

