72
 energy: 0.000000000000 xtb: 6.6.1 (8d0f1dd)
N           -1.47310921155849        2.74401293103706        2.22063921685122
C           -1.55658879776851        2.16490285539332        1.13274273951491
C           -2.74549199786261        2.05621232186130        0.23826248438941
C           -3.31377553111525        0.64333411542669        0.32332512650568
C           -4.30230156009016        0.24487110156316       -0.58026161703006
C           -4.85238763031941       -1.02286490450319       -0.53363588718165
O           -5.81419972815119       -1.48606034185536       -1.36157882725342
C           -6.39655633239252       -0.60827000183299       -2.29568474302620
C           -4.39972501531283       -1.94646102182611        0.44396929121966
O           -4.98748311285188       -3.16145997157803        0.41085992006324
C           -4.66362127904578       -4.10093827755394        1.40909127743729
C           -3.42072513477031       -1.54561384810496        1.33436546260297
C           -2.88302799614223       -0.26315800396994        1.27400150770375
C           -2.19303798107274        2.30467000305896       -1.18742977106749
C           -1.26651538239283        1.17243369445008       -1.65249429687285
C            0.01082524939134        1.09745454476277       -0.89354803499847
N            0.61779393476578       -0.02034948052406       -0.57705522512502
C            2.00145210352228       -0.02376006389122       -0.15611399603240
C            2.92554934655222       -0.53865282675074       -1.27700088804721
C            4.35756843073516       -0.43050757231754       -0.83075544324989
C            5.07346135469827        0.73206409086248       -1.03980965825901
C            6.38627986649936        0.84224441421807       -0.60344822702769
C            7.00047264773336       -0.20824756335880        0.05722314418200
O            8.26703657141718       -0.21011313101264        0.52410943644933
C            9.06912227848686        0.92943601033931        0.31863058007678
C            6.27039964270142       -1.40439753960823        0.28033466008274
O            6.94829939911432       -2.38012925705718        0.92751999079483
C            6.31537317745639       -3.61583200086742        1.15217711710877
C            4.96302794628964       -1.49347471867959       -0.16064430359178
C           -0.05511211367372       -1.29906247805359       -0.62085686319744
C           -3.86758037025447        3.07992600430699        0.58498060215443
C           -4.49286159663096        2.77383493050346        1.94313289484366
C           -3.39165179876499        4.52917666589254        0.54797523472093
H           -4.66030026466202        0.94509067363451       -1.31640568823548
H           -6.85037928558380        0.25803162192116       -1.80468845313260
H           -7.17287442604349       -1.18600110843259       -2.79318157561361
H           -5.66836817451085       -0.26952966318766       -3.04040255244073
H           -4.88416720672258       -3.71589460520039        2.40913542187496
H           -5.29223570620378       -4.96637458756866        1.20969236903657
H           -3.61139813139015       -4.39919835331056        1.35529357841967
H           -3.07077796610445       -2.21868765711333        2.10002662693138
H           -2.14562754426994        0.02067850696302        2.01001344383370
H           -3.02188875377605        2.38238012313952       -1.88813545054866
H           -1.65198530896729        3.25146700677685       -1.20556284570283
H           -1.81103374245520        0.23006524641044       -1.62116301628650
H           -0.99335688527853        1.37490212198123       -2.69443256973690
H           -0.67628064361333        1.65183887049447        0.61785727145403
H            0.63525841192517        1.98466369793744       -0.92314021190751
H            2.11132552493482       -0.65949692842762        0.72532613231274
H            2.30680473056284        0.98978251704176        0.11078972794250
H            2.76694198818247        0.06750735147374       -2.17075252200790
H            2.67954581369920       -1.57455627803457       -1.51167743520200
H            4.62169998552446        1.56295612048703       -1.56123579000624
H            6.92357674630170        1.75715815945204       -0.79119596719031
H            8.65159112996149        1.81001823324363        0.81701555159939
H            9.20136171144928        1.14042857828877       -0.74698991949293
H           10.03428838009630        0.69003240176163        0.76064937965836
H            7.05567174969094       -4.23621171795340        1.65347565939075
H            5.43848001056755       -3.50813558175093        1.79970565785717
H            6.02060041905269       -4.09420497120334        0.21253282636366
H            4.40102758497114       -2.40127266373392       -0.00490198249042
H           -0.22071299714579       -1.61775583601871       -1.65116008982042
H           -1.01972258008625       -1.24102717432227       -0.10935206830928
H            0.55899954147532       -2.04486085926761       -0.12333730421426
H           -4.63991875734388        2.95501092798550       -0.18098088071825
H           -3.76095216473977        2.90314704960906        2.73380821053058
H           -4.87457614030224        1.75695641518947        1.97884603101694
H           -5.31925552549014        3.45579210326349        2.12325564252114
H           -2.60025590131176        4.69225046143352        1.27368918226171
H           -3.03987406413880        4.81897652321898       -0.43870975059559
H           -4.22191740670577        5.18069648090034        0.80616693961239
H           -0.59832433787845        2.77744694953323        2.72958984441332
72
 energy: -5.764507688790 xtb: 6.6.1 (8d0f1dd)
N           -1.49889412272187        2.78636535533489        2.23986586603785
C           -1.55300547913918        2.15235045139186        1.15658786736187
C           -2.74673283073321        2.05928534970888        0.24947098132433
C           -3.31405450813708        0.64797647472139        0.33228578788179
C           -4.29789995720269        0.24051172717707       -0.57072251909464
C           -4.83962233024906       -1.02957908699016       -0.52505130658138
O           -5.80679083541739       -1.50208149929874       -1.36164624016213
C           -6.38076369049797       -0.62415900190686       -2.29564943303567
C           -4.38996774967902       -1.94655402465612        0.45135089812109
O           -4.98166118272722       -3.17438637107483        0.41908585479821
C           -4.65255478860839       -4.10349550136169        1.41919243021843
C           -3.41833020050417       -1.54215889145461        1.34622354627939
C           -2.88688938061427       -0.25835829084378        1.28537427676880
C           -2.19558075137536        2.29985181231863       -1.18087830889369
C           -1.26124266668241        1.18088650007366       -1.66977138017856
C            0.01009331953755        1.13357634105215       -0.90103990725029
N            0.64300935654380       -0.04454161876055       -0.56191010832266
C            2.01633190628270       -0.02851031303683       -0.17495690428466
C            2.94152316961895       -0.51672472135142       -1.31029241809193
C            4.36413789713896       -0.41816190440724       -0.87475779586601
C            5.08863832380281        0.74551650205658       -1.05066671205598
C            6.39886838482815        0.84365795446802       -0.60463792362712
C            6.99764570262056       -0.22008092468759        0.04444372099664
O            8.27570461989716       -0.24114772604795        0.52286749807173
C            9.07790035930339        0.89577077094014        0.33374836847761
C            6.24597283166568       -1.39649325641134        0.25737535000716
O            6.87304577270272       -2.37519818321336        0.95224373321340
C            6.22886108220876       -3.59401402754026        1.17174641145233
C            4.95437596333021       -1.48769570792372       -0.21028219973894
C           -0.03444654655525       -1.30557067651706       -0.62638482443340
C           -3.87460633961412        3.07300532062994        0.58420741561807
C           -4.49878331961241        2.77104425476526        1.94578020039753
C           -3.40154577396372        4.52518569766714        0.54870106956719
H           -4.64804984039918        0.93612847167821       -1.31582608575381
H           -6.83635603644360        0.24454606761513       -1.80816623646758
H           -7.15537003725067       -1.20226106483537       -2.79743786227101
H           -5.65026765120717       -0.28300460118112       -3.03750184738668
H           -4.87403444477812       -3.71621459570528        2.41942300748619
H           -5.27833113847782       -4.97307061449332        1.22301642029672
H           -3.59852577389143       -4.39806285348863        1.36949917902165
H           -3.06232821387261       -2.21691266009034        2.10912311772844
H           -2.14302981509187        0.02803816307439        2.01348896106759
H           -3.02926440323562        2.38728306798190       -1.87864417256533
H           -1.65007212100811        3.24491283299848       -1.19645584670645
H           -1.79730297566961        0.23391090014223       -1.62618362790228
H           -1.01583480489531        1.38181764171059       -2.72105181785896
H           -0.68754639242664        1.64670349287695        0.66150398971665
H            0.65340685527380        1.99473711461833       -0.96342394509145
H            2.14955736709478       -0.66480402198642        0.70822444194220
H            2.30638575391342        0.99019725143041        0.09433046056661
H            2.76773147528290        0.10772688132198       -2.18766478016874
H            2.68503066110522       -1.54765861493416       -1.55605424655865
H            4.63747691098867        1.58875099637730       -1.55108908032909
H            6.94079814551833        1.76042058760689       -0.77034993312071
H            8.66287772270806        1.77291937480974        0.84195506615340
H            9.21479052126125        1.12369069345082       -0.72839486519597
H           10.04318141592912        0.64723677769902        0.77299536871466
H            6.98736534306060       -4.21343895152765        1.62547894833526
H            5.38006498142542       -3.47819299735388        1.85468341697479
H            5.89791885758936       -4.07447553932187        0.24687336172059
H            4.38933894802941       -2.39514106906817       -0.06681242743410
H           -0.20542244078407       -1.62563580289172       -1.66142394577980
H           -0.99919599998121       -1.24527416067581       -0.11400526812446
H            0.58021423224596       -2.05444184384290       -0.13019011604964
H           -4.65106197165309        2.95047160818054       -0.18122471094427
H           -3.75679366208994        2.90136402963155        2.72720482158402
H           -4.87279755713649        1.75039929854819        1.98379792392853
H           -5.32735954658521        3.45145154819162        2.12961138144509
H           -2.60539581738205        4.68178551477648        1.27091416472266
H           -3.04694174616075        4.80961705483708       -0.43889881807124
H           -4.23331903235561        5.17775383099380        0.80646747205863
H           -0.60711770527833        2.77914091606105        2.73225443843959
72
 energy: -5.147300335039 xtb: 6.6.1 (8d0f1dd)
N           -1.50772812448563        2.80394169028768        2.24473960628865
C           -1.55663237905451        2.15325234984161        1.17051398483260
C           -2.74578146759366        2.05740689861980        0.25594350527736
C           -3.31048424449367        0.64567398015850        0.33944494392586
C           -4.29068149680736        0.23339527567780       -0.56535956479283
C           -4.82975089836595       -1.03796906273728       -0.51935080980144
O           -5.79363963479371       -1.51471376916551       -1.35866249831830
C           -6.36418444370136       -0.63819612765454       -2.29610734590303
C           -4.38116578694004       -1.95203558025032        0.45995491308867
O           -4.97122589652399       -3.18176357517879        0.42835552383523
C           -4.64208536889130       -4.10734754420192        1.43118988072436
C           -3.41310304384375       -1.54304352045154        1.35682048761373
C           -2.88506099359029       -0.25786820462624        1.29538386153560
C           -2.19441473126109        2.29857319131247       -1.17534927780853
C           -1.25831216098618        1.18435635442729       -1.67490482217453
C            0.01741753956034        1.14163707754160       -0.90988411372600
N            0.65358077163797       -0.03929362020321       -0.56376718575466
C            2.03133142766550       -0.01945312888898       -0.19359390164839
C            2.94729956996873       -0.49059421983765       -1.34334457652154
C            4.36913163347309       -0.40051074219277       -0.91261387767268
C            5.10187210442201        0.76170122373496       -1.05937291327816
C            6.41154020715953        0.84511153884191       -0.60619161857528
C            6.99832332585619       -0.23168807358486        0.03196039352003
O            8.27573092209845       -0.27079312645283        0.51682935485264
C            9.08637240974413        0.86367089911293        0.34671822109637
C            6.22227104952868       -1.39310377679455        0.23546737542651
O            6.79052304508909       -2.36663401819269        0.97531118088105
C            6.14019054945758       -3.57540712810198        1.19234964291613
C            4.94354313400658       -1.47956272807861       -0.25764711338254
C           -0.01734075175795       -1.30463850989306       -0.63296648362886
C           -3.87971897837386        3.06665052701538        0.58459422561169
C           -4.50268519574352        2.76536815527971        1.94708659323253
C           -3.40956376628036        4.51981830393718        0.54773090494665
H           -4.63816678011967        0.92636347448490       -1.31442630915898
H           -6.82174012278635        0.23116938779675       -1.81149816772234
H           -7.13583762936010       -1.21716045248211       -2.80150814581241
H           -5.63045484406031       -0.29667271121086       -3.03457239712874
H           -4.86614091710492       -3.71740451921384        2.42983511024634
H           -5.26571052294678       -4.97896009901274        1.23601887788367
H           -3.58703940282571       -4.39874862335739        1.38448590422345
H           -3.05531150746635       -2.21640987089400        2.12013434775682
H           -2.14161071963304        0.03182460205677        2.02281928926235
H           -3.03040169049888        2.39107331009258       -1.87072286888701
H           -1.64755195117570        3.24267531698935       -1.18920699054195
H           -1.78793835969023        0.23452026925750       -1.62674936458181
H           -1.02723662264278        1.38527867065500       -2.73117716606434
H           -0.69046973668658        1.64145255669021        0.68722955103561
H            0.66137833688019        2.00132122443988       -0.98440081216719
H            2.18112200650809       -0.66121929513759        0.68490003663019
H            2.31433207187568        1.00075138252201        0.07868291704359
H            2.76774426274734        0.14710621125001       -2.20911180692344
H            2.68979495378962       -1.51868876761833       -1.59968415642833
H            4.65431019454738        1.61757110134344       -1.54027959714881
H            6.95840763477672        1.76246010797589       -0.75099379752533
H            8.67510183059234        1.73556879819474        0.86701856319902
H            9.22738852544358        1.10753301334035       -0.71097839750985
H           10.05047973008149        0.60349956516641        0.78268910779192
H            6.90687455751366       -4.20163572367623        1.60172648308039
H            5.32327042213323       -3.44911825826088        1.91092481353196
H            5.77390471611162       -4.05322017731773        0.28139543438845
H            4.37672854894937       -2.38717076617279       -0.12755276651743
H           -0.18875057895740       -1.62564769354038       -1.66858968356193
H           -0.98182084232078       -1.24895643642859       -0.11937293436552
H            0.60044875261097       -2.05412292528961       -0.13966977154580
H           -4.65594971496255        2.93959348496989       -0.18104248549703
H           -3.75601321765961        2.89948112212142        2.72324037417429
H           -4.87220283995349        1.74306522022783        1.98865397225346
H           -5.33300838073579        3.44367783290291        2.13273551424721
H           -2.61182233074309        4.67492524096946        1.26896596520054
H           -3.05431744424580        4.80177700774462       -0.44032040476494
H           -4.24272797673509        5.17172966027420        0.80452753596459
H           -0.62016416264487        2.79163963375710        2.74314151779396
72
 energy: -3.774566437218 xtb: 6.6.1 (8d0f1dd)
N           -1.51610857206980        2.82180469947738        2.24787446826346
C           -1.55969950887196        2.15437552513524        1.18352808816971
C           -2.74427849006591        2.05533811458833        0.26230967522198
C           -3.30557391385020        0.64267875193131        0.34584326838435
C           -4.28234392616548        0.22621039848728       -0.56077571148503
C           -4.81944434776286       -1.04603681989619       -0.51384251951603
O           -5.78004319268096       -1.52705222553917       -1.35570340415874
C           -6.34780098373705       -0.65280260600953       -2.29702416923556
C           -4.37229153024641       -1.95709818743838        0.46865978429545
O           -4.96070616237701       -3.18851138633474        0.43781571453839
C           -4.63142852630395       -4.11058893000968        1.44329018020773
C           -3.40778051034428       -1.54411770833299        1.36757067146599
C           -2.88289895848849       -0.25785389521553        1.30544333168789
C           -2.19206351646217        2.29823928150323       -1.16917210013500
C           -1.25492137432760        1.18779035088636       -1.67890656153659
C            0.02560442589807        1.15028342208341       -0.91922063163867
N            0.66505058888409       -0.03332112047675       -0.56695930115684
C            2.04579851970648       -0.00983620555359       -0.21148822582845
C            2.95253829293411       -0.46283090676868       -1.37583308787538
C            4.37390359354451       -0.38137624996142       -0.94943102996638
C            5.11450100785321        0.77895214928098       -1.06738374125470
C            6.42401736503230        0.84658594479250       -0.60813098147704
C            6.99856574970281       -0.24387035012538        0.01881154783840
O            8.27498366690640       -0.30112548310488        0.50980122880041
C            9.09307738867684        0.83088707113677        0.35928151589892
C            6.19929194756625       -1.39051013185597        0.21311684027562
O            6.70609515175579       -2.35669774745666        0.99743393999250
C            6.05331079160283       -3.55763752153168        1.21383983958165
C            4.93347540091916       -1.47053901623439       -0.30533521764489
C           -0.00018067411891       -1.30285186809207       -0.63958791051600
C           -3.88409113468545        3.05999477440133        0.58487890321038
C           -4.50707653561393        2.75958779580431        1.94775061194298
C           -3.41851081381121        4.51478111605349        0.54591430128799
H           -4.62741654021201        0.91671635132445       -1.31351510140305
H           -6.80818657546646        0.21697967774287       -1.81579889576503
H           -7.11623659814778       -1.23350850031187       -2.80534844759481
H           -5.61140195204580       -0.31096340630293       -3.03268865600411
H           -4.85828510821366       -3.71831794789229        2.44039855254226
H           -5.25276621148918       -4.98421726892545        1.24894402062309
H           -3.57542668631812       -4.39898606015277        1.39955923033366
H           -3.04904906146742       -2.21584191088750        2.13188130798404
H           -2.14047590105086        0.03499213789949        2.03287910071854
H           -3.02991272020792        2.39613463640292       -1.86268103760122
H           -1.64328860401989        3.24115000272425       -1.18000969566816
H           -1.77718991046555        0.23435150818940       -1.62615485066546
H           -1.03822401440869        1.38881778216600       -2.73936807439504
H           -0.69301825967273        1.63614040012206        0.71205934071860
H            0.67158899204078        2.00681588671838       -1.00380654766210
H            2.21040727413483       -0.65895337799063        0.66076054718556
H            2.32247940246313        1.01057779523437        0.06734237132395
H            2.76801209314527        0.18805336547385       -2.23010158516738
H            2.69391424084158       -1.48764877689676       -1.64413276440809
H            4.67134842503595        1.64644039405309       -1.53088774528858
H            6.97609609651759        1.76397601528244       -0.73270390273908
H            8.68499231239847        1.69640813644171        0.89283686333038
H            9.23686840178182        1.09069064471586       -0.69390217485330
H           10.05590018350604        0.55854866214371        0.79160081039849
H            6.82345669327689       -4.19424322607303        1.58037424836375
H            5.26880036415112       -3.42075315523517        1.96619538616009
H            5.64882600783829       -4.02959236257545        0.31781847149020
H            4.36457913923857       -2.37795990721190       -0.18854302738318
H           -0.17172762042302       -1.62565566299728       -1.67538594078402
H           -0.96440751402896       -1.25285197064612       -0.12464363006337
H            0.62130418983240       -2.05148532423914       -0.14827020203635
H           -4.65907445873419        2.92773388242208       -0.18134985963139
H           -3.75790104906368        2.89783103144513        2.72002189310418
H           -4.87211674765650        1.73574068569506        1.99284694212050
H           -5.33944039899197        3.43556301101296        2.13363901314933
H           -2.62022290943202        4.67007461889176        1.26673839287256
H           -3.06305936306607        4.79506440433303       -0.44252249740643
H           -4.25373099861454        5.16500397391022        0.80148923352404
H           -0.63124406622880        2.80678348582196        2.74847675210143
72
 energy: -1.748078468042 xtb: 6.6.1 (8d0f1dd)
N           -1.52458755022885        2.84060417955992        2.25014483181948
C           -1.56230880974782        2.15683932581488        1.19574915452338
C           -2.74289701973025        2.05302593336151        0.26875532902408
C           -3.30027121071952        0.63911008593682        0.35188700172231
C           -4.27388696491252        0.21872475295224       -0.55645963560946
C           -4.80912288637196       -1.05436295590668       -0.50839065080213
O           -5.76669281446428       -1.53924274447504       -1.35244741612591
C           -6.33166204658294       -0.66714554397561       -2.29750840381024
C           -4.36331401900134       -1.96241303991331        0.47726956505680
O           -4.95012955338147       -3.19529161938056        0.44749164930548
C           -4.62070713093943       -4.11411595063660        1.45540857642173
C           -3.40194259769954       -1.54563068810674        1.37788779117515
C           -2.87956488798325       -0.25846854397989        1.31483621778666
C           -2.19055991595844        2.29831227131369       -1.16305720929939
C           -1.25228653759400        1.19176595782133       -1.68330169473914
C            0.03409424549467        1.15920869541521       -0.93174071011101
N            0.67686731410338       -0.02594823133125       -0.57225007014623
C            2.06010938696955        0.00130959374956       -0.23042443433986
C            2.95726990016344       -0.43518687030644       -1.40832420089002
C            4.37859479420915       -0.36212600556148       -0.98691913657522
C            5.12726239086707        0.79561824780476       -1.07612717908003
C            6.43626192117985        0.84728149457661       -0.61049837111270
C            6.99757280503245       -0.25626298161414        0.00658479755990
O            8.27302341244983       -0.33034238516216        0.50361915857431
C            9.10023468556266        0.79836119192548        0.37242650859238
C            6.17493696685370       -1.38817733338265        0.19167689781297
O            6.61767253520739       -2.34227427072210        1.02204214049515
C            5.96481863294835       -3.53877382101051        1.23731388764466
C            4.92297429980856       -1.46162209680633       -0.35391384529250
C            0.01734854302607       -1.29987169693216       -0.64752605194801
C           -3.88803947931591        3.05322022496942        0.58653998040292
C           -4.51085587679529        2.75345514133178        1.94981903643194
C           -3.42665451208793        4.50952687704539        0.54473175945949
H           -4.61713259873992        0.90686454029978       -1.31244317175323
H           -6.79460431017613        0.20312572441565       -1.81959886452667
H           -7.09713914968255       -1.24934977929320       -2.80861463661273
H           -5.59271433572029       -0.32518320950031       -3.03054407433766
H           -4.85015541264546       -3.71973644525058        2.45111125714697
H           -5.23989700115567       -4.98960575981266        1.26185025815145
H           -3.56380688525980       -4.39975250340613        1.41439498557777
H           -3.04282031683046       -2.21549110263493        2.14354505587460
H           -2.13894543418808        0.03775488408736        2.04268016575398
H           -3.03067663672596        2.40060907261829       -1.85418712222217
H           -1.64061990460038        3.24049866041277       -1.17140623124922
H           -1.76735101114664        0.23462213159605       -1.62562052450742
H           -1.05102405766821        1.39331393014165       -2.74750139724447
H           -0.69580582525981        1.63021211144685        0.73707169270272
H            0.68246274045028        2.01214154913838       -1.02663724066350
H            2.23901114283408       -0.65416028772071        0.63580064439476
H            2.33116965504397        1.02172970338215        0.05395434951937
H            2.76756578828733        0.22745829237681       -2.25169011254959
H            2.69702287226155       -1.45701958282634       -1.68672044821511
H            4.68865912297729        1.67466633850117       -1.52144277373426
H            6.99373625962172        1.76452833087043       -0.71390351725399
H            8.69700993490268        1.65879885385538        0.91814248882384
H            9.24900142462412        1.07385043300700       -0.67584426944461
H           10.06134019822308        0.51384944775025        0.80165425820694
H            6.73673285823108       -4.18516317078551        1.56497080052669
H            5.21381645391992       -3.39310969318735        2.02232140402167
H            5.52594189550780       -4.00713425056064        0.35686807554932
H            4.35144588694239       -2.36855929928047       -0.24997568744421
H           -0.15477212259806       -1.62387824452226       -1.68344100218370
H           -0.94653298192398       -1.25638251528926       -0.13094741576741
H            0.64271225409628       -2.04795311500112       -0.15873220782428
H           -4.66205898250312        2.91592547152436       -0.18006200427544
H           -3.76161982437775        2.89502069263025        2.72073879430818
H           -4.87169285468397        1.72820124852913        1.99774251592561
H           -5.34502255060790        3.42727786216603        2.13562806849029
H           -2.62753062350020        4.66508239038423        1.26467798512932
H           -3.07157256143527        4.78823821957725       -0.44432080399188
H           -4.26353053602703        5.15831593575734        0.79939835161535
H           -0.64192813643544        2.82333351910495        2.75287419952571
72
 energy: 0.880910268549 xtb: 6.6.1 (8d0f1dd)
N           -1.53342247732833        2.85799007077102        2.25392991078819
C           -1.56513807777074        2.15971200471623        1.20865483230914
C           -2.74164807785248        2.05065940169852        0.27570761761765
C           -3.29507711348398        0.63552425461871        0.35828270211774
C           -4.26522514683957        0.21125591883552       -0.55212662517679
C           -4.79841887333135       -1.06273153183653       -0.50307009359541
O           -5.75287535399534       -1.55140146873281       -1.34926238447200
C           -6.31530854671994       -0.68167929855950       -2.29811263920918
C           -4.35395440882010       -1.96778706727622        0.48575764536466
O           -4.93915748525012       -3.20195828265041        0.45708541825139
C           -4.60997838888002       -4.11754120273684        1.46759748519472
C           -3.39578728651270       -1.54725009147923        1.38815796117426
C           -2.87613013093905       -0.25912452826107        1.32442726747147
C           -2.18935955997222        2.29809820703994       -1.15650918042969
C           -1.24981664794877        1.19590175901292       -1.68726795044553
C            0.04274959660406        1.16883942917993       -0.94479508590915
N            0.68904300151796       -0.01727356825584       -0.57846517008717
C            2.07453768586020        0.01316782170748       -0.24922627336971
C            2.96185287888610       -0.40694922419121       -1.44045520985239
C            4.38346129006575       -0.34210597578823       -1.02483415048785