25
 energy: 0.000000000000 xtb: 6.6.1 (8d0f1dd)
C            3.23720163006194        1.16630919979326        0.08434469647475
N            2.29877817382611        0.07527477071623        0.03981603040599
C            2.58028210190900       -1.21425402444508        0.03006176031096
N            1.43813958087363       -1.93419271955128        0.00098261760884
C            0.39035688448383       -1.05887472636071       -0.00790371836672
C            0.93510056364412        0.21347819449412        0.01709077491437
C            0.09450143893243        1.40504303904423       -0.00410947031874
O            0.49712751527797        2.54126714362870       -0.00342325688240
N           -1.25076640035757        1.06271879480407       -0.03085478223738
C           -2.21907211982101        2.15522099834493       -0.05001256985998
C           -1.81739487048744       -0.20012725993278       -0.04692818574614
O           -2.99983886758376       -0.37846417018721       -0.07008878229737
N           -0.92618586207120       -1.30210215599479       -0.03682761578324
C           -1.46982264913417       -2.64643102187190       -0.06029820460571
H            3.71247264356769        1.21471455160235        1.06488849150277
H            4.00791497605742        1.03430808813993       -0.67357694370751
H            2.69910007168542        2.09770118228144       -0.09130154882931
H            3.56654120610678       -1.63682992603973        0.04233140067262
H           -1.67107961066214        3.09322851271934       -0.02552706933167
H           -2.82428953597071        2.09428624779827       -0.95318082946668
H           -2.87644029173232        2.07745725625962        0.81450067533302
H           -1.17061996399332       -3.19584890659852        0.83242232437030
H           -1.14560257411436       -3.17511610292205       -0.95688275822323
H           -2.55549792440841       -2.55659984320617       -0.07459039797972
H            1.38130855184625       -2.94313852034425       -0.01389874181052
25
 energy: -4.568250853325 xtb: 6.6.1 (8d0f1dd)
C            3.24722323211723        1.17812785146910        0.08236444047728
N            2.30718595229082        0.09800125740362        0.03894133394505
C            2.60068434760468       -1.22834288823942        0.03090319565847
N            1.42878297315847       -1.93781741662416        0.00910725092705
C            0.39002699013801       -1.05691707055450       -0.00321553957153
C            0.92747143463622        0.22049309764852        0.01927395273294
C            0.09731232113586        1.39012551682513        0.00356602920961
O            0.50118974492113        2.55445976982918        0.01252476825495
N           -1.27016740754426        1.04470977258091       -0.04301825398483
C           -2.21269231926250        2.15573585263258       -0.03320929283205
C           -1.85812751635655       -0.20782316218435       -0.12064996653182
O           -3.05943814286861       -0.37817019064525       -0.18578529899486
N           -0.94675335965797       -1.30269059156133       -0.04235794472922
C           -1.46653396404641       -2.65087187590475       -0.03979512995447
H            3.72902498018952        1.22594513306284        1.06275392236294
H            4.01506353120651        1.03908289327974       -0.68069504436415
H            2.70524670344181        2.10482940647900       -0.09524415501647
H            3.58168891171982       -1.65031149811912        0.03559081325337
H           -1.64875120699544        3.08674172026935        0.00399761483306
H           -2.81881175966585        2.11588670201575       -0.93616701123544
H           -2.86457906544144        2.07621896678729        0.83596640685194
H           -1.13444514921818       -3.20060327765270        0.84419885723152
H           -1.15734565742063       -3.17985661516748       -0.94224321047453
H           -2.55105230124757       -2.56596165873556       -0.02233826908147
H            1.37001139510154       -2.94196309272234       -0.00743557282003
25
 energy: -1.324633289334 xtb: 6.6.1 (8d0f1dd)
C            3.25918239572784        1.18750119171890        0.07729257826995
N            2.31116730739778        0.12089072575900        0.03789938298937
C            2.61453201844134       -1.23964819916476        0.03439930809622
N            1.41331955213770       -1.93442330278125        0.02176910498221
C            0.38435680973030       -1.05331709026208        0.00695838527185
C            0.91537500908018        0.22793701187838        0.02527871158644
C            0.09739809832508        1.36581888271508        0.01611451998952
O            0.49116158170548        2.55109426363341        0.04153923569678
N           -1.29865239195479        1.02124429202439       -0.06256908146549
C           -2.20209345956492        2.16147950726948       -0.00447286709403
C           -1.91042485061922       -0.21887140397339       -0.24144263830133
O           -3.11871447028857       -0.37805046673064       -0.41819985279473
N           -0.97370839507219       -1.30054734610049       -0.05045728818717
C           -1.45807175825886       -2.65804695743024       -0.00364358043522
H            3.75397475615947        1.24026927866619        1.05419130255484
H            4.02442708807934        1.04359209242332       -0.69122189820517
H            2.72015395702526        2.11475796940750       -0.10120400566427
H            3.59115285441977       -1.65856709461110        0.02549140838045
H           -1.61150314100944        3.07861807337493        0.05651325999838
H           -2.81723787839380        2.16443411755671       -0.90203357765789
H           -2.84083672176110        2.07713655704183        0.87522579657656
H           -1.05932033447734       -3.20382751337443        0.86250353159354
H           -1.19153112555083       -3.19353033210777       -0.91858577535992
H           -2.54250097472374       -2.59081988611993        0.08266412793061
H            1.36060874138155       -2.93609576864100        0.00302380739583
25
 energy: 5.520282679779 xtb: 6.6.1 (8d0f1dd)
C            3.26667783550123        1.19020346900265        0.07501766231232
N            2.30927684855462        0.13199982019691        0.03964948974126
C            2.61462159143097       -1.24462326905527        0.04331283091977
N            1.40129175670304       -1.93010948527132        0.02995155360965
C            0.37539261861635       -1.05204731598690        0.00536715871419
C            0.90605474513402        0.23076051831635        0.02658258587761
C            0.09009980866212        1.35270165360509        0.01884880668450
O            0.47155545141839        2.54560889237866        0.06875063238849
N           -1.32511488007680        1.00602275711731       -0.09074305876675
C           -2.19494034666948        2.16981022691906        0.02522855064129
C           -1.94691562495928       -0.22681715202749       -0.37122899289788
O           -3.14431605795848       -0.37954950588075       -0.64698530118908
N           -0.99436074607668       -1.29757545696025       -0.07267558539270
C           -1.44895739361864       -2.66496118996525        0.03298258553662
H            3.77145353464709        1.24795883859597        1.04816061803715
H            4.03080123569796        1.04217375373745       -0.69573905804005
H            2.73747450390694        2.12331751284234       -0.10453676261184
H            3.59147067667210       -1.65992345915151        0.02277362293350
H           -1.57734363005160        3.07034767048828        0.11220514543275
H           -2.82336198311614        2.22470247882426       -0.86237619812493
H           -2.81482227716660        2.07591710668835        0.91866158307405
H           -0.96989178281879       -3.19554985635146        0.87773443429164
H           -1.24313084709049       -3.21453425686994       -0.89388219124949
H           -2.53078100275023       -2.62425498410497        0.20653457856985
H            1.35998063334465       -2.93255016491556        0.01343920565543
25
 energy: 9.492172607711 xtb: 6.6.1 (8d0f1dd)
C            3.26863201792443        1.18734017855107        0.07940887235318
N            2.30322919682805        0.13280239435389        0.04484015706067
C            2.60481206398526       -1.24308125386680        0.05723632629774
N            1.39461918112374       -1.92630840107571        0.02838663875421
C            0.36512868764161       -1.05249008789168       -0.01243086657427
C            0.90041983774008        0.22933892222381        0.01967834710142
C            0.07883902823061        1.35027582495661        0.00594769285050
O            0.45202879472949        2.53842644478531        0.08040423961844
N           -1.34521877080841        0.99922740626612       -0.12478863551223
C           -2.19252635915456        2.17516020728955        0.04839702113369
C           -1.96331523511184       -0.22962093084112       -0.47525038890431
O           -3.13471387936288       -0.37880485552155       -0.80887877943618
N           -1.00710959800626       -1.29422838241896       -0.10836613572837
C           -1.44140950264241       -2.66769300291756        0.06102998634059
H            3.77638589919836        1.24707078274649        1.05080740444712
H            4.03374916312277        1.03520742883200       -0.68988101640061
H            2.75178377399219        2.12796262928477       -0.10203646304792
H            3.58496993941422       -1.65447404353209        0.02959253206336
H           -1.55527230396910        3.06078003381548        0.15567203029676
H           -2.83664786995414        2.27977258213188       -0.82333499993115
H           -2.78964953936844        2.06857195835330        0.95711927142161
H           -0.88818606775921       -3.17527530345122        0.88051537652441
H           -1.30357061656963       -3.23812266603606       -0.87044106396141
H           -2.51186838427828       -2.65170004029968        0.32362972510635
H            1.36710521099065       -2.93110922356581        0.01977662427373
25
 energy: 9.174220335412 xtb: 6.6.1 (8d0f1dd)
C            3.26485761736123        1.18057137047949        0.08640793982651
N            2.29426692247929        0.12592817842145        0.05203190415256
C            2.58822821006633       -1.23470806534723        0.07312809862267
N            1.39313137860923       -1.92287975690350        0.01839622882910
C            0.35518257654035       -1.05391812475630       -0.03302538658540
C            0.89759372798397        0.22536343613962        0.01060364184301
C            0.06891285499273        1.35465106063760       -0.01188574354247
O            0.43976218686073        2.52920459766937        0.07616164601371
N           -1.35418843721445        0.99960175378861       -0.15028685694850
C           -2.19378023382772        2.17284212159691        0.06186808198681
C           -1.95931078700337       -0.22754766786672       -0.52107061320544
O           -3.09802526076270       -0.37466773769754       -0.92245305797290
N           -1.01069783048594       -1.29213945287323       -0.13963382900151
C           -1.43735593159827       -2.66363061290104        0.07888709130875
H            3.77006284479787        1.23846946982969        1.05795701561012
H            4.03127409631346        1.02417718172630       -0.67997327351054
H            2.75875027309252        2.12735231037728       -0.09673486454690
H            3.57312089570249       -1.64249890722386        0.03739837821273
H           -1.54854298901194        3.04863892537458        0.17806475797420
H           -2.85396610617680        2.31414816822311       -0.78808079306275
H           -2.76849255024352        2.05335662900582        0.98409066874716
H           -0.83247854967378       -3.14960129905411        0.86626547907281
H           -1.36222525967815       -3.25479018763522       -0.84597521861226
H           -2.48330596911347       -2.65866492069076        0.41484267934880
H            1.37944098792627       -2.93022986814835        0.02004992158711
25
 energy: 8.166861623877 xtb: 6.6.1 (8d0f1dd)
C            3.25929178538913        1.17568240837575        0.09178404263417
N            2.28792505214136        0.12111274687197        0.05715169903535
C            2.57740797948199       -1.22708127904286        0.08737172012500
N            1.39331780263794       -1.92161060045883        0.00795040726157
C            0.35037890174306       -1.05454390032743       -0.04641085598481
C            0.89516545815631        0.22381227513397        0.00086555659446
C            0.06690651831196        1.35774817006993       -0.02434028559798
O            0.43914024357375        2.52677806961558        0.07546526762684
N           -1.35156225335772        1.00232091275418       -0.16306158255628
C           -2.19582992745609        2.16595022170145        0.06708031090868
C           -1.94613295717988       -0.22457076601932       -0.53421059223979
O           -3.06146672270532       -0.37021303071879       -0.98700036030538
N           -1.00832528134183       -1.29357515958091       -0.15807065725811
C           -1.43917556396271       -2.65753513300811        0.08863205893172
H            3.75908516500447        1.22986024391379        1.06551590705713
H            4.02667142625991        1.01430763476926       -0.67205617266974
H            2.75629029613475        2.12292868142931       -0.09375077227320
H            3.56388791741354       -1.63339033640836        0.04179864479673
H           -1.55240837749445        3.04109986125576        0.18348562775969
H           -2.86793371327103        2.32170077862514       -0.76657582770800
H           -2.75785520845795        2.03505278812308        0.99526779132509
H           -0.79661289767195       -3.13344318573613        0.84547792445056
H           -1.41015900162204       -3.25760361726860       -0.82975244235514
H           -2.46190643578297       -2.64664661695351        0.47735898977760
H            1.38611446199210       -2.92911256494427        0.01705749681118
25
 energy: 7.736838174953 xtb: 6.6.1 (8d0f1dd)
C            3.25602728990597        1.17447712564936        0.09528635444974
N            2.28579677911601        0.12032335804575        0.05998005055717
C            2.57487488388933       -1.22431232765223        0.09971998405812
N            1.39379515497306       -1.92196230797045        0.00173016617921
C            0.35039942871980       -1.05427399651164       -0.05434342925905
C            0.89359153824916        0.22456505557938       -0.00708919976476
C            0.06795019017355        1.35842519586251       -0.02870601262264
O            0.44140731933007        2.52878954850438        0.07975681747354
N           -1.34662623369451        1.00436058903825       -0.17041137782841
C           -2.19755366902448        2.16034896006956        0.06901467683668
C           -1.93584548296177       -0.22272543832324       -0.54747832011505
O           -3.03776937618095       -0.36733986410829       -1.02020101537814
N           -1.00490631596119       -1.29602019761077       -0.17093834948002
C           -1.44267929349906       -2.65338570218192        0.09514045727338
H            3.75152540408466        1.22688116808403        1.07114425617323
H            4.02469785770141        1.01011328024600       -0.66641179157089
H            2.75191419745652        2.11994405753172       -0.09231725134122
H            3.56071157244976       -1.63103210029864        0.04172106239566
H           -1.55756843804269        3.03882999268711        0.18509200286856
H           -2.87723118770184        2.31821508229697       -0.75712108610434
H           -2.75344412718012        2.02013527456151        0.99924748699495
H           -0.77386963981323       -3.12888185544024        0.82701777413923
H           -1.45130274163671       -3.25675597263085       -0.82094003535036
H           -2.44841518215588       -2.63108968623918        0.52315011318577
H            1.38673473973947       -2.92860063701710        0.01499056237703
25
 energy: 7.466740874127 xtb: 6.6.1 (8d0f1dd)
C            3.25431616396825        1.17521322225747        0.09717568498939
N            2.28620842974006        0.12068957248517        0.06255560173082
C            2.57674801656249       -1.22420247478137        0.11354605706145
N            1.39541735041670       -1.92306989065059       -0.00126686340656
C            0.35349833052514       -1.05390228762887       -0.05637884911789
C            0.89358328109867        0.22573486444098       -0.01095992284180
C            0.06951866150645        1.35818398804593       -0.02452163479799
O            0.44396857571019        2.53118594836613        0.08413740719174
N           -1.34031701660908        1.00619959739132       -0.17126388637248
C           -2.19953653348282        2.15461461838521        0.06909727860386
C           -1.92599915461512       -0.22109724576207       -0.55207916874514
O           -3.02050840940671       -0.36486498997012       -1.05283347637344
N           -1.00006381865395       -1.29889137985626       -0.17871682350173
C           -1.44774391975254       -2.64896864640012        0.10025180084465
H            3.74740312447996        1.22798201639521        1.07430526234164
H            4.02400171230609        1.00996744134448       -0.66317425281550
H            2.74709530711237        2.11830821315451       -0.09170917984274
H            3.56095273905003       -1.63223478587500        0.03310384676916
H           -1.56506192027849        3.03861068256543        0.18264295247934
H           -2.88432392538204        2.30539996130190       -0.75379613771610
H           -2.75183479774794        2.00791516016785        0.99993349141705
H           -0.76101763039707       -3.13245200506215        0.80467508873197
H           -1.49407358483090       -3.25146117914665       -0.81315060018901
H           -2.43486669770224       -2.61107636157409        0.56171813758727
H            1.38485038431882       -2.92875543742228        0.01374208211942
25
 energy: 6.604708414269 xtb: 6.6.1 (8d0f1dd)
C            3.25371230491298        1.17715064449294        0.10121245919449
N            2.28837696197084        0.12098476730946        0.06606743166345
C            2.58145986320566       -1.22586388493968        0.13007950070726
N            1.39808868565355       -1.92451070291747       -0.00191265379232
C            0.35858392060387       -1.05372496902796       -0.06039873432042
C            0.89544992338719        0.22628736021692       -0.01479940837106
C            0.07069185189934        1.35721356667426       -0.02140622451022
O            0.44585897601193        2.53254381804092        0.08672317601501
N           -1.33336596643891        1.00776844661108       -0.17352338246098
C           -2.20177611032004        2.15000779113347        0.06575250301458
C           -1.91631591262905       -0.21976091855979       -0.55737147486731
O           -3.00567825414650       -0.36241178233480       -1.04447483572516
N           -0.99407203635127       -1.30186824398872       -0.19006191406950
C           -1.45424688161016       -2.64513861038115        0.10082999524611
H            3.74489375978174        1.23211612656710        1.07931447128646
H            4.02524986325339        1.01348116571565       -0.65748495020166
H            2.74265058980806        2.11791768789085       -0.08889205706422
H            3.56316216033266       -1.63541259588451        0.01954527086260
H           -1.57469290493019        3.04090098853886        0.17496368337175
H           -2.88911866189344        2.28706096917585       -0.75841917320492
H           -2.75287376459402        1.99966454528485        0.99613672204834
H           -0.75237575158690       -3.14186611209704        0.77824150239535
H           -1.53881747253974       -3.24310672230115       -0.81097970044000
H           -2.42381363576110       -2.59084728308590        0.59360370184074
H            1.38118315991642       -2.92955744996204        0.01428798752899
25
 energy: 6.692387847508 xtb: 6.6.1 (8d0f1dd)
C            3.25500390860069        1.17875956884729        0.10304907426425
N            2.29060996435393        0.12143026017953        0.06897123292403
C            2.58533286208148       -1.22784783878233        0.13949109595377
N            1.39978422649955       -1.92490110049089        0.00132604401754
C            0.36144247404435       -1.05412473137586       -0.05940565558604
C            0.89772352924001        0.22561378766827       -0.01213211255284
C            0.07045359604739        1.35582170186134       -0.01702312850831
O            0.44508365130132        2.53141563772311        0.08800566098703
N           -1.33222387917705        1.00673612228541       -0.17146072809233
C           -2.20207056497259        2.14957650482642        0.06349687407915
C           -1.91616378754809       -0.22032593770959       -0.55667201462671
O           -3.00912712534429       -0.36217874959778       -1.04701110146681
N           -0.99203882958660       -1.30235008770267       -0.19352968418745
C           -1.45655740569476       -2.64421952083277        0.09965603412448
H            3.74755110453501        1.23613503339659        1.08041549858731
H            4.02663613574794        1.01681645999842       -0.65614976152625
H            2.74277284533448        2.11920577685939       -0.08728732810871
H            3.56525148334626       -1.63673588064944        0.00548397449583
H           -1.57767346970955        3.04251957913097        0.16931331459874
H           -2.88890330042106        2.27871508188168       -0.76380178910260
H           -2.75335565046463        2.00247650869311        0.99434805202894
H           -0.74510515565384       -3.15024434763415        0.76492882990886
H           -1.56215417890621       -3.23682105213699       -0.81473514397167
H           -2.42010326734854       -2.58626830868225        0.61131961255490
H            1.38004550163112       -2.93017586558478        0.01643704535227
25
 energy: 6.602775293867 xtb: 6.6.1 (8d0f1dd)
C            3.25773467027841        1.18203164922796        0.10556011509425
N            2.29506356063440        0.12167808029308        0.07577562448923
C            2.59313402845353       -1.23130387927703        0.16022307731957
N            1.40408368290412       -1.92540080394290        0.01107546117729
C            0.36718732842385       -1.05564223641178       -0.05372040123073
C            0.90355617465647        0.22305313618496       -0.00371539277802
C            0.06939291970636        1.35329983110479       -0.00964533093308
O            0.44275915324486        2.52757353683459        0.09070144011378
N           -1.33047493296399        1.00395461494059       -0.16489069635046
C           -2.20186599648085        2.15062297395395        0.05702038727497
C           -1.91737200189311       -0.22270094255193       -0.54747233554546
O           -3.02328764608906       -0.36338799576813       -1.02698977792243
N           -0.98712212592220       -1.30304387830156       -0.19547819072132
C           -1.45934161470593       -2.64371211740886        0.09454837668886
H            3.75491089330474        1.24458862069368        1.08028366627024
H            4.02823328454813        1.02345414608624       -0.65610485649911
H            2.74383832147173        2.12232949551708       -0.08495894565910
H            3.56842702650276       -1.63662772620707       -0.03235457129168
H           -1.58201545611752        3.04661895181346        0.15410053964963
H           -2.88577528596695        2.26201579028064       -0.77840682846401
H           -2.75520149203778        2.01463580089748        0.98878289225153
H           -0.75419331002575       -3.16867835481134        0.74393458412374
H           -1.58903493846851       -3.22364128936430       -0.81812517342026
H           -2.40982588068245       -2.58120985726450        0.61522325923438
H            1.37940430516106       -2.93147894434706        0.02166697327552
25
 energy: 6.402971225047 xtb: 6.6.1 (8d0f1dd)
C            3.25758152597460        1.18278320345533        0.10980680420091
N            2.29537867282876        0.12174316997669        0.08146086217237
C            2.59514720905117       -1.23127532285402        0.17814408247666
N            1.40578603422655       -1.92545606526918        0.01328254397214
C            0.36871080331452       -1.05641851181539       -0.05683665335441
C            0.90539209296798        0.22178268118086       -0.00315033426147
C            0.06896896526907        1.35233216272028       -0.01151811376288
O            0.44207672056255        2.52534195010654        0.09347158786205
N           -1.32955489674251        1.00253642262037       -0.16565459260818
C           -2.20121751990526        2.15042286331400        0.05260872542190
C           -1.91677675651967       -0.22412374040035       -0.54838151519161
O           -3.02598262264634       -0.36411448859194       -1.01723051128869
N           -0.98439245916874       -1.30366857618021       -0.20276865987243
C           -1.46028628199431       -2.64314817749141        0.09159595856272
H            3.75527853452347        1.24644828898676        1.08398978215680
H            4.02795151047750        1.02348532990813       -0.65213854130371
H            2.74393316233066        2.12293862548841       -0.08197561341791
H            3.56628865592327       -1.63249262682163       -0.05176400124317
H           -1.58248510729433        3.04730296425863        0.14532159459079
H           -2.88535726668063        2.25635827508525       -0.78327802113986
H           -2.75384709265606        2.01836727678650        0.98548670814699
H           -0.73987803023549       -3.17598440050387        0.72517934684777
H           -1.61926750206893       -3.21728109784560       -0.82450860207080
H           -2.40227524817368       -2.57721718694271        0.64191414378017
H            1.38104156457216       -2.93163441699946        0.02397691547124
25
 energy: 6.201032669579 xtb: 6.6.1 (8d0f1dd)
C            3.25603656242778        1.18173758257042        0.11174072115613
N            2.29300965191421        0.12150118360904        0.08442972903163
C            2.59362232473912       -1.22959329602993        0.18994101893714
N            1.40539686467406       -1.92529397003921        0.01325384356968
C            0.36718106221763       -1.05689729762165       -0.06013984700887
C            0.90490062085480        0.22096643602605       -0.00489627753366
C            0.06887012220805        1.35263232409399       -0.01676092617114
O            0.44219831896803        2.52382047609937        0.09512964460018
N           -1.33009074559859        1.00191023258678       -0.16764464043513
C           -2.19975619777818        2.15130154347201        0.05011521406671
C           -1.91751804535800       -0.22544943196646       -0.54848521531684
O           -3.02914312421666       -0.36576063221869       -1.00618695536434
N           -0.98395231185545       -1.30369600155305       -0.20510876526429
C           -1.45858696133175       -2.64390984504573        0.08981952369117
H            3.75361241705319        1.24401387050374        1.08572924133531
H            4.02571057066625        1.01937963970073       -0.65034446771834
H            2.74433376214530        2.12236087897453       -0.08094330404789
H            3.55983793802865       -1.62530764397868       -0.06190175255752
H           -1.57864172973142        3.04649803696442        0.14201565835149
H           -2.88480441681442        2.26062253247213       -0.78309654562870
H           -2.75147701070391        2.02088391119959        0.98383542078242
H           -0.73340910599075       -3.17583346112277        0.71932181115873
H           -1.62243003065416       -3.21544345489813       -0.82507701375264
H           -2.39675226778068       -2.58012390645852        0.64664695535578
H            1.38406639985320       -2.93129110516796        0.02564082491034
25
 energy: 5.949284208624 xtb: 6.6.1 (8d0f1dd)
C            3.25392291916484        1.18052314955314        0.11432426009474
N            2.28980386311910        0.12153356590953        0.08908279569833
C            2.59245770637264       -1.22789329178989        0.21032716486663
N            1.40471381083909       -1.92533100893361        0.01486093394512
C            0.36612752312628       -1.05716156227549       -0.06329615671461
C            0.90421045781615        0.22031131926525       -0.00760716135844
C            0.06903016995294        1.35315271137221       -0.02148765485554
O            0.44265136966832        2.52258316170750        0.09634239650200
N           -1.32988788926285        1.00180173310647       -0.17088750781534
C           -2.19827970015811        2.15183493998638        0.04678645806099
C           -1.91727426262710       -0.22696537857355       -0.54837692083970
O           -3.03221406735591       -0.36813302769232       -0.99564135095790
N           -0.98255658363083       -1.30404332876693       -0.20753672461310
C           -1.45615429014397       -2.64464664932767        0.08838024838832
H            3.75127258071124        1.24144027995744        1.08820534363496
H            4.02287026463413        1.01400329757056       -0.64762144737904
H            2.74452170171168        2.12163600606784       -0.07967008396887
H            3.55235973987271       -1.61649210966317       -0.08394882339991
H           -1.57482684390880        3.04566094377969        0.13872079306065
H           -2.88489280489380        2.26545688599279       -0.78327106341566
H           -2.74873081793731        2.02181461445419        0.98128715123312
H           -0.72766303710964       -3.17650768300268        0.70946877174866
H           -1.63031337178509       -3.21447045078482       -0.82455727146914
H           -2.38620913907966       -2.58013933465015        0.65328536588586
H            1.38727536884027       -2.93094018109076        0.02986437981525
25