25
 energy: 0.000000000000 xtb: 6.6.1 (8d0f1dd)
C            3.23720132972391        1.16630909158653        0.08434468864950
N            2.29877796055224        0.07527476373246        0.03981602671198
C            2.58028186251803       -1.21425391179017        0.03006175752192
N            1.43813944744728       -1.93419254010258        0.00098261751768
C            0.39035684826767       -1.05887462812143       -0.00790371763344
C            0.93510047688824        0.21347817468824        0.01709077332874
C            0.09450143016486        1.40504290868848       -0.00410946993748
O            0.49712746915594        2.54126690785742       -0.00342325656480
N           -1.25076628431515        1.06271869620815       -0.03085477937476
C           -2.21907191394203        2.15522079838987       -0.05001256521996
C           -1.81739470187490       -0.20012724136556       -0.04692818139228
O           -2.99983858926755       -0.37846413507442       -0.07008877579474
N           -0.92618577614240       -1.30210203518959       -0.03682761236648
C           -1.46982251276835       -2.64643077634382       -0.06029819901142
H            3.71247229913541        1.21471443890471        1.06488839270555
H            4.00791460421487        1.03430799217987       -0.67357688121503
H            2.69909982127087        2.09770098766290       -0.09130154035862
H            3.56654087521359       -1.63682977417947        0.04233139674524
H           -1.67107945562430        3.09322822573871       -0.02552706696334
H           -2.82428927394145        2.09428605349656       -0.95318074103337
H           -2.87644002486466        2.07745706351925        0.81450059976605
H           -1.17061985538665       -3.19584861009707        0.83242224714061
H           -1.14560246782873       -3.17511580834413       -0.95688266944647
H           -2.55549768731684       -2.55659960601237       -0.07459039105944
H            1.38130842369251       -2.94313824728853       -0.01389874052104
25
 energy: -5.750917018125 xtb: 6.6.1 (8d0f1dd)
C            3.24518476015414        1.17628378965914        0.08272694615106
N            2.30327993822603        0.10616826923780        0.03613751038504
C            2.60169999814269       -1.23782151970436        0.03429662435604
N            1.41624364940187       -1.93453799703366        0.01424182279403
C            0.38553918730123       -1.06041589447271        0.00903338977664
C            0.91420655630110        0.22389133531910        0.02611372485987
C            0.10605070514107        1.37646508735234        0.00768285393054
O            0.49076108678879        2.55119608206214        0.02096585778489
N           -1.28615766361394        1.03758843712740       -0.04852330803850
C           -2.21527884100975        2.15501797544622       -0.03420873477668
C           -1.85620599850854       -0.20223424650612       -0.13661303781229
O           -3.05421658454382       -0.38224503993744       -0.20784328389115
N           -0.96231160543202       -1.29945451549915       -0.04392856580897
C           -1.47039352743906       -2.64974595488548       -0.03411278123672
H            3.72812543710975        1.22385585757153        1.06347975130840
H            4.01396199669917        1.03749705294296       -0.68156063845645
H            2.70519293761583        2.10460480430385       -0.09445186153158
H            3.58220904062918       -1.64876803504054        0.03349807647475
H           -1.64913644961146        3.08457808503676       -0.00025326612624
H           -2.82267139785227        2.12200441208398       -0.93548543867135
H           -2.86728298341386        2.07883805721434        0.83512273259678
H           -1.12149523866759       -3.19927244920924        0.84613147386714
H           -1.17250648208005       -3.18631369738681       -0.93510615314934
H           -2.55453460300861       -2.57267199656023       -0.00631471727110
H            1.37976742457404       -2.93858414134788        0.00410269702620
25
 energy: -3.352516837895 xtb: 6.6.1 (8d0f1dd)
C            3.24934896842074        1.18013269661840        0.07857240171266
N            2.30216436966150        0.11058680586928        0.03782363419013
C            2.60300824652456       -1.23663135164929        0.03846807989625
N            1.41134975164905       -1.93107885518943        0.02543665924912
C            0.36970967552826       -1.06219706582005        0.01622204675675
C            0.90771362726829        0.21882218448289        0.03699333907361
C            0.09570305364595        1.36170240207423        0.01863062572227
O            0.48643750705556        2.53548377200227        0.04447840386963
N           -1.30703517814491        1.02118000753905       -0.06287533744650
C           -2.20986975071728        2.15899714055398       -0.01783930062931
C           -1.89710886598650       -0.20932773136824       -0.22563529036304
O           -3.09171620446580       -0.38081061215857       -0.34545883013040
N           -0.98854572320938       -1.29839315780031       -0.05695829473489
C           -1.47043056020855       -2.65696000649774       -0.01117574455260
H            3.73680250504624        1.23142104341725        1.05793696455764
H            4.01834084566321        1.03876385456000       -0.68754669550253
H            2.71067622025625        2.10876058856612       -0.09968719432838
H            3.58803067405725       -1.64530615946165        0.02158349054478
H           -1.63321702983873        3.08270832183515        0.02435477173066
H           -2.82053165949693        2.14875082202358       -0.91494609697556
H           -2.85551118963856        2.08035239653050        0.85565170033257
H           -1.07329553070853       -3.20383791760109        0.85363452023838
H           -1.20832450375012       -3.19743720622582       -0.91905703761154
H           -2.55162244984518       -2.59080105630442        0.06288154572411
H            1.39468617800573       -2.93582373847939        0.01608302066961
25
 energy: 0.489719785834 xtb: 6.6.1 (8d0f1dd)
C            3.25371255204372        1.18364256291749        0.07459266827606
N            2.29946155406636        0.11681742744443        0.03814917016571
C            2.60367839787958       -1.23242958497107        0.05370332075189
N            1.40895079211690       -1.92799664955006        0.02483201125746
C            0.35699905952868       -1.06565803603405       -0.00265481662898
C            0.90055186752582        0.21205484396693        0.02961047578454
C            0.07922014034281        1.34623642154403        0.01351741215729
O            0.47330446228249        2.51883947757946        0.06548878423186
N           -1.33024215548454        1.00556856137752       -0.08666568680052
C           -2.20585343394234        2.16293086226844       -0.00304375173908
C           -1.93453220764799       -0.21577160865723       -0.31965986957871
O           -3.12428314020758       -0.37945789292579       -0.48181954133902
N           -1.00976563898633       -1.29926263177732       -0.09491474213235
C           -1.46906123348006       -2.66367921232255        0.00720241675903
H            3.74536657650678        1.23656377198497        1.05259089533307
H            4.02415067512505        1.03781607323529       -0.69119089582683
H            2.71852033541915        2.11360271583448       -0.10472335446249
H            3.59367991086462       -1.63607945301493        0.00935910065198
H           -1.61818230972482        3.08063394031277        0.04813061790399
H           -2.82096340086526        2.17701862605450       -0.89437702703388
H           -2.84346478453824        2.08222566995884        0.87571615712526
H           -1.02341699817266       -3.20344663735461        0.85701985383042
H           -1.24636996424804       -3.21382143218430       -0.90391443356300
H           -2.54547325146774       -2.60896369430330        0.13225358238603
H            1.41254209737450       -2.93360101258324        0.02386597350966
25
 energy: 5.326042900758 xtb: 6.6.1 (8d0f1dd)
C            3.25994067030533        1.18681036729286        0.07296101760584
N            2.29598942695920        0.12593581329412        0.04183997471066
C            2.60212104443384       -1.22250960792784        0.06853391130240
N            1.41351887304117       -1.92686145036596        0.01193837787547
C            0.35239257345313       -1.07054430783341       -0.02333003497675
C            0.89529977065308        0.20726166978867        0.01392344579522
C            0.06411887937125        1.33562854782046       -0.01147984038419
O            0.46414163610496        2.50481243955882        0.05791108329702
N           -1.35187590207070        0.99187959726631       -0.11773523426668
C           -2.20312392527527        2.16567704411492        0.00915904097969
C           -1.96589975054503       -0.22306032057730       -0.41147967139173
O           -3.14896656047639       -0.38114174090297       -0.61579902886312
N           -1.01488612726404       -1.30829726768320       -0.11358650513611
C           -1.46354673696106       -2.67217157792117        0.02691851467560
H            3.75502138842180        1.23993713406840        1.04942764101489
H            4.03202582528184        1.03275134936807       -0.69136968222333
H            2.72915985262587        2.11859736831634       -0.10826856534525
H            3.59619270861940       -1.61903060289606        0.00701765316567
H           -1.60394627327020        3.07694888310700        0.07012405300262
H           -2.82489194920357        2.20511991985343       -0.87492462304287
H           -2.83062665046737        2.08117200675382        0.89452784678751
H           -0.97347794021354       -3.20222631239718        0.86152862506674
H           -1.28257454359858       -3.23103104638671       -0.88781457940577
H           -2.53423020803789       -2.62570711829497        0.20060364968373
H            1.43282706129733       -2.93260187493461        0.02684312068972
25
 energy: 11.966831837295 xtb: 6.6.1 (8d0f1dd)
C            3.26362622917268        1.18732249251267        0.07394476420691
N            2.28885910215472        0.13049447315397        0.05286601944866
C            2.59887958554660       -1.21332748055027        0.08158144289658
N            1.41874974592956       -1.92899887657078        0.01499802837890
C            0.34853289186021       -1.07829245047297       -0.03700795241142
C            0.88898197473189        0.20047095288872        0.00155101780967
C            0.05238873044747        1.32847864266024       -0.03259211841246
O            0.46647609258079        2.49086659836768        0.05519332347899
N           -1.37118921520633        0.98497798142262       -0.15375519893519
C           -2.19988346173323        2.17094775454113        0.02049358228742
C           -1.99612670135441       -0.22515991986246       -0.49963298930495
O           -3.16998217781525       -0.38052418331434       -0.74882367694814
N           -1.01744857649872       -1.31761761923991       -0.10892934367901
C           -1.45842179966759       -2.68146233945160        0.04896661383365
H            3.76472779834731        1.24409304883244        1.04715113618515
H            4.03684992470851        1.02582457886159       -0.68820534440725
H            2.73857945765984        2.12193268062151       -0.11073202349033
H            3.59583799229771       -1.60016875975301        0.00503366877836
H           -1.59008251402775        3.07564671695140        0.09274342994549
H           -2.82837146185341        2.23634300872380       -0.85559675076659
H           -2.81700428330112        2.07988955006964        0.91246320473282
H           -0.92582401529964       -3.20534104822646        0.86317038276103
H           -1.31945168805617       -3.24591337046008       -0.87064631989194
H           -2.52192930008886       -2.64350208687207        0.26922979865966
H            1.45433879551492       -2.93394199975010        0.03130586231296
25
 energy: 20.734445500275 xtb: 6.6.1 (8d0f1dd)
C            3.26334378819820        1.18465457843912        0.07951921298047
N            2.27964970686433        0.13104702022783        0.06011287793506
C            2.59499022143088       -1.20601413317022        0.09450894946661
N            1.42182050375085       -1.93235401460480        0.02011556044453
C            0.34241942794487       -1.08541541343810       -0.03195617880933
C            0.88407518791759        0.19300800983729        0.00044481080926
C            0.04089065003280        1.32692002613548       -0.03709771146188
O            0.47406600141058        2.48035400863010        0.06918007727390
N           -1.37609937248294        0.98881143656604       -0.16477355943870
C           -2.19421803950565        2.17951895974460        0.03569315922049
C           -2.02757254097791       -0.21667912071402       -0.58015932559617
O           -3.19054465288487       -0.36788908664217       -0.87600331726282
N           -1.02088069400385       -1.32461578401947       -0.09188386676636
C           -1.45160602358742       -2.68945985598316        0.07232799517263
H            3.77249562811313        1.24618804382291        1.04777762424249
H            4.03733344724608        1.01709340715676       -0.68070458854838
H            2.74668729607175        2.12332473874956       -0.11144579404739
H            3.59240315971276       -1.58416826453990        0.00265528911935
H           -1.57602174465387        3.07790131846923        0.11569683254786
H           -2.82778368564973        2.26275149720272       -0.83530807134112
H           -2.80484393356690        2.08193353965551        0.93110348835395
H           -0.87467930247655       -3.20560675635413        0.86202245621764
H           -1.35215052784341       -3.25676058633807       -0.85157309952804
H           -2.50625431136248       -2.66159303556971        0.33739675091689
H            1.47234897816662       -2.93657350130789        0.04314434971433
25
 energy: 33.165443220195 xtb: 6.6.1 (8d0f1dd)
C            3.26210743103283        1.18134605166242        0.08578861439142
N            2.27205160815057        0.13030162873357        0.06458546874125
C            2.59417938944500       -1.19530110971629        0.10587097531748
N            1.42893754679583       -1.93360142426253        0.02458335929807
C            0.33916253606464       -1.08758576610533       -0.02158518671891
C            0.88506336757082        0.19151189165389        0.00266441152260
C            0.03206331481739        1.33269689553127       -0.03377602552748
O            0.48597412512783        2.47560058528712        0.08453312809944
N           -1.37173819792254        0.99858850057794       -0.17350780622948
C           -2.18745840908040        2.18638419274947        0.05392188845604
C           -2.05120275031264       -0.20285361527445       -0.68506047451664
O           -3.21119761236542       -0.35262697969352       -1.00433290238711
N           -1.01340074995130       -1.33210662016867       -0.06930426834796
C           -1.44245554024531       -2.69531523972215        0.09615115864876
H            3.77785283444757        1.24743383967122        1.05204093715038
H            4.03619528230319        1.00547242800505       -0.67248955698617
H            2.75585111012391        2.12447469713565       -0.11336808210254
H            3.59024430101151       -1.56873918277051       -0.00470432649165
H           -1.56339631185784        3.07976098427677        0.14518133435771
H           -2.82996885017857        2.29291045069250       -0.80979595300588
H           -2.79151737362632        2.07824000105241        0.95249150080801
H           -0.82660362105484       -3.20628507930517        0.85792381389948
H           -1.38645943320605       -3.26238064135211       -0.83292924169029
H           -2.48630473644547       -2.67688171336855        0.40651019475172
H            1.49028669257114       -2.93748927751336        0.05487683918549
25
 energy: 67.515659294452 xtb: 6.6.1 (8d0f1dd)
C            3.25517371482660        1.17453026515748        0.08853208514768
N            2.25981175463193        0.11449739081447        0.06281273913312
C            2.59171516869970       -1.17161619053829        0.08403859565625
N            1.46445712622443       -1.93822487208262        0.03522987561744
C            0.33086316863026       -1.10137562622361        0.00635550931956
C            0.88851356994533        0.18872105273262        0.01362070796633
C            0.01464709652435        1.35570033880539       -0.02422726879897
O            0.51969820238053        2.47190646948182        0.10078556470948
N           -1.33960961681324        1.05008961186144       -0.14100228475388
C           -2.17123518333990        2.20982751103765        0.08008064026062
C           -2.14075365224826       -0.20157319398313       -0.94144838782258
O           -3.31356346325933       -0.29484441784301       -1.10679157290650
N           -0.95840205015440       -1.37616819005913        0.00778581165080
C           -1.41862770174195       -2.71781988509060        0.12863512886379
H            3.76380384498040        1.23533490232013        1.05872076330996
H            4.03289403354778        0.99614981753907       -0.66259784709974
H            2.75977941685010        2.12428642236388       -0.11153131229486
H            3.59354876635630       -1.54413750857812       -0.00784818383519
H           -1.55780139533622        3.10639332630604        0.16704735433833
H           -2.82469126459468        2.31121596725544       -0.78154662653040
H           -2.77764706808128        2.08902832319733        0.97575451973094
H           -0.77686913337623       -3.24652222788329        0.84631950976181
H           -1.41948284271190       -3.25817050291962       -0.81935788887858
H           -2.45351292100903       -2.68909188764230        0.47498181530368
H            1.52255500287986       -2.94168093617562        0.05740357049467
25
 energy: 91.060024564028 xtb: 6.6.1 (8d0f1dd)
C            3.25116808887352        1.17174042055170        0.08747343334714
N            2.25749913097142        0.11126566007234        0.05790649603795
C            2.59459331324077       -1.16457697410825        0.06378404072782
N            1.48806723146198       -1.93836585789202        0.02686388935086
C            0.33706632389104       -1.11014404223990        0.03033762902119
C            0.89019788346015        0.19184067858011        0.02846178040228
C            0.02846941086714        1.38028207966870        0.00102497090533
O            0.56309704033653        2.48558059457661        0.11995243677967
N           -1.30362624398082        1.09129671858848       -0.09482695143215
C           -2.15121490249117        2.22816022349026        0.10359224805158
C           -2.29355514571966       -0.25969374395545       -1.10694035074769
O           -3.44450557102397       -0.22731933841578       -1.22189126429285
N           -0.92698078516350       -1.40137487577638        0.07100633857762
C           -1.40370944147279       -2.73072328519082        0.15383033571884
H            3.75310210445235        1.22908647116672        1.06126981282113
H            4.02839186016492        0.99112784626705       -0.66196043564687
H            2.76370755427431        2.12647298811529       -0.11077031715704
H            3.60154275014090       -1.52473102771127       -0.00781139541057
H           -1.54771940577137        3.12785146316833        0.19410089484809
H           -2.81365018293883        2.32912706689017       -0.75644332640810
H           -2.76502595684327        2.09375454739251        0.99349072345002
H           -0.73916632065474       -3.28456971009559        0.82225558208588
H           -1.45470155777505       -3.25218439200159       -0.80366075338490
H           -2.42332158283463       -2.69800830117534        0.54013657750958
H            1.55077436497964       -2.94215423907307        0.05728655519213
25
 energy: 104.723255749658 xtb: 6.6.1 (8d0f1dd)
C            3.25083441504051        1.16890548279979        0.08459851313065
N            2.26016325451134        0.11003808206465        0.05245330407344
C            2.60137827703884       -1.16232217779967        0.04470636879083
N            1.51064569462950       -1.94239191797047        0.02167231650839
C            0.34532482391697       -1.11618961510703        0.05944220438176
C            0.89611838002702        0.19804725336756        0.04878498361684
C            0.05412046658552        1.40660604810342        0.03959881893458
O            0.60855367104084        2.50578530686736        0.12613933421446
N           -1.26373282681499        1.11980699806557       -0.04686248210770
C           -2.12261342262311        2.23820442762807        0.12903762272179
C           -2.48274397562219       -0.35803542709821       -1.29270708230347
O           -3.60281847437198       -0.15762773515897       -1.33144330985586
N           -0.89047169126119       -1.41803555725424        0.13919542233636
C           -1.38759263511314       -2.73801780555822        0.17883548036055
H            3.74559337742826        1.22375694691917        1.06093303614211
H            4.02621626275749        0.98411446938973       -0.66219549465157
H            2.77026512193877        2.12787952723948       -0.11107084189931
H            3.61020205399171       -1.51759933546178        0.00557917391898
H           -1.53511717920926        3.14535330948822        0.22273511975619
H           -2.80271079769427        2.33414142420515       -0.72564589236697
H           -2.74764496441170        2.09401864019173        1.01154572894704
H           -0.70194265598190       -3.32201353575385        0.79639235917637
H           -1.48755805529924       -3.23094350458361       -0.78852921917523
H           -2.39145977404417       -2.69988649378793        0.60346595816092
H            1.57900400356394       -2.94488519845860        0.05483205648557
25
 energy: 105.910017349750 xtb: 6.6.1 (8d0f1dd)
C            3.25430339342351        1.16571636352024        0.07760701112038
N            2.26790233421094        0.10594413834684        0.04296590899545
C            2.61359581427829       -1.16417594038264        0.02618213820430
N            1.52646191794010       -1.94515833540840        0.02251775450744
C            0.35969356885538       -1.11902258126697        0.08267780213744
C            0.90772767649284        0.19993756194519        0.06609579171353
C            0.07845108396175        1.41786112398874        0.06853406337503
O            0.63851271070208        2.51715907971204        0.12200245434536
N           -1.23247329019487        1.14570080090758       -0.02760711397772
C           -2.10663677814691        2.24787851382187        0.14717318704636
C           -2.63223546115838       -0.41266500645114       -1.40589517733216
O           -3.72029338604436       -0.09037356978505       -1.38987726799396
N           -0.86578179047324       -1.42711719150007        0.18219406597683
C           -1.36766122734927       -2.74476917528245        0.19836745754595
H            3.74056131696477        1.21602359945636        1.05806740731721
H            4.02679267910656        0.98339713528990       -0.67069781685923
H            2.77748734691092        2.12814359334547       -0.11011487836098
H            3.62377787963903       -1.52109508683517       -0.00199776514697
H           -1.53949945106966        3.16854314619707        0.23917129255341
H           -2.79554978151297        2.34159377095281       -0.70027016979448
H           -2.72963415800982        2.09576667696739        1.03084607226319
H           -0.67409275409421       -3.36030985780369        0.77495115565936
H           -1.48689205019726       -3.20006249382671       -0.78083501928840
H           -2.35383670156261       -2.70519903973704        0.65369773479332
H            1.59754843695953       -2.94701930552678        0.04863415098438
25
 energy: 105.505932836154 xtb: 6.6.1 (8d0f1dd)
C            3.26021425160352        1.16533737597425        0.06900926024704
N            2.27946917141606        0.10278987892621        0.03370095691608
C            2.62831994982318       -1.16616197171958        0.01031227446552
N            1.54291725684859       -1.94865123116894        0.02681714749533
C            0.37619734205973       -1.12081309279317        0.10244144052409
C            0.92099020860288        0.20268935872071        0.07914109847301
C            0.10252894573578        1.42789862379469        0.08240056708270
O            0.66493726774485        2.52828387580889        0.11383752134687
N           -1.20575259094292        1.16812844587940       -0.00708989452015
C           -2.09231115907369        2.26151598129676        0.16203773728551
C           -2.76373317186723       -0.44801731240029       -1.50696183244631
O           -3.83472010256920       -0.08980183466791       -1.39864878433376
N           -0.84186534955222       -1.43914693945609        0.21764369497471
C           -1.35252374475172       -2.75350071942342        0.21713715814114
H            3.74410046988047        1.21266429839877        1.04836788322466
H            4.02954221801396        0.98904307171211       -0.68265231360896
H            2.77586531646901        2.12548350549578       -0.10843800472021
H            3.64071388150367       -1.51769967139252       -0.01562440427113
H           -1.54267734781894        3.19223512572415        0.25273127173465
H           -2.78128670087014        2.34223476675934       -0.68208172586331
H           -2.71255305505365        2.09660330049410        1.04665602844899
H           -0.67308009694796       -3.40631136605676        0.76894492350963
H           -1.47509592292299       -3.16787157113744       -0.77940037006475
H           -2.32399729382018       -2.71179859582950        0.70289782582080
H            1.60834626169525       -2.95316363864157        0.03290928118416
25
 energy: 105.300160677385 xtb: 6.6.1 (8d0f1dd)
C            3.26852954307573        1.16702936341611        0.06083097476230
N            2.29213748817054        0.10268972011475        0.02827665465608
C            2.64295336824601       -1.16694101875233       -0.00103139979939
N            1.55672786033681       -1.94846313290775        0.03223613978913
C            0.39196309021791       -1.11963278234207        0.12299723627948
C            0.93364687946457        0.20553556365014        0.09230936863757
C            0.12612737695460        1.43726370010549        0.09392458091943
O            0.69285071931428        2.53672886672119        0.10750378671803
N           -1.18287138502886        1.18971034186950        0.01772808891432
C           -2.08377784557536        2.27404205996452        0.17357260973581
C           -2.90008385922630       -0.47438217615321       -1.59051155832638
O           -3.95941449286593       -0.11212225671008       -1.41358890242473
N           -0.82002373412578       -1.45160382965924        0.25502524534613
C           -1.33070065733702       -2.76640115664246        0.23173692119534
H            3.75155436553471        1.21338980653778        1.03916041195790
H            4.03499412302649        0.99235988696013       -0.69357941685349
H            2.77138148968529        2.12168351134836       -0.11146234967643
H            3.65652146586415       -1.51758627267199       -0.02341617101979
H           -1.55123928331395        3.21573547985759        0.25828347659618
H           -2.76693288430267        2.31783372970057       -0.67814624887741
H           -2.69777763184515        2.09699958426355        1.06006253560921
H           -0.67706212963738       -3.44753172503257        0.78216007927951
H           -1.45058424809887       -3.15359301955475       -0.77790325516209
H           -2.28630428308876       -2.71738728846862        0.73535357168730
H            1.59482315607556       -2.95531760726263        0.02861336327236
25
 energy: 105.580930871448 xtb: 6.6.1 (8d0f1dd)
C            3.27638543573800        1.16749104497805        0.05316930695857
N            2.30295046472824        0.10152279478240        0.02834202815083
C            2.65693589748817       -1.16984951658417       -0.00695088556163
N            1.56784765401239       -1.94911688301568        0.03334115363371
C            0.40423873764731       -1.12054225677771        0.13460798847287
C            0.94313043837431        0.20283392190569        0.10712724752774
C            0.14623453070081        1.44282514810392        0.10386770544071
O            0.71922667962839        2.54037154860466        0.10023851762728
N           -1.16588800511151        1.20996466070597        0.04784043037167
C           -2.07838111175157        2.28799951981950        0.17977835123096
C           -3.01596204222974       -0.51693061923037       -1.59165552428824
O           -4.08804729911572       -0.18739317153850       -1.45628228043660
N           -0.80297142852939       -1.46336001851062        0.30361269262591
C           -1.32329423431515       -2.77535365813964        0.23095084863603
H            3.76286927655155        1.21323511844496        1.02899684404359
H            4.03976325572230        0.99349511853670       -0.70461012808096
H            2.76948352392333        2.11744209644335       -0.11661995919959
H            3.66999613774569       -1.52734753752762       -0.02663455559883
H           -1.56116499956740        3.23948829801506        0.26082904744131
H           -2.75041275047997        2.29684723466812       -0.68039356979114
H           -2.68611811628307        2.10553804657136        1.07104522535481
H           -0.71095650767609       -3.48261503771589        0.79679440806419
H           -1.41728909797710       -3.14184181052777       -0.79806396977372
H           -2.29523037485272       -2.69990650771584        0.69715260589397
H            1.57325932393044       -2.95710853540647        0.02488097324014
25