25
 energy: -42.159396003080 gnorm: 0.018707708685 xtb: 6.6.1 (8d0f1dd)
C            4.42637286026575        0.28163882228641       -0.04317006485284
N            3.72281024820899       -0.73228675123947        0.20806347824133
C            2.78056186500996       -1.57431721790562        0.05404357355666
N            1.43476085324144       -1.46014182846184        0.04959436745057
C            0.45736997522547       -0.45205707600505        0.05209347704175
C            0.65754141208034        0.89211726003061        0.09669840310974
C           -0.45842335596501        1.84456218516583        0.07811706623967
O           -0.30941737734137        3.04255029412885        0.12063050981247
N           -1.71042174718122        1.25484465269180        0.00375570267011
C           -2.88115303414473        2.11409255387651       -0.03107185523867
C           -1.94738633947078       -0.09345971253289       -0.03672291214080
O           -3.06133024768741       -0.54589981937906       -0.09788777226234
N           -0.82567439062575       -0.94399305205200       -0.00625437173035
C           -1.13296577107559       -2.36437934483654       -0.04845237420908
H            5.06852682753146        0.67853329203243        0.73065152708986
H            4.46993709327655        0.72162752986534       -1.03385689719935
H            1.64297439529810        1.32040651074836        0.15230831685665
H            3.11098070232425       -2.61191227950144        0.03121449515096
H           -2.53942631431951        3.14697341331775       -0.02565211038732
H           -3.46307161222472        1.90817759106750       -0.92950665651926
H           -3.51129337229447        1.91901359065434        0.83704769195506
H           -0.80394777853435       -2.87553888053587        0.85901945088772
H           -0.72991169825666       -2.83877719138439       -0.94572981750667
H           -2.22133717311390       -2.44249085045581       -0.09439754017895
H            0.98435549387331       -2.37104514997555        0.05063593006309
25
 energy: -42.161856433930 gnorm: 0.013996248463 xtb: 6.6.1 (8d0f1dd)
C            4.39691799938324        0.31706021279599       -0.03962424638939
N            3.65300395598512       -0.65848248183962        0.24715125676845
C            2.76186244600957       -1.54768407527975        0.05527524400562
N            1.41910191537716       -1.47654007771083        0.04134223241137
C            0.44826537641259       -0.47180907602557        0.04883049633740
C            0.66986223101344        0.86659024050967        0.09681863986313
C           -0.43063128375775        1.82452692645787        0.07933677846935
O           -0.27120698017565        3.02158984707113        0.12103584962334
N           -1.69343523836730        1.25038035921092        0.00504902286556
C           -2.86121764921908        2.11599081304760       -0.02923785594621
C           -1.94786958409381       -0.09487935399551       -0.03620706706128
O           -3.06658527487411       -0.53571093943940       -0.09629438436383
N           -0.83567526526207       -0.95487838177108       -0.00856529524870
C           -1.14592909387749       -2.37357545458627       -0.05035090630615
H            5.07263018397654        0.69643501257327        0.71607234668223
H            4.46788235076198        0.71641373770901       -1.04699967666354
H            1.65855971862079        1.28705973396410        0.15168354616187
H            3.13367424348941       -2.57293904233468        0.03824941457047
H           -2.52006412926840        3.14866550512473       -0.02378292322987
H           -3.44598973840610        1.91168725489019       -0.92660900481683
H           -3.49377089223817        1.92194969341033        0.83771319927105
H           -0.81515038983904       -2.88366128109548        0.85713545558561
H           -0.74252205631662       -2.84718553479488       -0.94786437492707
H           -2.23424603995941       -2.44895580677543       -0.09518033637314
H            0.98296470872532       -2.39380928951610        0.03619420661056
25
 energy: -42.160444918495 gnorm: 0.050505333493 xtb: 6.6.1 (8d0f1dd)
C            4.43504411578114        0.29704113671514       -0.07153298905641
N            3.53738743867805       -0.53830758457879        0.32006035785946
C            2.73060420067512       -1.50472788880634        0.05522247683548
N            1.39298944112714       -1.51174723299320        0.02983304362127
C            0.43443834078058       -0.50976499134499        0.04759123159169
C            0.69664566213728        0.81948373763828        0.09885570565886
C           -0.37590742726755        1.78836527895528        0.08137266870523
O           -0.20107480030517        2.98485641346865        0.11983305792575
N           -1.65906937646183        1.24294366195912        0.00768246500109
C           -2.81899086470964        2.12176380779531       -0.02624920911393
C           -1.94689875156574       -0.09637076973624       -0.03406577341323
O           -3.07422616940238       -0.51591883872185       -0.09240249035055
N           -0.85242059968661       -0.97414402542442       -0.00984823734904
C           -1.17130118186653       -2.38935228220631       -0.05214962101610
H            4.97518779748207        0.81538972828003        0.72550533066725
H            4.41644630748450        0.72833397198417       -1.06672092863252
H            1.69116332697589        1.22464053082920        0.15206932120266
H            3.17460509379653       -2.50678654860058        0.03179129669884
H           -2.47488135686305        3.15270244055138       -0.02086872379588
H           -3.40786862124850        1.92021566686201       -0.92239004533612
H           -3.45535983525633        1.93005211929658        0.83914470573221
H           -0.83853794926224       -2.89937064882569        0.85460358528936
H           -0.76929563818449       -2.86283063265168       -0.95031571131291
H           -2.25959460805895       -2.45827233727175       -0.09515699143969
H            0.98134696932084       -2.43995617157305        0.00930709192727
25
 energy: -42.164652108278 gnorm: 0.017830389857 xtb: 6.6.1 (8d0f1dd)
C            4.33235624150910        0.38149470895111       -0.04202070182850
N            3.52985168511814       -0.52445558313846        0.28849496509914
C            2.73155804984275       -1.50373130867168        0.05309284182993
N            1.39366873859442       -1.52681794417502        0.03785105657838
C            0.43449516820098       -0.52309600951197        0.05226153309274
C            0.70400788410711        0.80621395677860        0.09908623046284
C           -0.36343344249429        1.78065938541228        0.07984613666417
O           -0.18643346411461        2.97741385632078        0.11601665136656
N           -1.64986068126288        1.24087899660302        0.00746576092161
C           -2.80402822865698        2.12567764628855       -0.02691988970718
C           -1.94518821351450       -0.09706680923028       -0.03278270999807
O           -3.07440302548045       -0.51136176156345       -0.09073514619930
N           -0.85483645060861       -0.98041189827560       -0.00663709381290
C           -1.18065630935197       -2.39419580345302       -0.04981832500827
H            4.94713748411660        0.82056487564823        0.72960594846277
H            4.45609547470486        0.71481539319917       -1.07287749958201
H            1.70010960713380        1.20596105748295        0.15289717504716
H            3.18997036442216       -2.49838691727396        0.01124801921979
H           -2.45324158058212        3.15437989135793       -0.02203927658926
H           -3.39281924296061        1.92540787191277       -0.92341378804162
H           -3.44030261052981        1.93642994077189        0.83911444758166
H           -0.84946338727824       -2.90622814713044        0.85618566591544
H           -0.78162425427020       -2.86958846593939       -0.94831934402918
H           -2.26921414381010       -2.45915376844301       -0.09269475804468
H            0.98668585126553       -2.45716462232068        0.01626371849881
25
 energy: -42.165393824794 gnorm: 0.017677013384 xtb: 6.6.1 (8d0f1dd)
C            4.30952631197330        0.40434751558470       -0.04425295521966
N            3.50540260681069       -0.50069995205488        0.28014861837854
C            2.73020309027921       -1.49647776443303        0.04455809434387
N            1.39356413995752       -1.54438594411810        0.03936464797176
C            0.43181350712148       -0.54114861998063        0.05528371079500
C            0.70945885213634        0.78692999937172        0.10135240880380
C           -0.35022512753985        1.76952233677848        0.08041142986689
O           -0.16777272896831        2.96544585226927        0.11437624540483
N           -1.63945599455630        1.23687396948522        0.00860238432646
C           -2.78402097347816        2.13234881504061       -0.02685755790797
C           -1.94426850107559       -0.09897202165766       -0.03039207369456
O           -3.07585305442315       -0.50573765015997       -0.08858205873605
N           -0.85962428769120       -0.99046231778341       -0.00390988045663
C           -1.19449814501836       -2.40241317614164       -0.04849261222004
H            4.87855055660163        0.88440005932493        0.74561448767668
H            4.46740001145584        0.71262422750205       -1.07995909135446
H            1.70781129895521        1.17908783804132        0.15657239378506
H            3.20960643536256       -2.47900448782027        0.00048187601408
H           -2.42081131665607        3.15695538734439       -0.02181731002870
H           -3.37273621223765        1.93747753050746       -0.92435105047832
H           -3.42138056669137        1.94916658712691        0.83946154442522
H           -0.86537507505276       -2.91831567592765        0.85593821467054
H           -0.79972563055009       -2.87946422829510       -0.94800148527375
H           -2.28359942982794       -2.46098290778385       -0.09031732234870
H            0.99644174721302       -2.47887683062051        0.01593895915614
25
 energy: -42.166319902860 gnorm: 0.013791240573 xtb: 6.6.1 (8d0f1dd)
C            4.27728397109274        0.44295871048620       -0.04613139118702
N            3.46513337456205       -0.46513348344201        0.25729207079403
C            2.73246954912252       -1.48704028491457        0.03109040913401
N            1.39757276188123       -1.57744981981625        0.04693147276679
C            0.42671889974319       -0.57412100642275        0.05905734202702
C            0.71250783860449        0.75293764073120        0.10519819303625
C           -0.33578260977521        1.75154360070053        0.08089328649261
O           -0.14157874716539        2.94499626656018        0.11080147522282
N           -1.62597671733712        1.22844340016101        0.00955051868461
C           -2.74977776097649        2.14675358557485       -0.02890095196351
C           -1.94389152855684       -0.10370286681024       -0.02717628297235
O           -3.07880697623852       -0.49830507637420       -0.08488910992104
N           -0.86772879157472       -1.00981440932499        0.00024318108660
C           -1.22005161106323       -2.41813189294879       -0.04501298920853
H            4.77909029674216        0.98284082710191        0.75992780360408
H            4.47309743755968        0.72972837269831       -1.07202964274881
H            1.71444595559651        1.13119500867054        0.16529397397725
H            3.24864932996591       -2.44454611563801       -0.02351130672326
H           -2.35717388423905        3.16161983559413       -0.02320533198918
H           -3.33810935578885        1.96682694048826       -0.92904402214304
H           -3.39045839711579        1.98000961790810        0.83764862226741
H           -0.89284094451790       -2.94062576047659        0.85587652276169
H           -0.83315190245967       -2.89891953594007       -0.94573959941986
H           -2.31027559883019       -2.46483723939354       -0.08336744469567
H            1.01906692486842       -2.51898777357273        0.02037481901720
25
 energy: -42.166568292423 gnorm: 0.011151636322 xtb: 6.6.1 (8d0f1dd)
C            4.24998761207291        0.48092059856257       -0.04283198259766
N            3.41929545073724       -0.41841942144830        0.25176741231975
C            2.72718922052219       -1.47253082054240        0.02585242060844
N            1.39359847696710       -1.60053793141050        0.05170204496957
C            0.41990103790516       -0.59831709642776        0.06151905174195
C            0.71619871255382        0.72641055732353        0.10940009808599
C           -0.32133787053234        1.73426356606716        0.08210580994626
O           -0.11448666608716        2.92571702584427        0.10996070780371
N           -1.61549163001348        1.22178986620263        0.01046111151748
C           -2.72686935416948        2.15540389784423       -0.02996802953996
C           -1.94530078993281       -0.10755070164157       -0.02539075974615
O           -3.08355267423199       -0.49242072397210       -0.08228921768252
N           -0.87606255574725       -1.02431767261390        0.00201811669349
C           -1.23848505858519       -2.42976484131268       -0.04301817174756
H            4.72144732153687        1.03935356007795        0.76393382721192
H            4.50373772793314        0.72823367651718       -1.07611477849701
H            1.72071019546239        1.09556489961511        0.17210924898408
H            3.27916611834473       -2.41208307588756       -0.04462228395176
H           -2.31770431785270        3.16402561525142       -0.02362981961048
H           -3.31625894519695        1.98645411084036       -0.93136084118461
H           -3.37137307285752        2.00033309470784        0.83572824421346
H           -0.91007551765026       -2.95442418293219        0.85586995975660
H           -0.85513845464560       -2.91216857971527       -0.94417071805944
H           -2.32898536830284       -2.46997307397223       -0.07832868297784
H            1.03032191586991       -2.54772380537731        0.02046884964240
25
 energy: -42.166762194518 gnorm: 0.008820094549 xtb: 6.6.1 (8d0f1dd)
C            4.25275905118033        0.48073874007460       -0.04167733539220
N            3.41786158892824       -0.42241147997494        0.23118492747036
C            2.72976215073279       -1.47270103433627        0.02011178275949
N            1.39730531615636       -1.60034898847612        0.05615718135610
C            0.42000953922741       -0.60018526905474        0.06360517851868
C            0.71218463906718        0.72460444214708        0.11280455011048
C           -0.32550333341989        1.73212649353533        0.08289679902979
O           -0.11297423539925        2.92222522972225        0.11018938962184
N           -1.61776830007617        1.21986220596597        0.00990483001319
C           -2.72577301796740        2.15736965952049       -0.03301463795229
C           -1.94557249950719       -0.10940551222824       -0.02499913881762
O           -3.08343512131707       -0.49453643047911       -0.08194341694829
N           -0.87549168652318       -1.02677194364983        0.00333874004682
C           -1.24012648175496       -2.43144786786908       -0.04045766102813
H            4.71401542709974        1.03464921781145        0.76146946167333
H            4.50823834813991        0.74145874781661       -1.06117446574017
H            1.71548726647008        1.09462398267705        0.17723420266120
H            3.27954343240816       -2.40800087479537       -0.05364373832190
H           -2.31105944401524        3.16329216537306       -0.02645728859068
H           -3.31466138267233        1.99354790602868       -0.93535045733330
H           -3.37273381409114        2.00862641472448        0.83162013366636
H           -0.91025827991823       -2.95592005974713        0.85789798841171
H           -0.85767466152486       -2.91469676444819       -0.94137776728422
H           -2.33046149880672       -2.47105191199271       -0.07393708481979
H            1.03675851168334       -2.54740852674480        0.02678944478931
