25
 energy: 0.000000000000 xtb: 6.6.1 (8d0f1dd)
C            3.23720132972391        1.16630909158653        0.08434468864950
N            2.29877796055224        0.07527476373246        0.03981602671198
C            2.58028186251803       -1.21425391179017        0.03006175752192
N            1.43813944744728       -1.93419254010258        0.00098261751768
C            0.39035684826767       -1.05887462812143       -0.00790371763344
C            0.93510047688824        0.21347817468824        0.01709077332874
C            0.09450143016486        1.40504290868848       -0.00410946993748
O            0.49712746915594        2.54126690785742       -0.00342325656480
N           -1.25076628431515        1.06271869620815       -0.03085477937476
C           -2.21907191394203        2.15522079838987       -0.05001256521996
C           -1.81739470187490       -0.20012724136556       -0.04692818139228
O           -2.99983858926755       -0.37846413507442       -0.07008877579474
N           -0.92618577614240       -1.30210203518959       -0.03682761236648
C           -1.46982251276835       -2.64643077634382       -0.06029819901142
H            3.71247229913541        1.21471443890471        1.06488839270555
H            4.00791460421487        1.03430799217987       -0.67357688121503
H            2.69909982127087        2.09770098766290       -0.09130154035862
H            3.56654087521359       -1.63682977417947        0.04233139674524
H           -1.67107945562430        3.09322822573871       -0.02552706696334
H           -2.82428927394145        2.09428605349656       -0.95318074103337
H           -2.87644002486466        2.07745706351925        0.81450059976605
H           -1.17061985538665       -3.19584861009707        0.83242224714061
H           -1.14560246782873       -3.17511580834413       -0.95688266944647
H           -2.55549768731684       -2.55659960601237       -0.07459039105944
H            1.38130842369251       -2.94313824728853       -0.01389874052104
25
 energy: -6.126608814768 xtb: 6.6.1 (8d0f1dd)
C            3.23138759188813        1.22690304072942        0.10948162455125
N            2.33101402766618        0.10465502103887        0.01722486124121
C            2.61302295411837       -1.25548984571682        0.01976485060458
N            1.42051701941461       -1.95233198054110       -0.01337555189170
C            0.40336121955236       -1.07251548111254       -0.02218573836988
C            0.93563170417163        0.21019791907791       -0.00476592294857
C            0.12781099178013        1.36670340693236       -0.01556202279714
O            0.51222390830874        2.53972672753523       -0.02652156404813
N           -1.26070356170210        1.03782767052256       -0.03295184876382
C           -2.20463720317951        2.14282893855837       -0.05248171503263
C           -1.81803011741538       -0.20438978090637       -0.04584216236851
O           -3.01897585664332       -0.38584506248248       -0.06512490999842
N           -0.94084203432891       -1.30784895656397       -0.03841534357866
C           -1.49123283341409       -2.64349180571311       -0.05265082685309
H            3.71222605624479        1.29814161195933        1.09039984338294
H            4.01886917941834        1.15277900137648       -0.64817711040609
H            2.65148449231423        2.13563616809411       -0.05530526800701
H            3.57737422616002       -1.70223017989402        0.01992490771740
H           -1.64176345345330        3.07338624456970       -0.02984887716608
H           -2.81056996624658        2.09324172083721       -0.95651901163636
H           -2.85666144907656        2.08247138596795        0.81673144804359
H           -1.19072296829861       -3.19892938034389        0.83919661466158
H           -1.18094242764970       -3.18563566727857       -0.94875111654324
H           -2.57688629020037       -2.53755724974889       -0.05807937926615
H            1.34563545686178       -2.95673606572058       -0.02118904922501
25
 energy: -4.198894408789 xtb: 6.6.1 (8d0f1dd)
C            3.21170431111687        1.27641830920511        0.13714590848903
N            2.35897924380382        0.09924895534822       -0.00564269709196
C            2.62580595213434       -1.27628940089849       -0.00141915760885
N            1.42300066709953       -1.96979180003567       -0.03798037728226
C            0.40913301197088       -1.08785060889812       -0.03627627876033
C            0.95347847994588        0.19069133038394       -0.02156732387039
C            0.14048895143817        1.34349807649906       -0.02972299755239
O            0.52560814653324        2.51490520733054       -0.05619314929143
N           -1.25160200509377        1.02311013801092       -0.03731560751251
C           -2.18665078732751        2.13593194632144       -0.05511880633574
C           -1.81588053193955       -0.21521591931922       -0.04286240984665
O           -3.01843078830068       -0.39142258900924       -0.05010520329035
N           -0.94061392482105       -1.31904567398039       -0.03947031438416
C           -1.51048094328320       -2.64709358057689       -0.04348384913452
H            3.68836271048468        1.37418941366572        1.11897615615680
H            4.01626604518350        1.26793048528792       -0.61440831534340
H            2.58811644982674        2.15625332620970       -0.02150752760999
H            3.57689192614520       -1.75554225514243       -0.01240787063882
H           -1.61519682298186        3.06052083273492       -0.03469160070850
H           -2.79518628091571        2.09336708633849       -0.95742128430555
H           -2.83266294139859        2.08752228346949        0.81799940703436
H           -1.21373995449261       -3.20542572965945        0.84756192034450
H           -1.21990099650469       -3.19898192319040       -0.93970018146988
H           -2.59598922347346       -2.52351116777071       -0.03842383231122
H            1.32461106423893       -2.97364911193516       -0.04226749429010
25
 energy: -0.713549945551 xtb: 6.6.1 (8d0f1dd)
C            3.19299613452269        1.32577739041676        0.16734940858528
N            2.38772188470471        0.09451223577729       -0.02616306353496
C            2.63997099006391       -1.29598690090094       -0.02700050256235
N            1.42949229668792       -1.98801169849580       -0.06607937490594
C            0.41765423275126       -1.10431229547483       -0.05038085326176
C            0.97242192575229        0.17164872176664       -0.03663563849572
C            0.15415742994907        1.32043559871656       -0.04438636857066
O            0.53613444630638        2.49139842104475       -0.08883046749302
N           -1.24097951874649        1.00871895928241       -0.04232641371594
C           -2.16767573755507        2.12994669025973       -0.05873543600846
C           -1.80942386240373       -0.22618069711013       -0.03916124036009
O           -3.01263796084203       -0.39829018912681       -0.03317474964445
N           -0.93663044372444       -1.33197354590999       -0.04069928573242
C           -1.52822322958465       -2.65106181083961       -0.03359381052521
H            3.65597453064818        1.44635830670754        1.15247877719047
H            4.00859770204657        1.38114229101366       -0.57763766551767
H            2.52676825266687        2.17478647429430        0.01418079813043
H            3.57707008937859       -1.80554663804493       -0.05027755304475
H           -1.58814308470631        3.04886886427937       -0.04091224754501
H           -2.77924619947756        2.09460889358947       -0.95909434511204
H           -2.80824769463981        2.09403215050933        0.81797273808735
H           -1.23573568833086       -3.21160230047381        0.85720154782578
H           -1.25818080865561       -3.21240898642233       -0.93009352215828
H           -2.61292523562120       -2.50767216140926       -0.01763113218752
H            1.31372416828859       -2.99253252594094       -0.07349594872447
25
 energy: 4.401639849369 xtb: 6.6.1 (8d0f1dd)
C            3.17702679209784        1.37584003630611        0.19883988480504
N            2.41490507489106        0.08815980606347       -0.04560023579566
C            2.65381460109443       -1.31579204159924       -0.05425132243522
N            1.43733517595810       -2.00626611230342       -0.09289857299536
C            0.42655031800051       -1.12144258691327       -0.06355541911258
C            0.99138787000001        0.15247776323001       -0.04928002257287
C            0.16813196769609        1.29765402240136       -0.05988753007286
O            0.54424829119856        2.46852618784375       -0.12200059148193
N           -1.22878727909457        0.99492078565654       -0.04851509368971
C           -2.14755934955177        2.12470604795851       -0.06283422415581
C           -1.80147088810100       -0.23639608175314       -0.03610187524222
O           -3.00509848575117       -0.40279365912011       -0.01667723337139
N           -0.93195502614073       -1.34534231203111       -0.04250333757643
C           -1.54551399452077       -2.65531128341323       -0.02382219196653
H            3.62532006156359        1.51625855585312        1.18763807224187
H            3.99822500369837        1.49449130561918       -0.53897801523796
H            2.46873984470517        2.19181167532306        0.05305214730157
H            3.57569454864642       -1.85424357107687       -0.09266125363822
H           -1.56019759798289        3.03806982705897       -0.04641348702409
H           -2.76134569910592        2.09672413048963       -0.96172850590893
H           -2.78356011920030        2.09929441442941        0.81670270771265
H           -1.25713182759830       -3.21794496694770        0.86664513056370
H           -1.29672303384538       -3.22564360385483       -0.92063627840952
H           -2.62886359405860       -2.49228135699123        0.00356013813550
H            1.31101762187043       -3.01164472091335       -0.10657831045139
25
 energy: 10.982085646939 xtb: 6.6.1 (8d0f1dd)
C            3.16536158538799        1.42460897294793        0.23463963674482
N            2.42698016870585        0.07960605182840       -0.07045075776531
C            2.66338686032817       -1.33471841510779       -0.08513925757333
N            1.44493895800541       -2.02474702625608       -0.12008141698427
C            0.43319331090444       -1.14020620303574       -0.07767929716572
C            1.00435393423379        0.13288461447062       -0.06131277566451
C            0.18008635118348        1.27663616061153       -0.07741100525285
O            0.55299335773291        2.44688805950115       -0.15653788285696
N           -1.21712398590837        0.98272427496536       -0.05556324150499
C           -2.12827140118364        2.12041356068159       -0.06803392242532
C           -1.79332267505538       -0.24550388239117       -0.03299699898058
O           -2.99721803106996       -0.40465096684063        0.00127682078175
N           -0.92827095478715       -1.35905594589456       -0.04529802164421
C           -1.56245981503983       -2.65984519325857       -0.01302615039365
H            3.59664594391568        1.58627069806068        1.22635286994492
H            3.98876004810636        1.59781918075830       -0.49377402073394
H            2.41737067863315        2.20769202011208        0.09251016085473
H            3.57087393245412       -1.89854038495455       -0.13966292992477
H           -1.53355667603844        3.02870923575695       -0.05299800355403
H           -2.74342762118344        2.09752777971117       -0.96583025148061
H           -2.76024463180324        2.10463256632163        0.81382938322676
H           -1.27562426210784       -3.22332703079830        0.87707893232978
H           -1.33514513941034       -3.23903102678207       -0.90981453365428
H           -2.64395265283164       -2.47904522793428        0.02744078128886
H            1.31390019527847       -3.03079821250155       -0.14389971296252
25
 energy: 20.055075877919 xtb: 6.6.1 (8d0f1dd)
C            3.16360653938126        1.48694572593305        0.27597536368615
N            2.43650526282474        0.06745679619083       -0.11008712193310
C            2.66182574550758       -1.34738871344199       -0.10073592733942
N            1.45034097338248       -2.04497111115647       -0.13472432123400
C            0.43673479097412       -1.16083234751479       -0.08578182396151
C            1.01578776235161        0.11182179711493       -0.07073234810050
C            0.19488953777455        1.25809607474337       -0.09688650862216
O            0.56855593836762        2.42623824638634       -0.19641119034727
N           -1.20272943179256        0.97234145273791       -0.06335848531520
C           -2.10705792590421        2.11738838828063       -0.07282814359923
C           -1.78382780909128       -0.25282192382798       -0.02977297271744
O           -2.98822036491848       -0.40109982771941        0.01721872671771
N           -0.92652965538067       -1.37304674248315       -0.04595622348855
C           -1.58029814773141       -2.66402336006741       -0.00221110912100
H            3.56595015565096        1.65571533273777        1.27279717398709
H            3.97873132083056        1.70332635887247       -0.44504157028476
H            2.37408214521320        2.23347385365182        0.13346337154728
H            3.55688270285447       -1.93386606746192       -0.18947450970735
H           -1.50490727281547        3.02072531504109       -0.06083115235879
H           -2.72611324715705        2.09973486820876       -0.96779963968504
H           -2.73290679266076        2.11054368884170        0.81267299911859
H           -1.29566509663385       -3.23003394697664        0.88670228511909
H           -1.37424993143453       -3.25070407267626       -0.89951735999983
H           -2.65942916363365       -2.46588559344913        0.05094616835666
H            1.33069177538284       -3.05184663426679       -0.17551290056579
25
 energy: 36.533553367367 xtb: 6.6.1 (8d0f1dd)
C            3.23919645879854        1.69401531632395        0.36454518162935
N            2.40806841122267       -0.05769259555869       -0.20570697851854
C            2.61517435232990       -1.38654422422545       -0.15175838782815
N            1.42616598771571       -2.09680888513005       -0.11014544388903
C            0.41807160276311       -1.19544438550000       -0.08482855623595
C            1.02254899933906        0.06195768641073       -0.09752739852306
C            0.20769659925030        1.23815846809405       -0.12610709267053
O            0.57208326234006        2.39424930737518       -0.24551228788710
N           -1.18479961605764        0.96019216057614       -0.07327419959998
C           -2.08704808999473        2.11061004774297       -0.07643455649696
C           -1.78021514029513       -0.26409679366694       -0.02840313711763
O           -2.98444527586315       -0.39265544368946        0.02980641233279
N           -0.93833649014490       -1.39056778094244       -0.04325909662186
C           -1.60600825329477       -2.67152424478609        0.00921662125723
H            3.57111442808133        1.77096384986806        1.36650321861380
H            3.99410593797707        1.84008910471778       -0.39803138959361
H            2.35143603393803        2.26754121185245        0.18460363763902
H            3.52195673356444       -1.96445877966716       -0.23933728240188
H           -1.48108851003843        3.01056861183967       -0.06542127281399
H           -2.71072466804785        2.09692276993524       -0.96799574039126
H           -2.70542783158172        2.10829707294337        0.81352069736017
H           -1.32024680572739       -3.23677184138559        0.89724506119082
H           -1.41428834252169       -3.26154228132076       -0.88927850216798
H           -2.68000557802522       -2.45181533392657        0.07229099438631
H            1.33450004044901       -3.09874440531569       -0.18151849556775
25
 energy: 37.021433155405 xtb: 6.6.1 (8d0f1dd)
C            3.27413802242805        1.80996581112622        0.42721010763009
N            2.39667309567423       -0.11329673328139       -0.23290333907342
C            2.59165391401824       -1.41607783727857       -0.18544343029811
N            1.41198028065327       -2.13298363377059       -0.10922469703289
C            0.40736635290974       -1.21980969475730       -0.08429718130997
C            1.02401744953043        0.03066994670727       -0.11691945170746
C            0.21864285573418        1.22262149385337       -0.15208750770745
O            0.58378294201874        2.37027338793252       -0.29407934300943
N           -1.17044156716344        0.95125690046121       -0.08194707292097
C           -2.06833528882052        2.10680297790918       -0.08148885919668
C           -1.77601960351135       -0.27108887082414       -0.02540763699832
O           -2.98065812691147       -0.38287562499104        0.04582900749227
N           -0.94661632772300       -1.40472505367963       -0.04194913086397
C           -1.62774703119618       -2.67671674937998        0.02001377363682
H            3.58337026990054        1.82898134718947        1.43731732030243
H            3.98706671245977        1.95250300110942       -0.35658236209732
H            2.34801733617424        2.30249324194129        0.25145432591836
H            3.50811337633782       -1.96970264319962       -0.30435516711784
H           -1.45707591774562        3.00260806817285       -0.07355923627770
H           -2.69520216748395        2.09590244573780       -0.97036883974895
H           -2.67993877481766        2.11077107407128        0.81232984761925
H           -1.34124584127737       -3.24349734903162        0.90640300947771
H           -1.45441432895917       -3.27128154903250       -0.87960559271517
H           -2.69717665345024       -2.43863603267339        0.09658405085960
H            1.33012241253025       -3.13663437626888       -0.15822625433068
25
 energy: 36.795145152287 xtb: 6.6.1 (8d0f1dd)
C            3.30332774480058        1.90421483451485        0.47638579973903
N            2.38795254118959       -0.15260025017446       -0.25746547186288
C            2.57333138517405       -1.44474523946708       -0.21569346814954
N            1.39847752217025       -2.16532645004216       -0.11574834682402
C            0.39807483819113       -1.24278587988070       -0.08852853691349
C            1.02304788830724        0.00404345583837       -0.13657001545399
C            0.22753853928659        1.20600743838193       -0.17751092713147
O            0.59963932905356        2.34718050921143       -0.33857852946053
N           -1.15817177790073        0.94254926127004       -0.09065142282761
C           -2.04970282079941        2.10311245225557       -0.08619340902958
C           -1.77274184683575       -0.27705594604065       -0.02273799652073
O           -2.97791742529104       -0.37287181665199        0.06149217677473
N           -0.95596787468349       -1.41800319713712       -0.04069575325063
C           -1.64913026788718       -2.68201182683534        0.03124260680466
H            3.60449042884776        1.90652397774176        1.48957768472201
H            3.99472950776114        2.05574677490072       -0.30970231620077
H            2.36391661770717        2.35787655496915        0.29146804367461
H            3.50145613640180       -1.95912585544963       -0.36520991544862
H           -1.43141326991730        2.99343871019838       -0.08155266851850
H           -2.67893634605065        2.09530092980199       -0.97275562625011
H           -2.65431463921846        2.11278424415793        0.81182785080435
H           -1.36185267747518       -3.25164824402953        0.91523104210346
H           -1.49497692401059       -3.28041011920228       -0.86966475775968
H           -2.71376128487629       -2.42799083377856        0.12287859347439
H            1.31853716945456       -3.17103464375138       -0.14235863560257
25
 energy: 36.709466633374 xtb: 6.6.1 (8d0f1dd)
C            3.33688554062305        1.99450985705373        0.50628800759039
N            2.38030356926435       -0.19321928160879       -0.27642190120034
C            2.55467084474566       -1.48007262623766       -0.24006580374563
N            1.38015229958695       -2.19690701805970       -0.12708733018764
C            0.38705403042821       -1.26419115512931       -0.09473513605991
C            1.02104541731493       -0.02153203922640       -0.15329151587367
C            0.23254385078806        1.18928191607517       -0.20338109406067
O            0.61442461176002        2.32409588797974       -0.38141047029446
N           -1.14854981227521        0.93294246092275       -0.09836474742231
C           -2.03176712660935        2.09981298078772       -0.09057425632723
C           -1.77193852516086       -0.28326603817719       -0.01816849571014
O           -2.97713596136402       -0.36421609191469        0.07925609340479
N           -0.96692551813906       -1.43096241387906       -0.03959266929077
C           -1.67017217833861       -2.68817208171518        0.04193752193290
H            3.63300271641382        1.99263701348963        1.52201273446758
H            4.02618399068573        2.16703019166458       -0.26598866301132
H            2.39112681931477        2.41603742850381        0.29107100801569
H            3.48557279900425       -1.96747606823280       -0.42790221625654
H           -1.40574128749252        2.98419429525671       -0.08948715051503
H           -2.66305329592018        2.09655449037057       -0.97482806073138
H           -2.62948612208023        2.11572375799589        0.81151053813561
H           -1.38135069780393       -3.26225907148018        0.92238370061207
H           -1.53425397179326       -3.28840994879454       -0.86061119450396
H           -2.72994508129015       -2.41935577736395        0.14935358967576
H            1.29383160264630       -3.20335822380786       -0.13957480797582
25
 energy: 37.066993596712 xtb: 6.6.1 (8d0f1dd)
C            3.36910247310439        2.07872215233250        0.52425016537872
N            2.37475353208161       -0.23445835264047       -0.28991845248684
C            2.53459911272275       -1.51965366424263       -0.25676883202919
N            1.35801364305100       -2.22816160692642       -0.14045709837264
C            0.37483641742116       -1.28486986450083       -0.10141859380864
C            1.01968032272000       -0.04738860577909       -0.16792041398267
C            0.23918778355137        1.17095377055823       -0.22834154562542
O            0.63024860728303        2.29990533007486       -0.42247085354050
N           -1.13870179238238        0.92348801074391       -0.10588938590639
C           -2.01337394008597        2.09748786659084       -0.09475430672703
C           -1.77144421895220       -0.28862130839601       -0.01224983524477
O           -2.97656732755744       -0.35383268029719        0.09480910723578
N           -0.97861347090706       -1.44357327723281       -0.03737360258743
C           -1.68910244018304       -2.69525617951762        0.05322650720239
H            3.65938311718851        2.08077093383253        1.54223302315539
H            4.05816892629115        2.28150735440102       -0.22839149159768
H            2.41875817521151        2.46557233092382        0.27461076261968
H            3.45811867305030       -1.99382836369501       -0.47903209357572
H           -1.38022285750215        2.97626763383779       -0.10179787170658
H           -2.64890385937447        2.09684940564592       -0.97489182229018
H           -2.60150121570040        2.12293358012153        0.81299319153282
H           -1.39847304955648       -3.27656816864175        0.92807026736682
H           -1.57515316730425       -3.29487191963213       -0.85229925156319
H           -2.74256773604107       -2.41661559497092        0.18077685029763
H            1.26269580151270       -3.23400133531595       -0.14372873670060
25
 energy: 37.254808587804 xtb: 6.6.1 (8d0f1dd)
C            3.40625433236246        2.16077706145989        0.53287450868836
N            2.37095133049793       -0.27850612773356       -0.29694524042190
C            2.51586675373929       -1.56321678336240       -0.27046584306714
N            1.33390737569656       -2.25914560032067       -0.15039932855238
C            0.36166464056060       -1.30570952260397       -0.10814645998493
C            1.01854904331073       -0.07500136388253       -0.18098448975807
C            0.24525857893960        1.15025695938124       -0.25290459529629
O            0.64647353471016        2.27306034419426       -0.46008785475189
N           -1.12986000890880        0.91300576184756       -0.11560357095866
C           -1.99528829159392        2.09414448035993       -0.09757939199155
C           -1.77287364855991       -0.29413202094078       -0.00855454427689
O           -2.97732733390916       -0.34326152784219        0.10944210843102
N           -0.99175549344363       -1.45510942939495       -0.03625600056136
C           -1.70833930144983       -2.70205727420671        0.06145516549963
H            3.68980961593579        2.17034844565601        1.55262563787964
H            4.09355626363505        2.40526366419938       -0.19965809167566
H            2.45152054170490        2.51330913742009        0.25592977007149
H            3.42915763698066       -2.05007620997847       -0.49908393997046
H           -1.35453242579275        2.96673376553199       -0.11113276582769
H           -2.63623992151197        2.09863604913847       -0.97261795548569
H           -2.57439629542644        2.12464169003903        0.81627363235239
H           -1.40254457521015       -3.29481976597924        0.92282254216755
H           -1.61710244891200       -3.30008372489358       -0.84760924806482
H           -2.75532831876162       -2.41267837383909        0.21224141321448
H            1.22884696748835       -3.26356081537760       -0.14874039408512
25
 energy: 37.187978187155 xtb: 6.6.1 (8d0f1dd)
C            3.45065268292082        2.24081733157554        0.53679303980066
N            2.36392518794078       -0.32221361532667       -0.30016816286384
C            2.49725127554955       -1.60680136845974       -0.28457745304592
N            1.30872402148374       -2.28984741917017       -0.15974950769263
C            0.34666574728534       -1.32748616580675       -0.11351136995754
C            1.01500651233510       -0.10451771828129       -0.18915645839335
C            0.25153035674794        1.12750580144342       -0.27364129732914
O            0.66686597356510        2.24300719532596       -0.48719570983404
N           -1.12143980161660        0.90307485161882       -0.12435794309414
C           -1.97732792614922        2.09130127908085       -0.09742438446276
C           -1.77661146058046       -0.29805489491556       -0.00549472409090
O           -2.98000949693848       -0.33032750781792        0.12245403852665
N           -1.00712396666560       -1.46522266049721       -0.03515713105230
C           -1.72862685544737       -2.70862233778219        0.06463606427479
H            3.72544005037015        2.25944685026397        1.55751681220035
H            4.12988447810117        2.53504706255657       -0.17901558540529
H            2.49089517740341        2.55767329859388        0.24658411872372
H            3.40441118722643       -2.11281840121978       -0.49605118576114
H           -1.33017557333829        2.95855461754849       -0.12145688362434
H           -2.63065935221362        2.09895412028167       -0.96092874202588
H           -2.54565502264100        2.12507069948475        0.82429038817320
H           -1.40569061692958       -3.31525345238652        0.90995708378822
H           -1.66017439690698       -3.29651987728277       -0.85208815252875
H           -2.76855627796366       -2.41224219427517        0.24364029976012
H            1.19337274725953       -3.29239217859597       -0.15321201682345
25
 energy: 36.995271344041 xtb: 6.6.1 (8d0f1dd)
C            3.49809198579246        2.32170497771092        0.53643460017882
N            2.35299725178274       -0.36518842210195       -0.29901181888651
C            2.47745687921074       -1.64960852327547       -0.29436182376657
N            1.28211537922718       -2.31995705156563       -0.16792542999497
C            0.32952321843319       -1.34974896408498       -0.11645252990194
C            1.00871080042023       -0.13508703300695       -0.19122054716820
C            0.25806381715229        1.10308564609695       -0.28610823260589
O            0.69264620583169        2.21184190927476       -0.48899194129702
N           -1.11372093461000        0.89344526811685       -0.13089324902793
C           -1.95926283270560        2.08901943377432       -0.09762511582124
C           -1.78403772235191       -0.30077751857720       -0.00849805696403
O           -2.98809034003562       -0.31883059723116        0.11606548371280
N           -1.02478086663402       -1.47444093088517       -0.03431023301880
C           -1.75064389008805       -2.71439060427074        0.06850864238341
H            3.76600191838493        2.34554985223228        1.55810570691366
H            4.16621410065727        2.66522652552585       -0.16517457083835
H            2.53186228814630        2.59941192088498        0.23720206175409
H            3.38096925374969       -2.17318113844856       -0.47927388246634
H           -1.30574466858920        2.95104215978926       -0.13285480591277
H           -2.62281266181399        2.10034861167230       -0.95113029025629
H           -2.51767972014770        2.12609333123074        0.83132022081665
H           -1.41321457087335       -3.33457471135161        0.89869395009892
H           -1.70364676850224       -3.29182690435411       -0.85646479004869
H           -2.78378163591801       -2.41400510723866        0.27426729856918
H            1.15672393361859       -3.32017421540287       -0.15184762121995
25