25
 energy: 0.000000000000 xtb: 6.6.1 (8d0f1dd)
C            3.23720132972391        1.16630909158653        0.08434468864950
N            2.29877796055224        0.07527476373246        0.03981602671198
C            2.58028186251803       -1.21425391179017        0.03006175752192
N            1.43813944744728       -1.93419254010258        0.00098261751768
C            0.39035684826767       -1.05887462812143       -0.00790371763344
C            0.93510047688824        0.21347817468824        0.01709077332874
C            0.09450143016486        1.40504290868848       -0.00410946993748
O            0.49712746915594        2.54126690785742       -0.00342325656480
N           -1.25076628431515        1.06271869620815       -0.03085477937476
C           -2.21907191394203        2.15522079838987       -0.05001256521996
C           -1.81739470187490       -0.20012724136556       -0.04692818139228
O           -2.99983858926755       -0.37846413507442       -0.07008877579474
N           -0.92618577614240       -1.30210203518959       -0.03682761236648
C           -1.46982251276835       -2.64643077634382       -0.06029819901142
H            3.71247229913541        1.21471443890471        1.06488839270555
H            4.00791460421487        1.03430799217987       -0.67357688121503
H            2.69909982127087        2.09770098766290       -0.09130154035862
H            3.56654087521359       -1.63682977417947        0.04233139674524
H           -1.67107945562430        3.09322822573871       -0.02552706696334
H           -2.82428927394145        2.09428605349656       -0.95318074103337
H           -2.87644002486466        2.07745706351925        0.81450059976605
H           -1.17061985538665       -3.19584861009707        0.83242224714061
H           -1.14560246782873       -3.17511580834413       -0.95688266944647
H           -2.55549768731684       -2.55659960601237       -0.07459039105944
H            1.38130842369251       -2.94313824728853       -0.01389874052104
25
 energy: -1.974540905142 xtb: 6.6.1 (8d0f1dd)
C            3.22867066863175        1.17576829483355        0.07044556036468
N            2.29902222862717        0.08961504855406        0.03056381761959
C            2.59709725088721       -1.23504968574393        0.03523786006821
N            1.43039525204651       -1.94961412613143        0.01022226879184
C            0.39409405155691       -1.07052811217128       -0.00877883768934
C            0.92239426593932        0.21001737915801        0.00642690958330
C            0.09667858018311        1.38359054357102       -0.01783618283250
O            0.49332790631611        2.54816470650381       -0.02721584526796
N           -1.26364990801852        1.04992936440379       -0.04158536557145
C           -2.18291213498431        2.19410473795027       -0.03157979961365
C           -1.82600967330934       -0.21228181752187       -0.06305345830520
O           -3.02130262214717       -0.40420587413967       -0.08001086702135
N           -0.93534879562881       -1.31770262328384       -0.03952569779688
C           -1.45995682860269       -2.66840902026409       -0.05005999489866
H            3.69963317973806        1.23536399495908        1.05472933970255
H            4.00156404875563        1.03400043288071       -0.68595799138088
H            2.67914433440060        2.09572171572458       -0.12027606864407
H            3.57770474083162       -1.65267550950753        0.05278093335643
H           -1.69118959183927        3.20060628641987        0.11621981665713
H           -2.72060169094783        2.23339505302192       -0.94679967306921
H           -2.95656771555219        2.01634316976513        0.71813062090378
H           -1.15363875578916       -3.21040714418111        0.84747898421472
H           -1.12278912480397       -3.20742111056623       -0.93838199092198
H           -2.54613680288824       -2.59538822421305       -0.06849418826009
H            1.37259144157003       -2.95390869127781        0.00435376220555
25
 energy: 8.497805093538 xtb: 6.6.1 (8d0f1dd)
C            3.21347527549520        1.18298041163759        0.04802310335674
N            2.29392922203489        0.10180440589449        0.01588058507963
C            2.61229019810120       -1.25846550369453        0.04493080134910
N            1.41947139716336       -1.96518133370032        0.02264817952054
C            0.39752660311666       -1.08753562051599       -0.00991252966235
C            0.90354409414840        0.20242145102229       -0.00968826830899
C            0.09898025106420        1.34996524252284       -0.04023418212872
O            0.47863344761807        2.53956236604730       -0.06344203082969
N           -1.28482333449904        1.03775250049450       -0.05022718721015
C           -2.13972526227950        2.24570659674306        0.00115537296031
C           -1.83575266423396       -0.22590351624310       -0.07443873015527
O           -3.03846401324517       -0.44297372226700       -0.09552110990505
N           -0.94724425815074       -1.33578282727487       -0.04301164101137
C           -1.44417834528224       -2.69733829179105       -0.03534684467005
H            3.67973625422066        1.26521525261100        1.03557935367484
H            3.99161479495078        1.03207391381204       -0.70371559186269
H            2.65233036051320        2.09088904542583       -0.16397852039056
H            3.58746951918649       -1.66498865799260        0.07031847126652
H           -1.71803266227582        3.33465956987398        0.33251465094681
H           -2.55156607046374        2.46087197384107       -0.95440633224117
H           -3.07619244721506        1.92284852753872        0.57013171489494
H           -1.12574439348503       -3.22765376719039        0.86891738823693
H           -1.09226990716952       -3.25226940017599       -0.91218681485926
H           -2.53145157502239       -2.65327659009680       -0.05567880557897
H            1.36865782068159       -2.96635323777822        0.02872287972258
25
 energy: 25.371379268634 xtb: 6.6.1 (8d0f1dd)
C            3.19555796663733        1.18695649624595        0.02799100236219
N            2.28524990113390        0.10448972039168        0.00259803479682
C            2.61870666980990       -1.27662045557407        0.05211671096337
N            1.41269177881640       -1.97862488140561        0.03382203600052
C            0.39804456582521       -1.10674061196483       -0.01031904219580
C            0.88687845751181        0.19064769942900       -0.02543635796827
C            0.09301881705404        1.32314167909615       -0.06740340581765
O            0.45535133934345        2.52591261830793       -0.10727004250585
N           -1.31135132779985        1.03045135577120       -0.04748823086597
C           -2.11649722468892        2.28553050522137        0.04041926571329
C           -1.84722382777866       -0.24062216030475       -0.07194079999156
O           -3.04998524146288       -0.48559764970491       -0.10149593477525
N           -0.95623730621298       -1.35306804097146       -0.04496140761684
C           -1.42706228873193       -2.72587424219386       -0.02456498831018
H            3.65463779704975        1.29276027225101        1.01854817512150
H            3.98175194188647        1.03179119539380       -0.71579098879966
H            2.62677021825035        2.08631383955578       -0.20396978172059
H            3.59431038399909       -1.67105683824060        0.08389409304846
H           -1.75121131044403        3.43606478634076        0.52253342127974
H           -2.36534664513343        2.69188122880026       -0.94186745636293
H           -3.16633818616763        1.86959856589883        0.41081326263247
H           -1.10040178912408       -3.24487493425703        0.88608839623189
H           -1.05803247703581       -3.29108710161339       -0.89074359163361
H           -2.51514007345323       -2.71255058696994       -0.05070393073852
H            1.37407216568831       -2.97979367075944        0.05216547334695
25
 energy: 39.491636735731 xtb: 6.6.1 (8d0f1dd)
C            3.17801476339145        1.18614333305291        0.01518043871198
N            2.27486749111630        0.09674437760135       -0.00568339213872
C            2.61532543090599       -1.28754728781272        0.05646567523671
N            1.40990415779099       -1.98763797236141        0.04175072307849
C            0.39522336838053       -1.12428804127991       -0.01145895983279
C            0.87544273877792        0.17667424757127       -0.03807950232343
C            0.08224515296270        1.30730712417672       -0.09524393302648
O            0.42860325443428        2.50783080466958       -0.14920302891029
N           -1.33710910565157        1.03240393415006       -0.03693140953283
C           -2.11351096388685        2.31201699897473        0.06979586542179
C           -1.85800482461711       -0.25162557064228       -0.05957095880316
O           -3.05260333871610       -0.52274548376113       -0.10329123121228
N           -0.96169279823575       -1.36574522853330       -0.04777208207532
C           -1.41199576487106       -2.74902708725740       -0.02125375420125
H            3.62837690490815        1.31301340830706        1.00777616199042
H            3.97333667624204        1.03169756274063       -0.71889109918753
H            2.60595948363361        2.08076414890409       -0.23294632318245
H            3.59622080493465       -1.67090882766533        0.09404665121702
H           -1.80321980212177        3.52211163631342        0.64566729325624
H           -2.19821187023860        2.84552181083001       -0.86589949661331
H           -3.19231136536292        1.86949870626197        0.25203829419149
H           -1.08215274927385       -3.25904417651147        0.89447804117376
H           -1.02662510066514       -3.31853223958120       -0.87872358712009
H           -2.49989091555782       -2.76415534544065       -0.05516830424835
H            1.38602267669244       -2.99144204396325        0.06995183032490
25
 energy: 46.054273159308 xtb: 6.6.1 (8d0f1dd)
C            3.16727485409680        1.18241827696676        0.00521673186478
N            2.26723455948234        0.08267676623935       -0.01037250567854
C            2.60320284791969       -1.28387103677850        0.05220570147824
N            1.41420313560629       -1.98905502281839        0.04550109375869
C            0.38885558223072       -1.13373452714274       -0.01142181940658
C            0.87320417641853        0.16615631612159       -0.04128740527542
C            0.06774415147305        1.30773399714585       -0.10112512104006
O            0.40542434346392        2.49453165825897       -0.17162557927610
N           -1.35257709712777        1.03517464485872       -0.01742034367716
C           -2.14217989321046        2.30286651657794        0.07782114875524
C           -1.86736162093372       -0.26099978932162       -0.04866243271178
O           -3.05054367587530       -0.54362098851328       -0.09791596492063
N           -0.96120463278201       -1.37272245875997       -0.04743710316781
C           -1.40592272102215       -2.76032979057816       -0.01764793895696
H            3.61173888806973        1.31866300154012        0.99719118510404
H            3.96673746157187        1.02943022849565       -0.72298528472072
H            2.59678833549947        2.07611237131777       -0.24998691697582
H            3.59189506487324       -1.66170133567579        0.09211361187116
H           -1.86378066594286        3.56649421154289        0.74028039345171
H           -2.03227784844622        2.92079609052853       -0.78907053145339
H           -3.18652009656390        1.88490823806778        0.09325676109716
H           -1.07720293226636       -3.26356913835722        0.90107844932325
H           -1.01220298830159       -3.32578675493968       -0.87168703143428
H           -2.49164646391705       -2.78780564669907       -0.05684714364500
H            1.40133154065622       -2.99573703933378        0.07786195783053
25
 energy: 53.095713853029 xtb: 6.6.1 (8d0f1dd)
C            3.16382338867356        1.17855165016658       -0.00460595398404
N            2.26342452024903        0.07286182927869       -0.01667102905271
C            2.59056858275751       -1.26886295790359        0.04156071280481
N            1.42054110915781       -1.98452486226679        0.04288643408806
C            0.38193245919165       -1.13374407507288       -0.00752847571312
C            0.87478697647691        0.16347225982496       -0.03740467694360
C            0.05911125450925        1.31227045176620       -0.08126243799467
O            0.39835266720317        2.48797694040637       -0.17807356441286
N           -1.35146982000519        1.03022944643953        0.02276281478473
C           -2.16831437309686        2.27570095980857        0.07315525270452
C           -1.87295319904304       -0.26948155155278       -0.02583740939109
O           -3.04955133653615       -0.54811016634964       -0.08172248090783
N           -0.95816368950197       -1.37613611554517       -0.03889960456483
C           -1.40784054077898       -2.76282488342223       -0.01401808512514
H            3.60653252857489        1.31287823800401        0.98615586140426
H            3.96229403260291        1.02418586120200       -0.73194116306000
H            2.59573863841760        2.07269907209024       -0.25931809735145
H            3.58280541437226       -1.64754528967277        0.08021960053851
H           -1.92180218409706        3.59452499244035        0.80512109883360
H           -1.86215762632989        2.94009589239910       -0.72384151787964
H           -3.22028196931663        1.88043512686965       -0.07630341095293
H           -1.07936941167396       -3.26461239394692        0.90367017905144
H           -1.01454062052729       -3.32066566138054       -0.87048635051921
H           -2.49227124650554       -2.78827354638347       -0.05251705471178
H            1.41101875019851       -2.99207242845573        0.07193327054951
25
 energy: 61.686376367138 xtb: 6.6.1 (8d0f1dd)
C            3.15960082126781        1.17664623218501       -0.00379374702921
N            2.25869763161565        0.06620655711095       -0.01868811030880
C            2.57889695027217       -1.25237478474119        0.04237006003959
N            1.42486421560552       -1.97964949893791        0.04365961151403
C            0.37458760563002       -1.13106492999413       -0.00639055733629
C            0.87352411191284        0.16379356709772       -0.04024016102581
C            0.04945918864790        1.31477601374909       -0.08169712079828
O            0.39731670811169        2.48106096464497       -0.19435667452208
N           -1.34911247228570        1.02317501461168        0.03707854248073
C           -2.18416187413490        2.25628583849963        0.05278822895285
C           -1.87835062494752       -0.27729461929102       -0.01914063984204
O           -3.05114356872229       -0.54771099083796       -0.07990494343538
N           -0.95671507177005       -1.37938758326543       -0.03748272115892
C           -1.40854951809536       -2.76695756200121       -0.01783048924909
H            3.59811451119874        1.30999575970179        0.98869397119705
H            3.96065837106329        1.02146076216847       -0.72738547080937
H            2.59277076421978        2.07127112970554       -0.25970323951147
H            3.57224920327221       -1.63693903770196        0.08443734103387
H           -1.96573677669746        3.62351432259713        0.79948654043283
H           -1.80717386688679        2.92060775278386       -0.61692885854668
H           -3.15250406847946        1.89984816679776       -0.15259411510731
H           -1.08061091555131       -3.26817116114152        0.89928414407996
H           -1.01380710508428       -3.32154380586847       -0.87532747368084
H           -2.49376069093030       -2.79064833356009       -0.05821867006535
H            1.41310077574030       -2.98787098556898        0.06891846489057
25
 energy: 63.505669471954 xtb: 6.6.1 (8d0f1dd)
C            3.16084648377021        1.17905037468924       -0.00844062338441
N            2.25896075104632        0.07159986171956       -0.02335577085725
C            2.58237377298674       -1.24984978488080        0.03860839029310
N            1.42680668470759       -1.98049600381108        0.04266397891130
C            0.37612031140920       -1.13151774630713       -0.00233334892394
C            0.87024476983566        0.16588922201147       -0.03757292959582
C            0.04371774248044        1.31000338319988       -0.07215897513934
O            0.39247955521623        2.48286842036598       -0.19434525476405
N           -1.35240447248042        1.01075041899059        0.05390886880034
C           -2.18573427846679        2.24285515470383        0.04931273387172
C           -1.88002529697263       -0.28668120674104       -0.01189919186174
O           -3.05582847069552       -0.55629012177442       -0.07250859569498
N           -0.95649035010204       -1.38467557516075       -0.03085473839438
C           -1.41040619962863       -2.76973734826844       -0.01299715766472
H            3.60306249833027        1.30785308981619        0.98334094409633
H            3.95936380251653        1.02196807093387       -0.73475463118471
H            2.59424225925932        2.07402148971569       -0.26094653540284
H            3.57374994906258       -1.63635793108215        0.07560471352436
H           -1.99092663658708        3.64709305508030        0.83023285420228
H           -1.72474035182842        2.95900662342767       -0.60855101332702
H           -3.18744555457592        1.88008335250519       -0.21910809824473
H           -1.08206815640674       -3.27287244351839        0.90306450640682
H           -1.02048420936144       -3.32295762865310       -0.87368115874804
H           -2.49587370461826       -2.78502637933757       -0.05053854733137
H            1.41267340607536       -2.98755155888091        0.06434349260765
25
 energy: 65.200185745692 xtb: 6.6.1 (8d0f1dd)
C            3.16445153666080        1.17886764183934       -0.00846826830003
N            2.26193012765661        0.07458833845723       -0.02336519573551
C            2.58834176790911       -1.25639576721577        0.03996394245134
N            1.42609360965060       -1.98357259460670        0.04301566921960
C            0.38058853638178       -1.13142378809032       -0.00200340460137
C            0.87096979446530        0.16700994705928       -0.03610293241612
C            0.04818021892399        1.30905368566129       -0.07257431641736
O            0.40177207045310        2.48466912602683       -0.18396933800962
N           -1.34987129495634        1.01321950788890        0.04765117225080
C           -2.17854751187916        2.24592782112513        0.04188918717115
C           -1.87395265521708       -0.28308379047962       -0.01719065498008
O           -3.05281106793531       -0.55175444159862       -0.07504299598631
N           -0.95572205696260       -1.38314579901400       -0.03036565875983
C           -1.41073544840160       -2.76690074430148       -0.01161280068986
H            3.60931850299674        1.30629860927864        0.98286497403528
H            3.96124623853307        1.02199545351266       -0.73708749599743
H            2.59716721175649        2.07412629307013       -0.25917094261817
H            3.57750003104176       -1.64508805969422        0.07237597387791
H           -2.00390153033134        3.67478210143777        0.83342585451204
H           -1.74591381782421        2.93788008145224       -0.61253476693862
H           -3.20850777287634        1.86586354835446       -0.21289259168040
H           -1.08284389276282       -3.27186121377969        0.90399587754941
H           -1.02374689407038       -3.32240342821059       -0.87271020742731
H           -2.49671023924898       -2.77958584889557       -0.04773385658216
H            1.40791884100933       -2.99003789053366        0.06467668826714
25
 energy: 69.536290121225 xtb: 6.6.1 (8d0f1dd)
C            3.16684917965414        1.18102051841182       -0.00785020600376
N            2.26312535674250        0.08080044947759       -0.02301293298421
C            2.59543397622366       -1.26070303808224        0.04375248824680
N            1.42700846996593       -1.98708104258055        0.04435892342592
C            0.38543714988118       -1.13282185760011       -0.00211143236058
C            0.86803978632542        0.16805150282308       -0.03589125212083
C            0.04444379741529        1.30370153758901       -0.07928726918017
O            0.40551671007587        2.48394828729097       -0.17169113011797
N           -1.35368569455631        1.00508067507920        0.02950577983401
C           -2.18006860450295        2.23145951863540        0.01979421087737
C           -1.86969541319570       -0.28993122375951       -0.02950236575715
O           -3.05304360893383       -0.55650392018375       -0.08140981880837
N           -0.95487470460727       -1.38761200470066       -0.02965391603945
C           -1.41086408533455       -2.76896847115370       -0.00791056978509
H            3.61570615231221        1.30593026702276        0.98293277890719
H            3.96139260475844        1.02343574482520       -0.73958224017205
H            2.59902673570588        2.07672604606857       -0.25635264957380
H            3.58175769633464       -1.65258934364033        0.06958122331258
H           -2.03012410194011        3.72837005665702        0.84395242978347
H           -1.74555732675802        2.95124372179554       -0.60143162148151
H           -3.19713359659045        1.85499266975151       -0.20445598481063
H           -1.08325584687774       -3.27409354573372        0.90808678759357
H           -1.02837710924726       -3.32765906632391       -0.86964170295663
H           -2.49781235121737       -2.77527077429024       -0.04173120791186
H            1.40296913333895       -2.99249791863525        0.06658559027763
25
 energy: 91.259453455336 xtb: 6.6.1 (8d0f1dd)
C            3.17392978571129        1.18926498277811       -0.00657627723375
N            2.26397373518981        0.10776387554057       -0.02222488302260
C            2.62238389411602       -1.27415112459459        0.06027274806467
N            1.43232901104814       -2.00122963489015        0.04644076136674
C            0.40438898245150       -1.13957719812218       -0.00066675063440
C            0.85222735584959        0.17097097355997       -0.03180212473260
C            0.02073716495986        1.27854254995902       -0.10710187610938
O            0.42175891734746        2.47761021377363       -0.12822076553032
N           -1.37121374424355        0.95653235370166       -0.04527770921541
C           -2.18931147493641        2.12972291578815       -0.10659393419718
C           -1.85083764494260       -0.33191577861403       -0.06513754523171
O           -3.05559421384196       -0.57971604547490       -0.09241344854829
N           -0.95133590414795       -1.41255151836859       -0.01917973274613
C           -1.40984936717983       -2.78227313031966        0.00412841141654
H            3.63510214897462        1.30511023519190        0.98380315245391
H            3.96119594768612        1.02559788986028       -0.74880280957464
H            2.60360545000902        2.08603238090035       -0.25002529225246
H            3.59623696120025       -1.67903170109786        0.05814093357084
H           -2.13440190230781        4.03456601689069        0.89287268930384
H           -1.70482297484012        3.01004410758767       -0.49573844834360
H           -3.16256225049313        1.81906907901415       -0.20723294945234
H           -1.08346060556927       -3.28839797426819        0.92032067908040
H           -1.04199175099844       -3.34760417731328       -0.86247432061702
H           -2.50231847540488       -2.76353255591455       -0.02271148944227
H            1.38204525933484       -3.00181794682450        0.07323489382169
25
 energy: 103.245367465494 xtb: 6.6.1 (8d0f1dd)
C            3.17650720765053        1.19473572630718       -0.00244042756701
N            2.26122814707099        0.12752141153053       -0.01843498888534
C            2.63914651787009       -1.28324116020382        0.07135809350410
N            1.43614832613044       -2.01059416144214        0.04575191902484
C            0.41676081325800       -1.14451550582232       -0.00116096852338
C            0.84132405715182        0.17182023250323       -0.02557886779741
C            0.00132125661470        1.26202869622927       -0.12488331413915
O            0.42802864994557        2.47636049320636       -0.11421371925584
N           -1.38240252394122        0.91454263346798       -0.10682050006079
C           -2.18480309584851        2.02542851344091       -0.21528577304690
C           -1.83732292106820       -0.36879740669077       -0.08823735560122
O           -3.06107063248311       -0.59554261179684       -0.09656919600109
N           -0.94936167911563       -1.43252544905107       -0.01306777174334
C           -1.40782252577911       -2.79320639052213        0.00805030346386
H            3.64097821946481        1.30603619275788        0.98899012849850
H            3.96138604991802        1.02560732420552       -0.74850883255772
H            2.60508736384890        2.09183234000018       -0.24577561069987
H            3.60526089734260       -1.69235209740707        0.05447622040256
H           -2.13677488190338        4.29178427375262        0.88618748289315
H           -1.71250547456431        3.04417050937694       -0.39267357883874
H           -3.16553392185505        1.80330110701631       -0.15895453405484
H           -1.08434880136793       -3.29828200137639        0.92527673469905
H           -1.04472268504592       -3.35894585531532       -0.86147697344336
H           -2.50399064524756       -2.76057144727639       -0.01868381371394
H            1.36969658692600       -3.00756657814696        0.07970925563841
25
 energy: 100.536412856475 xtb: 6.6.1 (8d0f1dd)
C            3.17433506656592        1.19203507463088        0.00401229842344
N            2.25518954442013        0.12568676102010       -0.01080044941293
C            2.63087251013383       -1.28159503686013        0.06744893201576
N            1.43803333917563       -2.00754508530287        0.03949113931148
C            0.41375741020619       -1.14377721784689       -0.00415386671631
C            0.84483282436582        0.17037467742715       -0.01692963063467
C           -0.00265526735309        1.26833599850799       -0.11356731840805
O            0.42058416461541        2.48524001155081       -0.13678900628208
N           -1.37893810200875        0.90069242063128       -0.12327778184947
C           -2.18107422837673        1.93338496220362       -0.28795017779021
C           -1.83615766719173       -0.38713834515986       -0.08128070294781
O           -3.06698191125675       -0.59440314191885       -0.09391313851967
N           -0.94918134441158       -1.43688967601262       -0.01510966838840
C           -1.40699040148410       -2.79585503169053       -0.00043558884349
H            3.63105966033730        1.30580889724384        0.99609735767517
H            3.96205138712856        1.02295435571170       -0.73746170983607
H            2.60432757676777        2.08918787039217       -0.24248978583153
H            3.60052045427324       -1.68242295638046        0.06037891570574
H           -2.00237068468493        4.42716205502749        0.80533691207791
H           -1.76737976268331        3.00130308840531       -0.32446804299861
H           -3.22086486219241        1.82118035305913       -0.05200120608976
H           -1.08654602884761       -3.29798566264866        0.91716924363178
H           -1.03705180550972       -3.35372600345898       -0.86932261987610
H           -2.50225368971348       -2.76841842835075       -0.03302782544591
H            1.37509612269694       -3.00456115143714        0.08007763322429
25
 energy: 87.568005286616 xtb: 6.6.1 (8d0f1dd)
C            3.17036533512015        1.17630809441363        0.00662012764536
N            2.25346325122211        0.07822544652943       -0.00135483063823
C            2.58964737324259       -1.26188229711574        0.05009013853913
N            1.44713646778988       -1.99245806674622        0.04082487136823
C            0.39200165033601       -1.14494525449411       -0.00991829761392
C            0.87196980439487        0.15872560392172       -0.02534175675183
C            0.01951199666090        1.29366626908187       -0.09341017430493
O            0.40068664890604        2.47771104422237       -0.16927922721843
N           -1.35741014000704        0.93936063504771       -0.10063494150113
C           -2.22239858418920        1.93659222651380       -0.29502191342613
C           -1.85239859862832       -0.37966971691431       -0.07551870202397
O           -3.05762335336125       -0.59711328870942       -0.10516707998382
N           -0.94067378573294       -1.42794995165893       -0.03247091125755
C           -1.40958376277566       -2.79678162882961       -0.00373587261628
H            3.62090122381436        1.30035263469092        0.99272856227960
H            3.96037908081739        1.01783712202590       -0.72688540696301
H            2.60784222312483        2.07747185264322       -0.23890764529569
H            3.58185631955803       -1.65122345209906        0.07333134481038
H           -1.91627693680358        4.48245196376941        0.74757590007040
H           -1.77270808152296        2.94013139557020       -0.22023559828802
H           -3.25427910915240        1.77842800955306       -0.07463620144403
H           -1.09360543214981       -3.29408621475122        0.91565317788452
H           -1.03874770562926       -3.35090166289417       -0.86749476764153
H           -2.49560073095065       -2.77398996271786       -0.03867542069809
H            1.40775915088843       -2.99723201230892        0.07889853726346
25