      -----------------------------------------------------------      
     |                   =====================                   |     
     |                           x T B                           |     
     |                   =====================                   |     
     |                         S. Grimme                         |     
     |          Mulliken Center for Theoretical Chemistry        |     
     |                    University of Bonn                     |     
      -----------------------------------------------------------      

   * xtb version 6.6.1 (8d0f1dd) compiled by 'conda@1efc2f54142f' on 2023-08-01

   xtb is free software: you can redistribute it and/or modify it under
   the terms of the GNU Lesser General Public License as published by
   the Free Software Foundation, either version 3 of the License, or
   (at your option) any later version.
   
   xtb is distributed in the hope that it will be useful,
   but WITHOUT ANY WARRANTY; without even the implied warranty of
   MERCHANTABILITY or FITNESS FOR A PARTICULAR PURPOSE.  See the
   GNU Lesser General Public License for more details.
   
   Cite this work as:
   * C. Bannwarth, E. Caldeweyher, S. Ehlert, A. Hansen, P. Pracht,
     J. Seibert, S. Spicher, S. Grimme, WIREs Comput. Mol. Sci., 2020, 11,
     e01493. DOI: 10.1002/wcms.1493
   
   for GFN2-xTB:
   * C. Bannwarth, S. Ehlert and S. Grimme., J. Chem. Theory Comput., 2019,
     15, 1652-1671. DOI: 10.1021/acs.jctc.8b01176
   for GFN1-xTB:
   * S. Grimme, C. Bannwarth, P. Shushkov, J. Chem. Theory Comput., 2017,
     13, 1989-2009. DOI: 10.1021/acs.jctc.7b00118
   for GFN0-xTB:
   * P. Pracht, E. Caldeweyher, S. Ehlert, S. Grimme, ChemRxiv, 2019, preprint.
     DOI: 10.26434/chemrxiv.8326202.v1
   for GFN-FF:
   * S. Spicher and S. Grimme, Angew. Chem. Int. Ed., 2020, 59, 15665-15673.
     DOI: 10.1002/anie.202004239
   
   for ALPB and GBSA implicit solvation:
   * S. Ehlert, M. Stahn, S. Spicher, S. Grimme, J. Chem. Theory Comput.,
     2021, 17, 4250-4261. DOI: 10.1021/acs.jctc.1c00471
   
   for DFT-D4:
   * E. Caldeweyher, C. Bannwarth and S. Grimme, J. Chem. Phys., 2017,
     147, 034112. DOI: 10.1063/1.4993215
   * E. Caldeweyher, S. Ehlert, A. Hansen, H. Neugebauer, S. Spicher,
     C. Bannwarth and S. Grimme, J. Chem. Phys., 2019, 150, 154122.
     DOI: 10.1063/1.5090222
   * E. Caldeweyher, J.-M. Mewes, S. Ehlert and S. Grimme, Phys. Chem. Chem. Phys.
     2020, 22, 8499-8512. DOI: 10.1039/D0CP00502A
   
   for sTDA-xTB:
   * S. Grimme and C. Bannwarth, J. Chem. Phys., 2016, 145, 054103.
     DOI: 10.1063/1.4959605
   
   in the mass-spec context:
   * V. Asgeirsson, C. Bauer and S. Grimme, Chem. Sci., 2017, 8, 4879.
     DOI: 10.1039/c7sc00601b
   * J. Koopman and S. Grimme, ACS Omega 2019, 4, 12, 15120-15133.
     DOI: 10.1021/acsomega.9b02011
   
   for metadynamics refer to:
   * S. Grimme, J. Chem. Theory Comput., 2019, 155, 2847-2862
     DOI: 10.1021/acs.jctc.9b00143
   
   for SPH calculations refer to:
   * S. Spicher and S. Grimme, J. Chem. Theory Comput., 2021, 17, 1701-1714
     DOI: 10.1021/acs.jctc.0c01306
   
   with help from (in alphabetical order)
   P. Atkinson, C. Bannwarth, F. Bohle, G. Brandenburg, E. Caldeweyher
   M. Checinski, S. Dohm, S. Ehlert, S. Ehrlich, I. Gerasimov, C. Hölzer
   A. Katbashev, J. Koopman, C. Lavigne, S. Lehtola, F. März, M. Müller,
   F. Musil, H. Neugebauer, J. Pisarek, C. Plett, P. Pracht, F. Pultar,
   J. Seibert, P. Shushkov, S. Spicher, M. Stahn, M. Steiner, T. Strunk,
   J. Stückrath, T. Rose, and J. Unsleber
   
 * started run on 2024/06/05 at 20:00:20.101     

           -------------------------------------------------
          |                Calculation Setup                |
           -------------------------------------------------

          program call               : xtb xtbopt.xyz --opt crude --input .xc2 --gfn2
          hostname                   : n-62-21-69
          coordinate file            : xtbopt.xyz
          omp threads                :                     1

   ID    Z sym.   atoms
    1    6 C      1, 3, 5-7, 10, 11, 14
    2    7 N      2, 4, 9, 13
    3    8 O      8, 12
    4    1 H      15-25

molecular fragmentation (1/2 indicates fragments):
1111111111111111111111121
# atoms in fragment 1/2:    24     1
 fragment masses (1/2) :      194.19        1.01
CMA distance (Bohr)    :  12.203
constraining FC (au)   :  0.0500
########################################################################
[WARNING] Please study the warnings concerning your input carefully
-1- readin_getIntValue: could not parse ''
########################################################################

           -------------------------------------------------
          |                 G F N 2 - x T B                 |
           -------------------------------------------------

        Reference                      10.1021/acs.jctc.8b01176
      * Hamiltonian:
        H0-scaling (s, p, d)           1.850000    2.230000    2.230000
        zeta-weighting                 0.500000
      * Dispersion:
        s8                             2.700000
        a1                             0.520000
        a2                             5.000000
        s9                             5.000000
      * Repulsion:
        kExp                           1.500000    1.000000
        rExp                           1.000000
      * Coulomb:
        alpha                          2.000000
        third order                    shell-resolved
        anisotropic                    true
        a3                             3.000000
        a5                             4.000000
        cn-shift                       1.200000
        cn-exp                         4.000000
        max-rad                        5.000000

q/qsh data taken from xtbrestart
CAMM data taken from xtbrestart

          ...................................................
          :                      SETUP                      :
          :.................................................:
          :  # basis functions                  67          :
          :  # atomic orbitals                  67          :
          :  # shells                           39          :
          :  # electrons                        74          :
          :  max. iterations                   250          :
          :  Hamiltonian                  GFN2-xTB          :
          :  restarted?                       true          :
          :  GBSA solvation                  false          :
          :  PC potential                    false          :
          :  electronic temp.         5000.0000000     K    :
          :  accuracy                    1.0000000          :
          :  -> integral cutoff          0.2500000E+02      :
          :  -> integral neglect         0.1000000E-07      :
          :  -> SCF convergence          0.1000000E-05 Eh   :
          :  -> wf. convergence          0.1000000E-03 e    :
          :  Broyden damping             0.4000000          :
          ...................................................

 iter      E             dE          RMSdq      gap      omega  full diag
   1    -42.6256578 -0.426257E+02  0.359E-05    0.03       0.0  T
   2    -42.6256578  0.336087E-11  0.288E-05    0.03     694.1  T
   3    -42.6256578 -0.101679E-10  0.221E-05    0.03     905.7  T

   *** convergence criteria satisfied after 3 iterations ***

         #    Occupation            Energy/Eh            Energy/eV
      -------------------------------------------------------------
         1        2.0000           -0.9159368             -24.9239
       ...           ...                  ...                  ...
        31        1.9997           -0.6188873             -16.8408
        32        1.9987           -0.5982711             -16.2798
        33        1.9976           -0.5882713             -16.0077
        34        1.9969           -0.5840183             -15.8919
        35        1.9884           -0.5629446             -15.3185
        36        1.9878           -0.5621295             -15.2963
        37        0.9760           -0.4807844             -13.0828 (HOMO)
        38        0.9405           -0.4796600             -13.0522 (LUMO)
        39        0.1024           -0.4353205             -11.8457
        40        0.0105           -0.3985476             -10.8450
        41        0.0020           -0.3725004             -10.1363
        42        0.0000           -0.2875150              -7.8237
       ...           ...                  ...                  ...
        67                          0.5555183              15.1164
      -------------------------------------------------------------
                  HL-Gap            0.0011244 Eh            0.0306 eV
             Fermi-level           -0.4815454 Eh          -13.1035 eV

 SCC (total)                   0 d,  0 h,  0 min,  0.026 sec
 SCC setup                      ...        0 min,  0.000 sec (  1.322%)
 Dispersion                     ...        0 min,  0.000 sec (  1.614%)
 classical contributions        ...        0 min,  0.000 sec (  0.422%)
 integral evaluation            ...        0 min,  0.006 sec ( 22.753%)
 iterations                     ...        0 min,  0.006 sec ( 23.626%)
 molecular gradient             ...        0 min,  0.013 sec ( 49.617%)
 printout                       ...        0 min,  0.000 sec (  0.586%)

         :::::::::::::::::::::::::::::::::::::::::::::::::::::
         ::                     SUMMARY                     ::
         :::::::::::::::::::::::::::::::::::::::::::::::::::::
         :: total energy             -42.102917165559 Eh    ::
         :: gradient norm              0.002339282089 Eh/a0 ::
         :: HOMO-LUMO gap              0.030597186014 eV    ::
         ::.................................................::
         :: SCC energy               -42.625657767496 Eh    ::
         :: -> isotropic ES            0.138414335418 Eh    ::
         :: -> anisotropic ES         -0.004832952022 Eh    ::
         :: -> anisotropic XC          0.012755794260 Eh    ::
         :: -> dispersion             -0.022549244337 Eh    ::
         :: repulsion energy           0.522670289491 Eh    ::
         :: add. restraining           0.000000000000 Eh    ::
         :: total charge               1.000000000000 e     ::
         :::::::::::::::::::::::::::::::::::::::::::::::::::::

      ----------------------------------------------------------- 
     |                   =====================                   |
     |                        A N C O P T                        |
     |                   =====================                   |
     |               Approximate Normal Coordinate               |
     |                Rational Function Optimizer                |
      ----------------------------------------------------------- 

          ...................................................
          :                      SETUP                      :
          :.................................................:
          :   optimization level             crude          :
          :   max. optcycles                   200          :
          :   ANC micro-cycles                  20          :
          :   degrees of freedom                69          :
          :.................................................:
          :   RF solver                   davidson          :
          :   write xtbopt.log                true          :
          :   linear?                        false          :
          :   energy convergence         0.5000000E-03 Eh   :
          :   grad. convergence          0.1000000E-01 Eh/α :
          :   maxmium RF displ.          1.0000000          :
          :   Hlow (freq-cutoff)         0.1000000E-01      :
          :   Hmax (freq-cutoff)         5.0000000          :
          :   S6 in model hess.         20.0000000          :
          ...................................................

generating ANC from model Hessian ...
Using Lindh-Hessian (1995)
 Shifting diagonal of input Hessian by    1.0028622369966178E-002
 Lowest  eigenvalues of input Hessian
    0.010000    0.010005    0.000000    0.000000    0.000000    0.000000
    0.000000    0.000000    0.010378    0.012816    0.014129    0.016099
    0.018557    0.020594    0.022838    0.024650    0.025281    0.028304
 Highest eigenvalues
    2.130480    2.147401    2.208571    2.291780    2.403540    2.543881


........................................................................
.............................. CYCLE    1 ..............................
........................................................................

 iter      E             dE          RMSdq      gap      omega  full diag
   1    -42.6256578 -0.426257E+02  0.273E-05    0.03       0.0  T
   2    -42.6256578  0.144610E-09  0.749E-05    0.03     267.0  T
   3    -42.6256578 -0.163887E-09  0.632E-06    0.03    3163.9  T
     SCC iter.                  ...        0 min,  0.005 sec
     gradient                   ...        0 min,  0.013 sec
 * total energy  :   -42.1029172 Eh     change       -0.9222845E-11 Eh
   gradient norm :     0.0023392 Eh/α   predicted     0.0000000E+00 (-100.00%)
   displ. norm   :     0.0216652 α      lambda       -0.1218062E-04
   maximum displ.:     0.0120331 α      in ANC's #3, #1, #4, ...

   *** GEOMETRY OPTIMIZATION CONVERGED AFTER 1 ITERATIONS ***

------------------------------------------------------------------------
 total energy gain   :        -0.0000000 Eh       -0.0000 kcal/mol
 total RMSD          :         0.0000000 a0        0.0000 Å
 total power (kW/mol):        -0.0000000 (step)   -0.0000 (real)
------------------------------------------------------------------------

 ANCopt (total)                0 d,  0 h,  0 min,  0.033 sec
 optimizer setup                ...        0 min,  0.000 sec (  0.924%)
 model hessian                  ...        0 min,  0.006 sec ( 18.511%)
 ANC generation                 ...        0 min,  0.001 sec (  2.966%)
 coordinate transformation      ...        0 min,  0.000 sec (  0.026%)
 single point calculation       ...        0 min,  0.024 sec ( 72.872%)
 optimization log               ...        0 min,  0.001 sec (  3.812%)
 hessian update                 ...        0 min,  0.000 sec (  0.004%)
 rational function              ...        0 min,  0.000 sec (  0.586%)

================
 final structure:
================
25
 xtb: 6.6.1 (8d0f1dd)
C            3.29847048665888        1.29176456908200        0.04792799748337
N            2.38304602460181        0.18152936524720        0.03697032989619
C            2.70025623283001       -1.10854045603173        0.05023282845725
N            1.58003462083226       -1.86086254691053        0.04291249355207
C            0.50183932790739       -1.01028342188801        0.02299722053299
C            1.01297222361691        0.28272435733982        0.01941074889386
C            0.16218586351259        1.45146924519591       -0.00626454161384
O            0.53704150987081        2.60230730551743       -0.00940751790632
N           -1.18969437071667        1.09098125498431       -0.02974301169774
C           -2.16589754803059        2.17548959048327       -0.07161655302471
C           -1.73838156573924       -0.16154857256799       -0.03128959955698
O           -2.91587941427592       -0.37714070496090       -0.06690104907255
N           -0.82105394178662       -1.29467688308850        0.01194410640268
C           -1.35216022996126       -2.52701256280577        0.03353477289895
H            3.88883207606194        1.28591453904387        0.96453104846495
H            3.97433707483975        1.23385249961492       -0.80504735924292
H            2.72538873990556        2.21708883343107       -0.00416462228936
H            3.69821598032770       -1.50099855529794        0.06333219013226
H           -1.62205620883635        3.11671700635002       -0.06359675462929
H           -2.76831195890102        2.09453595869005       -0.97533911282491
H           -2.82547905736347        2.11190588335505        0.79241136122375
H           -0.72316415907745       -3.39508146414894        0.04325159868873
H           -2.42290695860781       -2.60369970367602        0.02365529804091
H           -4.31573262654378       -4.60808627151845       -0.10514227765269
H            1.55852939297492       -2.87011072384008        0.04657202274323

 Bond Distances (Angstroems)
 ---------------------------
C1-N2=1.4390         C1-H15=1.0903        C1-H16=1.0898        C1-H17=1.0897        N2-C1=1.4390         N2-C3=1.3286         
N2-C6=1.3739         C3-N2=1.3286         C3-N4=1.3494         C3-H18=1.0724        N4-C3=1.3494         N4-C5=1.3735         
N4-H25=1.0095        C5-N4=1.3735         C5-C6=1.3904         C5-N13=1.3532        C6-N2=1.3739         C6-C5=1.3904         
C6-C7=1.4458         C7-C6=1.4458         C7-O8=1.2104         C7-N9=1.3993         O8-C7=1.2104         N9-C7=1.3993         
N9-C10=1.4598        N9-C11=1.3674        C10-N9=1.4598        C10-H19=1.0871       C10-H20=1.0891       C10-H21=1.0889       
C11-N9=1.3674        C11-O12=1.1976       C11-N13=1.4585       O12-C11=1.1976       N13-C5=1.3532        N13-C11=1.4585       
N13-C14=1.3421       C14-N13=1.3421       C14-H22=1.0720       C14-H23=1.0735       H15-C1=1.0903        H16-C1=1.0898        
H17-C1=1.0897        H18-C3=1.0724        H19-C10=1.0871       H20-C10=1.0891       H21-C10=1.0889       H22-C14=1.0720       
H23-C14=1.0735       H25-N4=1.0095        
 C  H  Rav=1.0836 sigma=0.0078  Rmin=1.0720  Rmax=1.0903     9
 C  C  Rav=1.4181 sigma=0.0277  Rmin=1.3904  Rmax=1.4458     2
 N  H  Rav=1.0095 sigma=0.0000  Rmin=1.0095  Rmax=1.0095     1
 N  C  Rav=1.3859 sigma=0.0447  Rmin=1.3286  Rmax=1.4598    11
 O  C  Rav=1.2040 sigma=0.0064  Rmin=1.1976  Rmax=1.2104     2

 selected bond angles (degree)
 --------------------
H15-C1-N2=110.29               H16-C1-N2=110.34               H16-C1-H15=108.78              H17-C1-N2=108.68               
H17-C1-H15=109.24              H17-C1-H16=109.50              C3-N2-C1=126.67                C6-N2-C1=125.28                
C6-N2-C3=108.04                N4-C3-N2=110.07                H18-C3-N2=125.29               H18-C3-N4=124.65               
C5-N4-C3=107.85                H25-N4-C3=125.10               H25-N4-C5=127.05               C6-C5-N4=106.70                
N13-C5-N4=129.60               N13-C5-C6=123.70               C5-C6-N2=107.34                C7-C6-N2=130.28                
C7-C6-C5=122.38                O8-C7-C6=125.90                N9-C7-C6=111.13                N9-C7-O8=122.96                
C10-N9-C7=117.08               C11-N9-C7=128.58               C11-N9-C10=114.34              H19-C10-N9=107.97              
H20-C10-N9=109.78              H20-C10-H19=110.32             H21-C10-N9=109.81              H21-C10-H19=110.35             
H21-C10-H20=108.60             

 selected dihedral angles (degree)
 ---------------------------------
C3-N2-C1-H15=297.72           C3-N2-C1-H16= 57.92           C3-N2-C1-H17=178.00           C6-N2-C1-H15=117.27           
C6-N2-C1-H16=237.47           C6-N2-C1-H17=357.55           N4-C3-N2-C1=179.57            N4-C3-N2-C6=359.96            
H18-C3-N2-C1=359.48           H18-C3-N2-C6=179.87           C5-N4-C3-N2=  0.05            C5-N4-C3-H18=180.14           
H25-N4-C3-N2=179.75           H25-N4-C3-H18=359.84          C6-C5-N4-C3=359.96            C6-C5-N4-H25=180.27           
N13-C5-N4-C3=180.14           N13-C5-N4-H25=  0.45          C5-C6-N2-C1=180.40            C5-C6-N2-C3=  0.00            
C7-C6-N2-C1=  0.73            C7-C6-N2-C3=180.35            N2-C6-C5-N4=  0.00            N2-C6-C5-N13=179.85           
C7-C6-C5-N4=179.71            C7-C6-C5-N13=359.55           O8-C7-C6-N2=359.54            O8-C7-C6-C5=179.92            
N9-C7-C6-N2=179.46            N9-C7-C6-C5=359.83            C10-N9-C7-C6=180.64           C10-N9-C7-O8=  0.55           
C11-N9-C7-C6=359.96           C11-N9-C7-O8=179.88           H19-C10-N9-C7=359.26          H19-C10-N9-C11=179.84         
H20-C10-N9-C7=119.56          H20-C10-N9-C11=300.14         H21-C10-N9-C7=238.90          H21-C10-N9-C11= 59.48         

 CMA Distance (Angstroems)
 ---------------------------
R(CMA):  6.4574
           -------------------------------------------------
          |                Final Singlepoint                |
           -------------------------------------------------

          ...................................................
          :                      SETUP                      :
          :.................................................:
          :  # basis functions                  67          :
          :  # atomic orbitals                  67          :
          :  # shells                           39          :
          :  # electrons                        74          :
          :  max. iterations                   250          :
          :  Hamiltonian                  GFN2-xTB          :
          :  restarted?                      false          :
          :  GBSA solvation                  false          :
          :  PC potential                    false          :
          :  electronic temp.         5000.0000000     K    :
          :  accuracy                    1.0000000          :
          :  -> integral cutoff          0.2500000E+02      :
          :  -> integral neglect         0.1000000E-07      :
          :  -> SCF convergence          0.1000000E-05 Eh   :
          :  -> wf. convergence          0.1000000E-03 e    :
          :  Broyden damping             0.4000000          :
          ...................................................

 iter      E             dE          RMSdq      gap      omega  full diag
   1    -42.6256578 -0.426257E+02  0.481E-06    0.03       0.0  T
   2    -42.6256578  0.852651E-12  0.623E-06    0.03    3211.8  T
   3    -42.6256578 -0.895284E-12  0.390E-06    0.03    5134.4  T

   *** convergence criteria satisfied after 3 iterations ***

         #    Occupation            Energy/Eh            Energy/eV
      -------------------------------------------------------------
         1        2.0000           -0.9159367             -24.9239
       ...           ...                  ...                  ...
        31        1.9997           -0.6188872             -16.8408
        32        1.9987           -0.5982711             -16.2798
        33        1.9976           -0.5882712             -16.0077
        34        1.9969           -0.5840183             -15.8919
        35        1.9884           -0.5629445             -15.3185
        36        1.9878           -0.5621294             -15.2963
        37        0.9760           -0.4807846             -13.0828 (HOMO)
        38        0.9405           -0.4796599             -13.0522 (LUMO)
        39        0.1024           -0.4353204             -11.8457
        40        0.0105           -0.3985475             -10.8450
        41        0.0020           -0.3725004             -10.1363
        42        0.0000           -0.2875148              -7.8237
       ...           ...                  ...                  ...
        67                          0.5555184              15.1164
      -------------------------------------------------------------
                  HL-Gap            0.0011247 Eh            0.0306 eV
             Fermi-level           -0.4815454 Eh          -13.1035 eV

 SCC (total)                   0 d,  0 h,  0 min,  0.023 sec
 SCC setup                      ...        0 min,  0.000 sec (  0.831%)
 Dispersion                     ...        0 min,  0.000 sec (  0.810%)
 classical contributions        ...        0 min,  0.000 sec (  0.304%)
 integral evaluation            ...        0 min,  0.005 sec ( 21.378%)
 iterations                     ...        0 min,  0.005 sec ( 20.865%)
 molecular gradient             ...        0 min,  0.013 sec ( 55.225%)
 printout                       ...        0 min,  0.000 sec (  0.530%)

         :::::::::::::::::::::::::::::::::::::::::::::::::::::
         ::                     SUMMARY                     ::
         :::::::::::::::::::::::::::::::::::::::::::::::::::::
         :: total energy             -42.102917165568 Eh    ::
         :: gradient norm              0.002339254972 Eh/a0 ::
         :: HOMO-LUMO gap              0.030604087056 eV    ::
         ::.................................................::
         :: SCC energy               -42.625657767505 Eh    ::
         :: -> isotropic ES            0.138414769723 Eh    ::
         :: -> anisotropic ES         -0.004832985954 Eh    ::
         :: -> anisotropic XC          0.012755810636 Eh    ::
         :: -> dispersion             -0.022549242150 Eh    ::
         :: repulsion energy           0.522670289491 Eh    ::
         :: add. restraining           0.000000000000 Eh    ::
         :: total charge               1.000000000000 e     ::
         :::::::::::::::::::::::::::::::::::::::::::::::::::::

           -------------------------------------------------
          |                Property Printout                |
           -------------------------------------------------

    * Orbital Energies and Occupations

         #    Occupation            Energy/Eh            Energy/eV
      -------------------------------------------------------------
         1        2.0000           -0.9159367             -24.9239
       ...           ...                  ...                  ...
        25        2.0000           -0.6679656             -18.1763
        26        2.0000           -0.6673983             -18.1608
        27        2.0000           -0.6588457             -17.9281
        28        1.9999           -0.6346986             -17.2710
        29        1.9998           -0.6313328             -17.1794
        30        1.9998           -0.6274852             -17.0747
        31        1.9997           -0.6188872             -16.8408
        32        1.9987           -0.5982711             -16.2798
        33        1.9976           -0.5882712             -16.0077
        34        1.9969           -0.5840183             -15.8919
        35        1.9884           -0.5629445             -15.3185
        36        1.9878           -0.5621294             -15.2963
        37        0.9760           -0.4807846             -13.0828 (HOMO)
        38        0.9405           -0.4796599             -13.0522 (LUMO)
        39        0.1024           -0.4353204             -11.8457
        40        0.0105           -0.3985475             -10.8450
        41        0.0020           -0.3725004             -10.1363
        42        0.0000           -0.2875148              -7.8237
        43                         -0.2122218              -5.7748
        44                         -0.2000470              -5.4436
        45                         -0.1500207              -4.0823
        46                         -0.1335664              -3.6345
        47                         -0.0667334              -1.8159
        48                         -0.0391871              -1.0663
       ...                                ...                  ...
        67                          0.5555184              15.1164
      -------------------------------------------------------------
                  HL-Gap            0.0011247 Eh            0.0306 eV
             Fermi-level           -0.4815454 Eh          -13.1035 eV

     #   Z          covCN         q      C6AA      α(0)
     1   6 C        3.691    -0.097    22.538     6.793
     2   7 N        2.831     0.084    19.778     6.605
     3   6 C        3.051     0.053    26.754     8.483
     4   7 N        2.789    -0.057    22.347     7.021
     5   6 C        3.038     0.092    25.914     8.350
     6   6 C        3.113    -0.017    28.265     8.709
     7   6 C        2.763     0.266    22.505     7.769
     8   8 O        0.858    -0.367    21.040     6.150
     9   7 N        2.744    -0.079    22.767     7.087
    10   6 C        3.713    -0.064    21.862     6.681
    11   6 C        2.734     0.310    21.729     7.632
    12   8 O        0.859    -0.340    20.517     6.073
    13   7 N        2.735     0.009    21.107     6.823
    14   6 C        2.797    -0.060    29.478     8.894
    15   1 H        0.924     0.109     1.709     2.045
    16   1 H        0.925     0.108     1.717     2.049
    17   1 H        0.925     0.139     1.465     1.893
    18   1 H        0.926     0.127     1.557     1.952
    19   1 H        0.925     0.116     1.646     2.006
    20   1 H        0.925     0.098     1.803     2.100
    21   1 H        0.925     0.098     1.800     2.098
    22   1 H        0.926     0.086     1.918     2.166
    23   1 H        0.926     0.131     1.529     1.934
    24   1 H        0.000     0.024     6.646     4.714
    25   1 H        0.860     0.229     0.970     1.543

 Mol. C6AA /au·bohr⁶  :       6804.804946
 Mol. C8AA /au·bohr⁸  :     155413.120143
 Mol. α(0) /au        :        127.568514


Wiberg/Mayer (AO) data.
largest (>0.10) Wiberg bond orders for each atom

 ---------------------------------------------------------------------------
     #   Z sym  total        # sym  WBO       # sym  WBO       # sym  WBO
 ---------------------------------------------------------------------------
     1   6 C    3.912 --     2 N    0.984    16 H    0.960    17 H    0.959
                            15 H    0.958
     2   7 N    3.670 --     3 C    1.384     6 C    1.165     1 C    0.984
     3   6 C    3.839 --     2 N    1.384     4 N    1.287    18 H    0.952
     4   7 N    3.552 --     3 C    1.287     5 C    1.165    25 H    0.918
     5   6 C    3.885 --     6 C    1.337    13 N    1.166     4 N    1.165
     6   6 C    3.857 --     5 C    1.337     2 N    1.165     7 C    1.076
     7   6 C    3.916 --     8 O    1.672     9 N    1.081     6 C    1.076
     8   8 O    1.985 --     7 C    1.672     9 N    0.138
     9   7 N    3.569 --    11 C    1.170     7 C    1.081    10 C    0.963
                            12 O    0.151     8 O    0.138
    10   6 C    3.912 --    19 H    0.968    21 H    0.966    20 H    0.966
                             9 N    0.963
    11   6 C    3.924 --    12 O    1.724     9 N    1.170    13 N    0.934
    12   8 O    2.052 --    11 C    1.724     9 N    0.151
    13   7 N    3.623 --    14 C    1.298     5 C    1.166    11 C    0.934
    14   6 C    3.337 --    13 N    1.298    22 H    0.970    23 H    0.958
    15   1 H    0.985 --     1 C    0.958
    16   1 H    0.985 --     1 C    0.960
    17   1 H    0.980 --     1 C    0.959
    18   1 H    0.983 --     3 C    0.952
    19   1 H    0.985 --    10 C    0.968
    20   1 H    0.987 --    10 C    0.966
    21   1 H    0.987 --    10 C    0.966
    22   1 H    0.992 --    14 C    0.970
    23   1 H    0.982 --    14 C    0.958
    24   1 H    0.002
    25   1 H    0.947 --     4 N    0.918
 ---------------------------------------------------------------------------

Topologies differ in total number of bonds
Writing topology from bond orders to xtbtopo.mol

molecular dipole:
                 x           y           z       tot (Debye)
 q only:        2.653      -1.837       0.067
   full:        2.942      -2.415       0.076       9.676
molecular quadrupole (traceless):
                xx          xy          yy          xz          yz          zz
 q only:       15.713      -5.270       3.755       0.554      -0.390     -19.469
  q+dip:       13.891      -8.473       3.504       0.464      -0.363     -17.395
   full:       12.758      -8.356       2.521       0.415      -0.339     -15.279

           -------------------------------------------------
          |                Geometry Summary                 |
           -------------------------------------------------

      molecular mass/u    :      195.1988581
   center of mass at/Å    :        0.1000009       0.0564459       0.0020948
  moments of inertia/u·Å² :        0.4849850E+03   0.7348019E+03   0.1213402E+04
rotational constants/cm⁻¹ :        0.3475908E-01   0.2294174E-01   0.1389287E-01

 * 24 selected distances

     #   Z          #   Z                                           value/Å
     1   6 C        2   7 N                                       1.4390082
     2   7 N        3   6 C                                       1.3285626
     3   6 C        4   7 N                                       1.3494217
     4   7 N        5   6 C                                       1.3734580
     2   7 N        6   6 C                                       1.3739182
     5   6 C        6   6 C                                       1.3903738
     6   6 C        7   6 C                                       1.4458429
     7   6 C        8   8 O                                       1.2103533
     7   6 C        9   7 N                                       1.3993153
     9   7 N       10   6 C                                       1.4597550 (max)
     9   7 N       11   6 C                                       1.3674397
    11   6 C       12   8 O                                       1.1976016
     5   6 C       13   7 N                                       1.3531625
    13   7 N       14   6 C                                       1.3420848
     1   6 C       15   1 H                                       1.0902855
     1   6 C       16   1 H                                       1.0898241
     1   6 C       17   1 H                                       1.0896612
     3   6 C       18   1 H                                       1.0724359
    10   6 C       19   1 H                                       1.0870773
    10   6 C       20   1 H                                       1.0891149
    10   6 C       21   1 H                                       1.0888687
    14   6 C       22   1 H                                       1.0720421
    14   6 C       23   1 H                                       1.0735350
     4   7 N       25   1 H                                       1.0094840 (min)

 * 5 distinct bonds (by element types)

   Z      Z             #   av. dist./Å        max./Å        min./Å
   1 H    6 C           9     1.0836494     1.0902855     1.0720421
   6 C    6 C           2     1.4181083     1.4458429     1.3903738
   1 H    7 N           1     1.0094840     1.0094840     1.0094840
   6 C    7 N          10     1.3786126     1.4597550     1.3285626
   6 C    8 O           2     1.2039775     1.2103533     1.1976016


optimized geometry written to: xtbopt.xyz


           -------------------------------------------------
          | TOTAL ENERGY              -42.102917165568 Eh   |
          | GRADIENT NORM               0.002339254972 Eh/α |
          | HOMO-LUMO GAP               0.030604087056 eV   |
           -------------------------------------------------

------------------------------------------------------------------------
 * finished run on 2024/06/05 at 20:00:20.226     
------------------------------------------------------------------------
 total:
 * wall-time:     0 d,  0 h,  0 min,  0.124 sec
 *  cpu-time:     0 d,  0 h,  0 min,  0.096 sec
 * ratio c/w:     0.775 speedup
 SCF:
 * wall-time:     0 d,  0 h,  0 min,  0.026 sec
 *  cpu-time:     0 d,  0 h,  0 min,  0.026 sec
 * ratio c/w:     1.000 speedup
 ANC optimizer:
 * wall-time:     0 d,  0 h,  0 min,  0.063 sec
 *  cpu-time:     0 d,  0 h,  0 min,  0.056 sec
 * ratio c/w:     0.891 speedup

