25
 energy: -40.447491374733 gnorm: 8.786852810759 xtb: 6.6.1 (8d0f1dd)
C            3.03676898281350        1.09224066385180        0.26450225899487
N            2.18214538467214       -0.03678557185067        0.02047896819298
C            2.59992284301385       -1.28128155297268       -0.19512908148505
N            1.54267646252674       -2.09069152851292       -0.35964519969358
C            0.38228212854500       -1.34438961997684       -0.22589135087885
C            0.80207531082340       -0.02578759935377        0.03279048146161
C            0.00947110761663        1.20827031190738        0.01287211861103
O            0.48885657518639        2.27588821035683       -0.32942537422853
N           -1.32824241908772        1.06690240845361        0.32658947334807
C           -2.26153754255536        2.09049126906525       -0.07617957744846
C           -1.79590317662514       -0.02962285790649        1.16606201880516
O           -3.02658599451753       -0.07874788236263        1.27189452570762
N           -0.87881420258452       -1.77090871220971       -0.28056443152141
C           -1.35586164110893       -2.86228044988756       -0.74939865769929
H            3.07735906511459        1.31209894404031        1.33372606446291
H            4.04063903231156        0.87705348767282       -0.09350864428852
H            2.63611650566560        1.96959060108960       -0.24573493793803
H            3.62614281384604       -1.59105146101375       -0.23343645550584
H           -1.72323351514247        2.88889497162070       -0.58258538580931
H           -3.00943477133160        1.65304045576031       -0.74123655888427
H           -2.78279707942563        2.48384199317124        0.79833536154041
H           -1.49178262947397       -0.26227331114711        1.34900929321026
H           -0.78198251747901       -3.61927910502955       -1.27836070682849
H           -2.41553683686098       -3.02148018615503       -0.62960757111770
H            1.58768762815962       -3.08549493701170       -0.52438501310635
25
 energy: -42.143359653696 gnorm: 0.343181590662 xtb: 6.6.1 (8d0f1dd)
C            3.03676209480706        1.09223706406355        0.26450906443087
N            2.18213388662895       -0.03677620205656        0.02049123479377
C            2.59991228146981       -1.28128027205515       -0.19513285725033
N            1.54267441689103       -2.09068375162209       -0.35963170414187
C            0.38227122121831       -1.34438442019340       -0.22589833764948
C            0.80208814804792       -0.02587082153153        0.03277489731909
C            0.00925265575914        1.20782329544868        0.01334637625434
O            0.48895817168968        2.27577877875584       -0.32936712902577
N           -1.33398188995075        1.07397350956179        0.32140078872520
C           -2.26142415108489        2.09152197124254       -0.07683078313005
C           -1.99836531633506        0.12682716498605        1.04248565561848
O           -3.04534214813194       -0.07256007451433        1.26785927750328
N           -0.87891512516377       -1.77077370049126       -0.28051050482750
C           -1.35583399115298       -2.86228296353243       -0.74937343976734
H            3.07734972099544        1.31210274332105        1.33372251927417
H            4.04065068183072        0.87705211551485       -0.09351247538452
H            2.63611699634649        1.96958698250529       -0.24574288273966
H            3.62614251368902       -1.59104940761758       -0.23343103455919
H           -1.72319129210351        2.88896482561726       -0.58260143122049
H           -3.00942915376581        1.65308719376529       -0.74127561573291
H           -2.78280915341020        2.48385101023538        0.79832459139045
H           -1.26475213353088       -0.43266040051033        1.48192148282757
H           -0.78199227048934       -3.61926588667021       -1.27835375353391
H           -2.41553678123204       -3.02148290503025       -0.62961331647720
H            1.58769213107979       -3.08549730759302       -0.52438900479579
25
 energy: -42.169971784548 gnorm: 0.096191996493 xtb: 6.6.1 (8d0f1dd)
C            3.03581780239200        1.08927623460654        0.26932026125543
N            2.17772184221113       -0.03719870040937        0.02388477342564
C            2.59651402589175       -1.28230801752402       -0.19043048916966
N            1.53986340928145       -2.09181943853808       -0.35715521259817
C            0.37886205636481       -1.34494288684512       -0.23001801931237
C            0.79529175135159       -0.02464176992424        0.03024203212127
C           -0.00021234605913        1.21011564178322        0.00441464744032
O            0.48439691570216        2.27648679979600       -0.32812187145349
N           -1.35026247976943        1.08907744844131        0.30336215339351
C           -2.27045410989869        2.12183600010719       -0.09790422521245
C           -1.93091572598537        0.11330647667449        1.05461931412344
O           -3.10927499827302       -0.14499923148903        1.33107698268356
N           -0.88065160827378       -1.77132359900792       -0.29132109038510
C           -1.35658975664146       -2.86431473078090       -0.75549240360969
H            3.07552365543614        1.30922994061087        1.33846893536570
H            4.04034095002162        0.87170149117889       -0.08684913275241
H            2.63896119812158        1.96713989109180       -0.24231598678514
H            3.62294002304730       -1.59290085110662       -0.22643654834925
H           -1.72671210730862        2.91598869589142       -0.59970650115559
H           -3.01600046387424        1.67514310072035       -0.75827349132341
H           -2.78473370701681        2.50643303472456        0.78484911297057
H           -1.18574150791229       -0.44232710473217        1.49310197036978
H           -0.78293849796422       -3.62307584789894       -1.28045049252424
H           -2.41663806486699       -3.02098384160223       -0.63594625926781
H            1.58532325812476       -3.08666019416856       -0.52174684134923
25
 energy: -42.175925020899 gnorm: 0.071440899045 xtb: 6.6.1 (8d0f1dd)
C            3.02805186411989        1.09045488472567        0.26908000007899
N            2.17088695491785       -0.03692004148292        0.02276347635990
C            2.59321836044455       -1.28071196627568       -0.19073279483054
N            1.53975680129216       -2.09351696770110       -0.36121664464824
C            0.37595286871703       -1.35020953407493       -0.24063072698110
C            0.78825084511216       -0.02999066129544        0.03052557907013
C           -0.00674795522136        1.20284714965313        0.01994929116633
O            0.47098167820039        2.27032656746134       -0.31836055618590
N           -1.35773165484976        1.08545120916641        0.32110118071629
C           -2.26978238380915        2.13150024116416       -0.10923355924072
C           -1.90868862209084        0.10238656338719        1.09756539667281
O           -3.08193469017571       -0.12538421023909        1.32527900258391
N           -0.88158601085849       -1.78010866228068       -0.30988117019182
C           -1.35471349764396       -2.87496566967915       -0.77077873235312
H            3.06756190988598        1.31104282058632        1.33809977306252
H            4.03289953380256        0.87211343311865       -0.08599118536701
H            2.63339340438829        1.96853828511558       -0.24376092609139
H            3.62054595785488       -1.58809265299529       -0.22314705071906
H           -1.72174510670318        2.92200254042377       -0.61628525090589
H           -3.01962409427144        1.69715866155847       -0.77338491146147
H           -2.78903805664977        2.53794176159567        0.76068486767084
H           -1.16587951108576       -0.45323520511479        1.54806814366410
H           -0.77814716220194       -3.63889382713358       -1.28532402464191
H           -2.41418643284311       -3.03332895209817       -0.64761617606614
H            1.58873651377095       -3.08816722598611       -0.52560138346028
25
 energy: -42.179126662179 gnorm: 0.053979717920 xtb: 6.6.1 (8d0f1dd)
C            3.01574297338306        1.09228214886824        0.27246244453607
N            2.16019283816685       -0.03580592305733        0.02442568641982
C            2.58718279371238       -1.27787252530961       -0.18899718504603
N            1.53751744409004       -2.09366047732923       -0.36702693692396
C            0.36991784910756       -1.35458351720351       -0.25099325456575
C            0.77753998274366       -0.03316913748320        0.02366357212232
C           -0.01520191439695        1.19830758541879        0.01914434719282
O            0.46371499343915        2.26826884625730       -0.31473822175472
N           -1.36632808119735        1.08397174171544        0.33293770860449
C           -2.27222685012873        2.13294414785069       -0.11746958752545
C           -1.87708453259138        0.09232961227880        1.14207665951646
O           -3.04686768180935       -0.07636756936992        1.33041334537789
N           -0.88483837272073       -1.78897346391324       -0.32901282165383
C           -1.35231967176599       -2.88955864613266       -0.78167131607738
H            3.05164705446073        1.31508366896856        1.34107831156697
H            4.02157882184992        0.87169434573573       -0.07884926201577
H            2.62399297582800        1.96941468263285       -0.24423051396254
H            3.61569671686644       -1.58160613393918       -0.21626915668179
H           -1.70556159332330        2.90870525460523       -0.62959408137209
H           -3.01943467866526        1.70408768700353       -0.78778897658736
H           -2.79226563973320        2.56202106934401        0.74163693424653
H           -1.13490325423478       -0.46493584050619        1.61091877645180
H           -0.77363066757464       -3.65405482285493       -1.29386986640633
H           -2.41442246977770       -3.04242827491870       -0.67385294625239
H            1.59079247837383       -3.08785591706207       -0.53322204130857
25
 energy: -42.179758806209 gnorm: 0.049865298654 xtb: 6.6.1 (8d0f1dd)
C            3.00994920521062        1.09299698054395        0.27389483467862
N            2.15670352174969       -0.03624271304714        0.02439166393245
C            2.58454680084651       -1.27780965897328       -0.18931938407497
N            1.53543125324629       -2.09338291878655       -0.37156924473933
C            0.36682277050908       -1.35467316551307       -0.25651998739744
C            0.77473984297588       -0.03385875212945        0.02072989202663
C           -0.01345886338789        1.19932242075805        0.01990392949638
O            0.46791365332183        2.26745169853899       -0.31797246988885
N           -1.36370026158920        1.08512823849080        0.33858792833540
C           -2.27041588979559        2.12579033407002       -0.11950258944243
C           -1.87034580521580        0.09948184294125        1.16459300536998
O           -3.04580802662754       -0.04894032188767        1.33878707106001
N           -0.88757332073597       -1.78874038084833       -0.34156242173231
C           -1.35173443091804       -2.89010679723587       -0.79670813833035
H            3.04106969147381        1.31754021267549        1.34228626107315
H            4.01701426913853        0.87311629388499       -0.07382856320771
H            2.61817522933956        1.96893506873736       -0.24499572533450
H            3.61325836307842       -1.58084761000224       -0.21378827885133
H           -1.69681816629898        2.89420733483559       -0.63471316213104
H           -3.01417099291376        1.69310860030511       -0.79070761831722
H           -2.79322186763580        2.56260558550550        0.73336539528474
H           -1.12752798850259       -0.45856684025693        1.64560894124308
H           -0.76765701069093       -3.66118414683015       -1.29406642032576
H           -2.41232727845234       -3.05000189561644       -0.68530291667591
H            1.58956681597645       -3.08709086856057       -0.54042038415009
25
 energy: -42.180460135591 gnorm: 0.040857932515 xtb: 6.6.1 (8d0f1dd)
C            3.00311960834022        1.09316239982559        0.27656066649520
N            2.15350832106760       -0.03776611591517        0.02378000885875
C            2.58149973292912       -1.27881538799474       -0.19110879681840
N            1.53223794469557       -2.09314827382167       -0.37702893097252
C            0.36269642011929       -1.35426272430664       -0.26112526073756
C            0.77249186983847       -0.03427029108408        0.01511724431648
C           -0.01016724011466        1.20131450734532        0.01576017056359
O            0.47397358302783        2.26638936520073       -0.32902964062562
N           -1.35679746633978        1.08620761137615        0.34487915910811
C           -2.26732557004392        2.11167787621809       -0.12062478160747
C           -1.86466507170538        0.11282399589914        1.19026994915746
O           -3.04740610368920       -0.00358638128560        1.36348841305954
N           -0.89111894506668       -1.78860523340255       -0.35102800790045
C           -1.34740562929101       -2.89471131093452       -0.80430285969851
H            3.02380351266119        1.32163147377834        1.34446662060381
H            4.01304793059946        0.87446458813805       -0.06252199956173
H            2.61278603317995        1.96680305570247       -0.24764980635980
H            3.61020912816038       -1.58174520941928       -0.21196176433632
H           -1.69069117079570        2.87344078723043       -0.64145557890337
H           -3.00586966043041        1.67000296668143       -0.79156610984347
H           -2.79675277659966        2.55607027548232        0.72293603867507
H           -1.11813774639541       -0.44740686462384        1.69104353348161
H           -0.75812465983755       -3.66350270982412       -1.29884503190349
H           -2.41129285065977       -3.05182914920566       -0.71894145970583
H            1.58681232045236       -3.08610070946083       -0.54994015744389
25
 energy: -42.180944609831 gnorm: 0.030069110838 xtb: 6.6.1 (8d0f1dd)
C            3.00147449797787        1.09110263986691        0.28014566366413
N            2.15329181116190       -0.04007757059978        0.02440311460771
C            2.57908187075603       -1.28152527149264       -0.19197723588899
N            1.52801372383559       -2.09292777296385       -0.37970847360949
C            0.35933278328636       -1.35148650239091       -0.26337956737496
C            0.77266977684364       -0.03343214677185        0.01324145722569
C           -0.00841806750501        1.20350221898728        0.01061598255700
O            0.47529168080907        2.26599152730697       -0.34204085731527
N           -1.35111644297885        1.08729928797849        0.34878778165016
C           -2.26741401194042        2.10009629711699       -0.12254268265094
C           -1.86105879408754        0.12667807778590        1.20520696742173
O           -3.04421461980714        0.02206542670698        1.39223489922014
N           -0.89556198136309       -1.78185709005394       -0.36188124795687
C           -1.34596730141040       -2.88750861810794       -0.82250619025253
H            3.01181513382964        1.32362855415056        1.34743143583662
H            4.01430609126663        0.87169816361725       -0.04916845722715
H            2.61535267260082        1.96301795969088       -0.25039624201168
H            3.60725735081721       -1.58623491228467       -0.21164927417850
H           -1.69654984546095        2.86207384759518       -0.64904277641573
H           -3.00222459218659        1.64782922470624       -0.79124504530749
H           -2.80328488881022        2.54651324792912        0.71536982574780
H           -1.10758105520394       -0.43482810055869        1.72101695300034
H           -0.74745851370382       -3.66293861235606       -1.29729590004181
H           -2.40763654736175       -3.05531320143074       -0.73711407469436
H            1.58103078273728       -3.08512813282835       -0.55733443810438
25
 energy: -42.181418049705 gnorm: 0.014154624150 xtb: 6.6.1 (8d0f1dd)
C            3.00294829556219        1.08743089194079        0.28447674510897
N            2.15493068101487       -0.04288875170456        0.02494999537674
C            2.57674980442677       -1.28535383838061       -0.19377490691004
N            1.52281682529398       -2.09298635954863       -0.38054062250623
C            0.35640837398187       -1.34766182409383       -0.26264744571030
C            0.77445228384147       -0.03189612519747        0.01407818468167
C           -0.00785499237914        1.20579524924020        0.00610206038933
O            0.47207478417602        2.26495906091876       -0.35959125965137
N           -1.34659857927353        1.08899365869253        0.35364605900879
C           -2.27189284033910        2.08850081995404       -0.12831636556245
C           -1.85413082240618        0.14399414477673        1.22084601711472
O           -3.03220795639583        0.02934846548341        1.42570244123447
N           -0.90005862010502       -1.77385446217519       -0.36482575305056
C           -1.34324249660322       -2.88141764990725       -0.82804977232796
H            3.00081887538725        1.32515196437114        1.35074510675346
H            4.01935240855146        0.86475385166935       -0.03143051306948
H            2.62491602035526        1.95758901695739       -0.25506242869544
H            3.60395315239595       -1.59336806662808       -0.21396620305679
H           -1.71285418784802        2.85481761625394       -0.66176909850120
H           -3.00218414134861        1.62170896363808       -0.79326935982792
H           -2.81536476763976        2.53476111898980        0.70515953394816
H           -1.08835085079257       -0.41774630099563        1.75297125147903
H           -0.73934797505469       -3.65160328031660       -1.30233466968500
H           -2.40783803781013       -3.04624261453429       -0.76947696309760
H            1.57293627711106       -3.08454700780473       -0.56245041554187
25
 energy: -42.181590223867 gnorm: 0.004850085770 xtb: 6.6.1 (8d0f1dd)
C            3.00633816871498        1.08519528881669        0.28653820667783
N            2.15687473582409       -0.04393029040342        0.02666796648826
C            2.57564921408143       -1.28734756739762       -0.19360352070941
N            1.51965918407164       -2.09277598643345       -0.37916990252666
C            0.35553516508535       -1.34467830960052       -0.26062310044712
C            0.77632631813935       -0.03064448776322        0.01871540396488
C           -0.00828564018401        1.20643015050384        0.00577702875270
O            0.46839213340522        2.26419403262599       -0.36639717099200
N           -1.34675836120401        1.09040438831662        0.35584526893245
C           -2.27759545212392        2.08637863749384       -0.13307878585834
C           -1.84882997435971        0.14879157537312        1.22270526785412
O           -3.02080044962433        0.01330974399703        1.43896304803963
N           -0.90281998443783       -1.76627008716629       -0.36577441597505
C           -1.34534139989991       -2.87146235433533       -0.83454933094483
H            2.99899586857180        1.32696426041413        1.35168943024351
H            4.02413207798311        0.85829811264921       -0.02207818187784
H            2.63464845660086        1.95418302009027       -0.25918329804182
H            3.60212011007648       -1.59783696618981       -0.21653750239342
H           -1.72558765489343        2.85676515269003       -0.66829968084535
H           -3.00412411782062        1.61212520607713       -0.79700820465612
H           -2.82447338704495        2.52988386079889        0.70026813219476
H           -1.07437245716703       -0.41296507423028        1.75964366530908
H           -0.73836552090221       -3.64343722581839       -1.30251092613882
H           -2.40825345980369       -3.03921685030126       -0.77395199144236
H            1.56736794101367       -3.08411968860789       -0.56287578770692
