72
 energy: -99.268952655856 gnorm: 0.003841539419 xtb: 6.6.1 (8d0f1dd)
N           -1.89740467267228        2.79904142639777        2.23404853263980
C           -1.84949410513360        2.12321814351466        1.18507970257989
C           -3.00267813801260        1.91683349771221        0.24291464197337
C           -3.47701075633109        0.47353713785411        0.32804069833714
C           -4.42372918331527        0.00411408673469       -0.58483966366325
C           -4.89810071616035       -1.29553944691370       -0.53264164175847
O           -5.82048722625573       -1.82180603035389       -1.36477799401976
C           -6.45195570162561       -0.98823052403650       -2.30792242995163
C           -4.40075816622266       -2.18279852309480        0.45982205484701
O           -4.90705042055399       -3.43204835165133        0.42603006024639
C           -4.51996093865770       -4.35582892573001        1.41600160594524
C           -3.46345841017343       -1.71040406914280        1.36404540458277
C           -3.01124655246919       -0.39761862559735        1.30018743859410
C           -2.45256405793753        2.20630710924700       -1.17836577680348
C           -1.52771525477418        1.11048492547098       -1.73994497172951
C           -0.19114267512877        1.08347384162148       -1.10500382503991
N            0.45701221840583       -0.01002039107934       -0.71191665190747
C            1.83738158634202        0.06860417239026       -0.29852591577815
C            2.79906674358688       -0.41249436854497       -1.40330436802414
C            4.22107797166912       -0.20785099741561       -0.96317443015972
C            4.85992535985621        1.00236789590958       -1.20226310411641
C            6.15703584503549        1.21449866164827       -0.77715580311987
C            6.84191176418928        0.21384997422683       -0.09178675311981
O            8.11002863663143        0.30916679703862        0.37999697378136
C            8.94556595030186        1.27097565954869        0.10254713645946
C            6.19610816844010       -1.02491117730527        0.17212743341537
O            6.93580259861686       -1.93075470790777        0.83555851275250
C            6.39425417964271       -3.20355168126549        1.10996660587577
C            4.89418873153092       -1.21086202535504       -0.27045837971823
C           -0.15715241215707       -1.31573862723901       -0.73573183142743
C           -4.21335770033045        2.85053505962334        0.54197595700984
C           -4.85497282971634        2.52118601958687        1.88762631225740
C           -3.85368653030156        4.33278954694629        0.49034629407967
H           -4.80636434596404        0.67147876296882       -1.33884586733201
H           -6.96054694442603       -0.14905387997788       -1.82380134344547
H           -7.18808675356599       -1.61639189925627       -2.80554507100887
H           -5.74207977360036       -0.60871472293848       -3.05014250668476
H           -4.77079989723641       -3.99827717133785        2.41898182267685
H           -5.08347626567647       -5.26256398049546        1.20498850767886
H           -3.44857616881624       -4.57526533612220        1.36320576393608
H           -3.08362823457141       -2.35452236177571        2.14055403557433
H           -2.30556429091387       -0.05822518606054        2.04268002206501
H           -3.29283403391529        2.32170865840889       -1.86213533510467
H           -1.91118741507570        3.15308459829856       -1.15981768768314
H           -2.02437522155619        0.14398232521875       -1.67618444652984
H           -1.38001670359176        1.34030748326467       -2.80334234624024
H           -0.92939524983591        1.63068027776105        0.81058300130320
H            0.37155299327634        2.00547734914724       -1.09404299096350
H            1.98001529938816       -0.54160355853256        0.59778293555509
H            2.08004151123182        1.10344945357110       -0.04793888412534
H            2.60605901928915        0.16265593918646       -2.31020505688366
H            2.61551301293467       -1.46604185591891       -1.61588034726958
H            4.34595687397907        1.78746822189514       -1.73471536983594
H            6.62450696746152        2.16650136226616       -0.96848926830549
H           10.42351721874714        3.65650172058157        1.20291248716842
H            8.71398765442400        2.09031417785450       -0.55813655485228
H            9.89646721331190        1.20251972707578        0.59622773512575
H            7.18157245504787       -3.74757851309176        1.62765299648416
H            5.51623867273659       -3.13345707904109        1.75881927084838
H            6.13290813568724       -3.73341734843550        0.18941172116481
H            4.39852672695108       -2.15074819607696       -0.08845996268044
H           -0.30745359088897       -1.66437248371735       -1.75996115911157
H           -1.12419952122568       -1.29197729924354       -0.22729014090567
H            0.48656809959800       -2.02350988416943       -0.21953806224936
H           -4.95559704205396        2.65657106932535       -0.24064448182213
H           -4.15390909722478        2.71789249722752        2.69222724498239
H           -5.16127959119746        1.47888750153997        1.93267733580911
H           -5.73441532393732        3.14301660947285        2.03325155114162
H           -3.09525253670995        4.56420017420958        1.23196194457825
H           -3.49802960446802        4.63066764739797       -0.49260842158997
H           -4.73868427534186        4.92200413854504        0.71605500968158
H           -1.04659768158946        2.88996510063669        2.78051493640963
