72
 energy: -103.314358502620 gnorm: 0.071192301835 xtb: 6.6.1 (8d0f1dd)
N           -1.51573805250259        2.78719466604023        2.25414927889020
C           -1.57789054845079        2.15688944306943        1.16978354531525
C           -2.76070133305928        2.06473255032610        0.25320276753960
C           -3.33195026944286        0.65454941104268        0.33368309890139
C           -4.32069949120802        0.25164907537422       -0.56792560771196
C           -4.87218662299871       -1.01534943468080       -0.52114483033129
O           -5.83886983106865       -1.48640839054421       -1.35926035051337
C           -6.41540543984836       -0.60332715636431       -2.29001934371550
C           -4.42228714276721       -1.93563391742149        0.45177036872036
O           -5.01462641954385       -3.16301719840587        0.41670614496469
C           -4.68590825953791       -4.09392178831517        1.41599357983828
C           -3.44308932146845       -1.53536737476863        1.34319853417700
C           -2.90412375110025       -0.25348398793944        1.28361395288939
C           -2.21109173765519        2.29966503176560       -1.17098812092034
C           -1.27459631009459        1.18326878851976       -1.67627948118128
C           -0.00422018222534        1.11615320639909       -0.93830043448457
N            0.65273243298895       -0.09737690382991       -0.58649166405976
C            2.05001739727305       -0.08700954905499       -0.24960728335145
C            3.00237717536011       -0.55716388514441       -1.32797039497973
C            4.41397699361142       -0.43990429798945       -0.86452681248897
C            5.12763744706449        0.72672354830483       -1.05493028469570
C            6.43623388927874        0.83960545668131       -0.60081574017590
C            7.04450537433356       -0.21150119408484        0.06400078044081
O            8.30829801866969       -0.21444379051463        0.53799345563926
C            9.11193709863701        0.92601870312846        0.33631037378409
C            6.31253361360011       -1.40253894140040        0.28101782095184
O            6.98456973241909       -2.38431849780761        0.93845074492878
C            6.34894535837931       -3.61392181884966        1.15798023107938
C            5.00856624242604       -1.49577400006219       -0.17569588160299
C           -0.07960428341552       -1.34613068402852       -0.65295506728606
C           -3.89067860204457        3.08071103662879        0.58143924535217
C           -4.52107814498363        2.78190836434770        1.94103876978949
C           -3.41396484397235        4.53030380941455        0.54965418976884
H           -4.67976379225975        0.95092894477582       -1.30836979361430
H           -6.86788521850829        0.26818648843035       -1.80048036769458
H           -7.19078455732737       -1.17689201021631       -2.79374744998967
H           -5.68145544530744       -0.26312563060332       -3.02875302547046
H           -4.90481264535626       -3.70744980052979        2.41848608710755
H           -5.31122571840913       -4.96539311905001        1.22249329881810
H           -3.63062810829641       -4.38598836698607        1.36242866517242
H           -3.09592071709367       -2.20970554182812        2.10451567889261
H           -2.16611573467901        0.03235863846071        2.01009198799438
H           -3.04197370819012        2.39364516657302       -1.87310402357014
H           -1.65865199672788        3.24148619272520       -1.18805889395505
H           -1.83945347999556        0.23209132244122       -1.63264073815111
H           -1.01524322950430        1.38023579423836       -2.72115940466907
H           -0.71150695493309        1.66402997404459        0.70038222003506
H            0.65338612033150        1.98247022213010       -0.99315475685908
H            2.17507908096184       -0.69171412507455        0.68282415874118
H            2.32655138845490        0.94430803062503        0.03124776336456
H            2.85155340983090        0.05310299475691       -2.22250175927231
H            2.75561921406382       -1.59160030254937       -1.56418703179500
H            4.68102585386402        1.55939399678322       -1.57367585750468
H            6.97555372794320        1.75668931667950       -0.78008038403211
H            8.69178195836618        1.80707805273641        0.83100270093192
H            9.25112836977431        1.13790599228575       -0.72827898191245
H           10.07622235344836        0.69290107835004        0.78176878365685
H            7.08470382119621       -4.24002303760011        1.66677035504897
H            5.46822770414307       -3.50158560818736        1.79627542133869
H            6.05916956303113       -4.09096343129793        0.21636230279842
H            4.44494679628004       -2.40040136726572       -0.01730610943372
H           -0.24374285052376       -1.65299513131255       -1.66617585522978
H           -1.06094640432767       -1.23889949863072       -0.17343383292583
H            0.51084161809797       -2.09715841815646       -0.12324955862099
H           -4.66052742224791        2.96210884608401       -0.18546869739029
H           -3.78194260991109        2.90306028569611        2.71815722906967
H           -4.90858803495298        1.76548290488856        1.97426278959616
H           -5.34620539892801        3.46702194254780        2.12756786681705
H           -2.62467498167609        4.68054061081853        1.27695908969448
H           -3.05225382539032        4.81475610225597       -0.43465307170408
H           -4.24421602224972        5.19161903403790        0.80390874125700
H           -0.64208120190499        2.77693457145495        2.76038748247939
72
 energy: -103.317019255824 gnorm: 0.025683866382 xtb: 6.6.1 (8d0f1dd)
N           -1.53414809860603        2.80228663352860        2.25704154082368
C           -1.58019266724637        2.16115626251742        1.17772157477987
C           -2.76067622568100        2.06418690871836        0.25467250425248
C           -3.33644521403257        0.65569375053317        0.33596771473596
C           -4.32400616063055        0.25302153937828       -0.56590723339677
C           -4.87176227475748       -1.01513213876748       -0.52148875506949
O           -5.84028008315366       -1.48456174465907       -1.35863470192042
C           -6.41315256386481       -0.60194157247951       -2.29014554971849
C           -4.42284492750763       -1.93531366299136        0.45175348611779
O           -5.01578717438456       -3.16266306492903        0.41759264192806
C           -4.68428698091835       -4.09289230193959        1.41617895611765
C           -3.44745466547052       -1.53485364940936        1.34528125072049
C           -2.91167613869388       -0.25264517039794        1.28733909525082
C           -2.20262090940208        2.29958507977992       -1.17151605294030
C           -1.26995850654568        1.18087511692322       -1.68062090748447
C            0.01035658254251        1.11245093140552       -0.93439703370556
N            0.64928881331675       -0.08435639132078       -0.58619910208115
C            2.03931814138794       -0.07575445287825       -0.23212733888970
C            2.99173111087925       -0.56097142497225       -1.32917221185137
C            4.41085613775286       -0.44250638353726       -0.86549674720699
C            5.12772398671452        0.72331453327527       -1.05764710962497
C            6.43442088178500        0.83793817307534       -0.60123261658266
C            7.04392951938248       -0.21159920109798        0.06373966177586
O            8.31477400774788       -0.21415902809656        0.54033139798575
C            9.11246547759565        0.92687402436180        0.33656259034096
C            6.31310869925190       -1.40257792161458        0.27990024795716
O            6.98811004640358       -2.38396755817728        0.94003291170463
C            6.34806547306799       -3.61321580853717        1.15802205824505
C            5.01184514379131       -1.49753397800906       -0.17929025858001
C           -0.06698587482430       -1.33627149845939       -0.65224428924579
C           -3.89244445505758        3.07981196945282        0.57986575278997
C           -4.52285674428436        2.78116328559531        1.93939493021667
C           -3.41483673531550        4.52978201386580        0.54920015123552
H           -4.67671176080258        0.95042391825719       -1.30879914630749
H           -6.86550227968695        0.26736608606324       -1.79985761926743
H           -7.18984487141014       -1.17465930413426       -2.79408968556382
H           -5.67965459135350       -0.26139393673766       -3.02919706739216
H           -4.90312339828819       -3.70673656825207        2.41784770216240
H           -5.30848623877430       -4.96445206354184        1.22327020756331
H           -3.62960879076046       -4.38537543570172        1.36314867797328
H           -3.09402183062995       -2.21208156555912        2.10515274277426
H           -2.16536842119642        0.03077230180645        2.01102487221499
H           -3.03736433914260        2.39528091001290       -1.86889854887593
H           -1.65349184007197        3.24296444918752       -1.18532738399470
H           -1.81879744182186        0.23466461756978       -1.63695650311149
H           -1.05281904768801        1.38893190079208       -2.73857804447995
H           -0.71026011874655        1.64189298407060        0.72528498125769
H            0.67202362951832        1.96469949251766       -1.00950774293384
H            2.17915755731545       -0.69744920948519        0.67242703428307
H            2.31664367212576        0.94981800061448        0.04155473897400
H            2.84058713584951        0.05011504386786       -2.22205582648885
H            2.75589462720912       -1.59751948492912       -1.57645467100308
H            4.67921309502667        1.55656213967076       -1.57657241162067
H            6.97215918032062        1.75601442884688       -0.77849563580601
H            8.68966842789323        1.80770651276424        0.83070525554892
H            9.24882673462758        1.13799413188200       -0.72915656888210
H           10.07732142879920        0.69309530516539        0.78269315161745
H            7.08132387862231       -4.23927179017579        1.66629489127225
H            5.46538743453768       -3.50251436499983        1.79643744064265
H            6.05798244053405       -4.09143923422984        0.21626077463774
H            4.44686358680502       -2.40219352434276       -0.01984647582795
H           -0.23027220125039       -1.66008339807892       -1.67820064377852
H           -1.04245691865893       -1.23694138133304       -0.16524984279873
H            0.51054089239859       -2.09381445968046       -0.12295097375199
H           -4.66367021017338        2.96075375515241       -0.18897254981537
H           -3.77925666649022        2.90206003500622        2.71802590186469
H           -4.90933014356015        1.76490970327930        1.97362206635352
H           -5.34647631414279        3.46785406751839        2.12568812775341
H           -2.62397398619237        4.67742890299459        1.27738218263531
H           -3.05224030217009        4.81372039914478       -0.43532995025891
H           -4.24330549831071        5.18975582453152        0.80321256825877
H           -0.65232302376325        2.78313893469634        2.76047402998282
72
 energy: -103.317395279146 gnorm: 0.016934245647 xtb: 6.6.1 (8d0f1dd)
N           -1.52337034101915        2.79136134060492        2.25598539298616
C           -1.57320831320550        2.15906504237855        1.17124664037292
C           -2.76152784401819        2.06550314902084        0.25471540350711
C           -3.33273857273073        0.65487877609736        0.33057528733559
C           -4.32272799347681        0.25246734460715       -0.56855877038015
C           -4.86948821410393       -1.01594637591154       -0.52331061423514
O           -5.84136653260843       -1.48482876913227       -1.35748304077103
C           -6.41493124968397       -0.60413891711900       -2.28925761825287
C           -4.41990425140789       -1.93586226482573        0.44963412592353
O           -5.01620248623388       -3.16222236979761        0.41774293544462
C           -4.68626747844255       -4.09344762050247        1.41563984040492
C           -3.44357324938845       -1.53538965880057        1.34127427504379
C           -2.90637415869125       -0.25435130063638        1.28061055477843
C           -2.20712014488615        2.29998630979273       -1.17632444150887
C           -1.27428433897771        1.17568899949939       -1.67534417588147
C            0.00779337878435        1.10644902543636       -0.92104359689071
N            0.64065990521452       -0.08254821447415       -0.58805011881637
C            2.02987089646057       -0.07559564701018       -0.22783239092513
C            2.99306238973997       -0.56126873248874       -1.33093012962462
C            4.41233021508932       -0.43873054849456       -0.86094499305460
C            5.13066875065938        0.72704752668669       -1.05380239736615
C            6.43681466112816        0.84004389922247       -0.59935277359747
C            7.04374178054355       -0.21084721466271        0.06445330192510
O            8.31941556332871       -0.21508687665544        0.54150178433595
C            9.11363969933298        0.92569696278339        0.33658190592581
C            6.31274918367306       -1.40065318221603        0.28273813161909
O            6.99077378727911       -2.38353311658051        0.94101406411629
C            6.35075644100357       -3.61363155992767        1.15823227169642
C            5.01253652554468       -1.49390861298532       -0.17424717705883
C           -0.07464942831605       -1.33228832530485       -0.64725907432843
C           -3.89118420639998        3.08171204214563        0.58388632109160
C           -4.52383926929784        2.78193846273972        1.94181640624396
C           -3.41579891250517        4.53296529128061        0.55096752355719
H           -4.67836784261092        0.95077635707621       -1.30795744264508
H           -6.86824045578801        0.26486039804154       -1.80040965477219
H           -7.19158676251841       -1.17838041284333       -2.79263176548981
H           -5.68288743347446       -0.26383114430512       -3.02965654421458
H           -4.90531240309706       -3.70784091735857        2.41712375283346
H           -5.31162647575807       -4.96390594011605        1.22181271669256
H           -3.63228853530113       -4.38766852123940        1.36300067844781
H           -3.09228274605357       -2.21073539935797        2.10554278618332
H           -2.16268500521401        0.03196672096701        2.00840063640734
H           -3.04334908577210        2.39367950842083       -1.87301107099566
H           -1.65918192315475        3.24296189728277       -1.18981399973646
H           -1.82554260241335        0.23713751579106       -1.63539512243415
H           -1.03749418169562        1.38259531220342       -2.73044713839283
H           -0.70084073443330        1.66523869498809        0.69444910370270
H            0.65232755048845        1.96834271463419       -0.98537345409682
H            2.17576369391561       -0.69255138216720        0.66954094200981
H            2.31832939297745        0.94562115471316        0.02853621183645
H            2.84892515407182        0.04941761659618       -2.22451590095193
H            2.76089142880861       -1.59919826035232       -1.57239908320256
H            4.68153815771007        1.56109191126961       -1.57256989661865
H            6.97696044203549        1.75627970762576       -0.77925163926308
H            8.69174227416200        1.80708722295783        0.83112549855719
H            9.25062186190939        1.13750874637899       -0.72919966193989
H           10.07855531886168        0.69134132791093        0.78272662811004
H            7.08449277023215       -4.23897944295360        1.66507561720154
H            5.46804580139127       -3.50339560018042        1.79776685178216
H            6.05933805171670       -4.09125473693405        0.21618709209222
H            4.44449698889586       -2.39767530252929       -0.01509294527731
H           -0.24547569681049       -1.66082332842230       -1.67913084394710
H           -1.05293882829965       -1.23783143779594       -0.16512611899017
H            0.49816773049994       -2.09835877296324       -0.12594667236842
H           -4.66298302041761        2.96246490939418       -0.18564427540894
H           -3.78048546333269        2.90370799446746        2.72289638560727
H           -4.90820853842759        1.76535978561568        1.97570556651205
H           -5.34743726823831        3.46799662549749        2.12801025204256
H           -2.62403607757106        4.68235385794545        1.27852812393976
H           -3.05310119159057        4.81542703792445       -0.43420142828027
H           -4.24398914632607        5.19159299908392        0.80410677242555
H           -0.62730028402592        2.76431711233043        2.74285280351719
72
 energy: -103.317784213168 gnorm: 0.008529024117 xtb: 6.6.1 (8d0f1dd)
N           -1.53744192148729        2.79915565515731        2.26147250209740
C           -1.57969469673187        2.15903839516840        1.17969311590538
C           -2.76207544384745        2.06395827972800        0.25622764025665
C           -3.33413869031848        0.65449839770916        0.33365670851942
C           -4.32293874619899        0.25203688128429       -0.56697356758506
C           -4.87113095820724       -1.01573950664501       -0.52139553960857
O           -5.84104165981989       -1.48429035968680       -1.35816377815525
C           -6.41299240685671       -0.60193948527185       -2.28959853033205
C           -4.42234308204134       -1.93563314830382        0.45192282705039
O           -5.01634562933639       -3.16306860030678        0.41835328674300
C           -4.68464491868781       -4.09369400434695        1.41626553381049
C           -3.44629741682032       -1.53521335172711        1.34420667831238
C           -2.90886484172065       -0.25415161542671        1.28460801794639
C           -2.20509987936391        2.29936306047863       -1.17336297070574
C           -1.27305591197042        1.17657330952896       -1.67531397292108
C            0.01092576967123        1.10814011456156       -0.92546328473250
N            0.64695855884680       -0.08385310323577       -0.59174263083248
C            2.03624283414157       -0.07829043267332       -0.22931677309794
C            2.99717470274185       -0.56057354941760       -1.33388363649238
C            4.41436089979031       -0.44143350347914       -0.86622663689660
C            5.13019682707681        0.72553494021172       -1.05745744281304
C            6.43544227057390        0.83944093633407       -0.60204433635145
C            7.04099836197665       -0.21200958673149        0.06183495369224
O            8.31573850496906       -0.21488350936334        0.54047119049237
C            9.10992754913069        0.92597257754871        0.33628415631827
C            6.31139661550155       -1.40285385756685        0.27929156344036
O            6.98831512245190       -2.38494382555835        0.93930639439111
C            6.34845671096061       -3.61450278141743        1.15800116568577
C            5.01201730892945       -1.49722893826190       -0.17880730546626
C           -0.06866621078782       -1.33336771331474       -0.64543887468906
C           -3.89137769337773        3.08052650325781        0.58076115551937
C           -4.52374607782843        2.78109821154861        1.93847145813780
C           -3.41480287880137        4.53101208898217        0.54855097890467
H           -4.67804895977438        0.95043342167999       -1.30713453820804
H           -6.86614536063555        0.26793557754493       -1.80107211419141
H           -7.18922927492351       -1.17487737218859       -2.79511523188555
H           -5.67938909578053       -0.26160659326228       -3.02844456309469
H           -4.90375436812097       -3.70804333788362        2.41803988410725
H           -5.30857556286609       -4.96558148624961        1.22291717610173
H           -3.62974519454149       -4.38508368523218        1.36284441949520
H           -3.09621232573098       -2.21066181871437        2.10796927151178
H           -2.16738097288041        0.03280115125191        2.01357177462806
H           -3.03950399285754        2.39432128276308       -1.87170137218902
H           -1.65562134912823        3.24121585687085       -1.18524704937720
H           -1.82927718174773        0.23797755262170       -1.63378098328912
H           -1.02255770692562        1.38177403763900       -2.72669609247589
H           -0.70834039813883        1.65839283319142        0.70943957856889
H            0.65331190384923        1.97420396723153       -1.00041811208726
H            2.17729842958921       -0.69232447927415        0.67237249665844
H            2.32799235427033        0.94217502075372        0.02901488546669
H            2.85014114698320        0.05328613854836       -2.22427564737886
H            2.75646442566111       -1.59615409151773       -1.56978984372273
H            4.68009716627386        1.55867151021929       -1.57636204626703
H            6.97468459646269        1.75654437211139       -0.78019995696445
H            8.68891661395127        1.80784620529474        0.83053166617384
H            9.24919013111489        1.13845845280986       -0.72897145278290
H           10.07494370613555        0.69315361743987        0.78258642284528
H            7.08172672129134       -4.23947782478494        1.66691905585139
H            5.46538116883510       -3.50158700923959        1.79599482215070
H            6.05775093989952       -4.09231520440051        0.21608242448124
H            4.44431282179230       -2.40158393444481       -0.02136850306916
H           -0.23721522542953       -1.66035588780269       -1.67519402708048
H           -1.05206116593475       -1.23988610542197       -0.17126108359905
H            0.51103629832510       -2.09533811842891       -0.12408306688017
H           -4.66194525377677        2.96121503404902       -0.18936639628985
H           -3.78001513947534        2.90223933500289        2.71813181113485
H           -4.90883607923314        1.76485803293232        1.97268956450628
H           -5.34640102896641        3.46760090364694        2.12605424653237
H           -2.62348822045213        4.67887031799150        1.27648837313253
H           -3.05112013120185        4.81364841919521       -0.43609753393761
H           -4.24275283144440        5.19027156101962        0.80222146540221
H           -0.64827346928674        2.77552526264022        2.75900884396953
72
 energy: -103.317789286012 gnorm: 0.008259704547 xtb: 6.6.1 (8d0f1dd)
N           -1.52531786358560        2.80115811410113        2.25427598587831
C           -1.57393830372993        2.15820494715448        1.17464340873346
C           -2.76040551462113        2.06442892261544        0.25593025691835
C           -3.33448981837804        0.65585402121157        0.33438083284830
C           -4.32312427140707        0.25314972304867       -0.56687604266372
C           -4.87094826088365       -1.01503819820827       -0.52179420275328
O           -5.84009089147573       -1.48488672318185       -1.35880567350901
C           -6.41471368548638       -0.60327577697318       -2.28929843255609
C           -4.42146322936439       -1.93518224152999        0.45086474863649
O           -5.01536800084122       -3.16260205906899        0.41689745750783
C           -4.68543865044791       -4.09286949832170        1.41577310094361
C           -3.44446622221787       -1.53515135863485        1.34250270978459
C           -2.90778525762572       -0.25361042682711        1.28388140518678
C           -2.20595593068843        2.30038987156596       -1.17358655188589
C           -1.27588839502421        1.17944917757098       -1.68069682427944
C            0.01078421634798        1.10852636520947       -0.93446299334159
N            0.64683864566864       -0.08650827764341       -0.59551443776085
C            2.03496985561753       -0.07887562767877       -0.22892067882525
C            2.99683311651920       -0.56067617836758       -1.33054712549053
C            4.41275299417375       -0.44115167437065       -0.86244695227333
C            5.12835845697337        0.72576857391977       -1.05403244732493
C            6.43451801837811        0.84011148067659       -0.59952947600285
C            7.04117044583782       -0.21089588230867        0.06415930794359
O            8.31603106539713       -0.21398964387727        0.54106102945126
C            9.11251382548441        0.92532504440176        0.33639141929981
C            6.31174100842983       -1.40161647603958        0.28220261060206
O            6.98889471745844       -2.38367779825299        0.94107180569336
C            6.35001390127100       -3.61373488967600        1.15855853163856
C            5.01134873502906       -1.49640790791485       -0.17463062523462
C           -0.07062353438990       -1.33503991015446       -0.64767721838107
C           -3.89051414114452        3.07998544271485        0.58254504690758
C           -4.52263617999992        2.78145847702701        1.94079422005302
C           -3.41557432105315        4.53087580516409        0.55096599813478
H           -4.67754999030419        0.95104525997432       -1.30838977138564
H           -6.86757724683028        0.26649235780858       -1.79977657438715
H           -7.19155424385365       -1.17700543652277       -2.79280861641355
H           -5.68263184824388       -0.26267163161589       -3.02965444586209
H           -4.90430128785382       -3.70609177146938        2.41736182366416
H           -5.31088964195482       -4.96383443066401        1.22284095380250
H           -3.63094179255052       -4.38613135375835        1.36289695427228
H           -3.09166369521310       -2.21206165655390        2.10298208825216
H           -2.16230878359025        0.03106157403466        2.00867689857552
H           -3.04174876996485        2.39502659965415       -1.86980643424420
H           -1.65672867665990        3.24260922879275       -1.18768104781863
H           -1.82878098222323        0.23690870537202       -1.63680977582824
H           -1.03838205569396        1.38698865933536       -2.73415009661692
H           -0.70865094650705        1.64394588272204        0.70948999811385
H            0.65983042672919        1.97149973514491       -1.00969054390269
H            2.17318561252683       -0.69561312111860        0.67376442609661
H            2.31821320472365        0.94394819223032        0.03735446488275
H            2.84479460171178        0.05273851828462       -2.21983246783102
H            2.75588348928829       -1.59547568344793       -1.56875532390782
H            4.67838726021964        1.55797009842223       -1.57387135613504
H            6.97328944046899        1.75727065619323       -0.77804434508706
H            8.69323679848826        1.80779020536344        0.83095854197678
H            9.25095146436610        1.13774542491490       -0.72896812924459
H           10.07816083541633        0.69205163223811        0.78152252752016
H            7.08422016621305       -4.23928971385089        1.66585624720804
H            5.46766062926972       -3.50245674948595        1.79736842520543
H            6.05922906786020       -4.09007131348805        0.21613198147838
H            4.44481287981988       -2.40086840159207       -0.01594579017250
H           -0.23962107081850       -1.66008265874998       -1.67565894008379
H           -1.05183271338349       -1.23742501041912       -0.16973422343073
H            0.50937963868126       -2.09560973196425       -0.12476613078462
H           -4.66221390950449        2.96101930575499       -0.18614591293911
H           -3.78004356767698        2.90318622708442        2.72046969453592
H           -4.90815311369561        1.76531698708878        1.97566707877318
H           -5.34582676880806        3.46769628745909        2.12762169424366
H           -2.62435565121861        4.67944281768555        1.27855754688145
H           -3.05324656927411        4.81475191770283       -0.43369194007689
H           -4.24430145937242        5.18949273502063        0.80554728007711
H           -0.63714615306888        2.77641563343555        2.75152166120474
72
 energy: -103.317920365813 gnorm: 0.004160026402 xtb: 6.6.1 (8d0f1dd)
N           -1.53147326931179        2.79680253036260        2.25833734446368
C           -1.57616097195484        2.15938243400645        1.17564770842226
C           -2.76174193590532        2.06486357699255        0.25544027675174
C           -3.33444739341016        0.65551687384618        0.33330623746611
C           -4.32294832909937        0.25237705577729       -0.56772522806435
C           -4.87081954435945       -1.01571160910439       -0.52204679533057
O           -5.84034773323221       -1.48519075959097       -1.35878569386685
C           -6.41359104339794       -0.60329863744598       -2.28973605869580
C           -4.42189739993238       -1.93547876777890        0.45126558750611
O           -5.01579860327645       -3.16294304537778        0.41758994805357
C           -4.68529900862706       -4.09357298341510        1.41596347394426
C           -3.44593971565812       -1.53473810305888        1.34365579372117
C           -2.90905669370552       -0.25333246552653        1.28414127261574
C           -2.20525793252624        2.30009025096168       -1.17353324954144
C           -1.27385989740928        1.17857068554603       -1.67639892575427
C            0.01065449102461        1.10817749799609       -0.92506398753439
N            0.64685132716320       -0.08613784202108       -0.59125152415422
C            2.03591834749548       -0.07713742020702       -0.22945434286849
C            2.99668317837635       -0.56117208720243       -1.33309546787569