25
 energy: 105.247009334295 xtb: 6.6.1 (8d0f1dd)
C            3.27075271611859        1.16928983455240        0.05432297708643
N            2.29268525655112        0.10222937287968        0.03460932066404
C            2.63450796804976       -1.17019835436111        0.03614762701120
N            1.53851346151898       -1.94402460592860        0.04546073930728
C            0.38526429092068       -1.11149996502133        0.09409724828886
C            0.93373770677583        0.20829640473841        0.06402211449139
C            0.13870266493667        1.43886184090843        0.06753234047535
O            0.69542076805518        2.54454816428792        0.06909341846509
N           -1.17182492134544        1.18107049782650        0.03515995548333
C           -2.08783431938142        2.25091666858496        0.17141378070829
C           -2.92333532026065       -0.53533665760308       -1.61255674631612
O           -3.91022617944064       -0.09457095137747       -1.29540470682691
N           -0.84056212264130       -1.42995076723880        0.17111427090165
C           -1.35426461623997       -2.74665420716515        0.19925013086631
H            3.76507286195854        1.22273473773784        1.02640948545412
H            4.03602916001756        0.99735420998809       -0.70774067602712
H            2.76523213071077        2.11862584278183       -0.12199254664546
H            3.64771386336195       -1.52928479570145        0.00796805094881
H           -1.54239500134027        3.18589432430462        0.25946568336364
H           -2.76351613411160        2.31554324752225       -0.68190514084627
H           -2.71721542049589        2.09408927273464        1.04965056613108
H           -0.67713306047692       -3.39139010958575        0.75857935803727
H           -1.47553798532358       -3.17557099021070       -0.79238499788880
H           -2.32758791254399       -2.70448585149575        0.68639926151623
H            1.58940184438942       -2.94669402740691        0.07268013054274
