25
 energy: -42.105955476176 gnorm: 0.003319072267 xtb: 6.6.1 (8d0f1dd)
C            3.36731222973403        1.04684413870422       -0.01410776208062
N            2.37412292393626        0.00638694985860       -0.03210732364128
C            2.59775815886041       -1.30448552106759       -0.00478899927598
N            1.41934626003177       -1.97080376778371        0.00017270496106
C            0.41448917038027       -1.05125345391511       -0.02216113093874
C            1.00946155741482        0.20457889843555       -0.04423948488745
C            0.24962485770327        1.41525840213165       -0.08332092523575
O            0.66392317482195        2.55111983058982       -0.13446469584086
N           -1.16753199255294        1.14392150075538       -0.04440556501640
C           -1.99000425953506        2.20069893845630       -0.03837756675977
C           -1.77575937086928       -0.14496542301481       -0.02057040954586
O           -2.96890180142327       -0.27094233937273       -0.00666678526845
N           -0.91958251822049       -1.24418209000143       -0.01766474914411
C           -1.48998313699376       -2.57991306808046       -0.00789574826909
H            3.86661153087419        1.07475696397425        0.95531689536873
H            4.11269412543278        0.87092620270035       -0.78861174054863
H            2.87690937450055        2.00330234265735       -0.18656708950628
H            3.56317560328848       -1.76854106791444        0.00940804868218
H           -1.54271625881208        3.17778988585599       -0.07324916377120
H           -3.06588275748761        2.05104029915787        0.06846558950260
H           -4.80807651188442        2.10496344499910        0.51860558466064
H           -1.17679534676749       -3.11907196533695        0.88613901241043
H           -1.19129569785659       -3.12550218741567       -0.90303612673197
H           -2.57382166451004       -2.47860958708862        0.00050696112278
H            1.31535386403420       -2.97507878568471        0.01479208765417
