72
 energy: -103.311756448714 gnorm: 0.090321629627 xtb: 6.6.1 (8d0f1dd)
N           -1.47422757838320        2.76304532301319        2.23296382717674
C           -1.55411484487739        2.16172087453177        1.14982440175992
C           -2.74363311353701        2.05898427176155        0.24749970141615
C           -3.30787693238524        0.64686622640201        0.33377204266879
C           -4.29754736984914        0.24856198475919       -0.56893725358856
C           -4.84690447143389       -1.01886687229519       -0.52436636492388
O           -5.81383528955232       -1.47914337403272       -1.34965013003377
C           -6.39507565841285       -0.59668760659708       -2.27898343323083
C           -4.39245495028165       -1.94356341563741        0.44986994315904
O           -4.98233459170373       -3.16129826096152        0.41717796956416
C           -4.65588889956062       -4.10140292937289        1.41068969250214
C           -3.41155646380960       -1.54539449570287        1.34026782244245
C           -2.87507489110848       -0.26252875832872        1.28290548117692
C           -2.18891732101181        2.30574457880713       -1.17563549445385
C           -1.26469336896944        1.17722163703533       -1.65802074290230
C            0.01281955938525        1.11233718008069       -0.89652552499315
N            0.62476130542759       -0.03036606153700       -0.57655816375436
C            2.00443263700139       -0.03166070019290       -0.15937266995062
C            2.93112158106141       -0.54122896288941       -1.28089458831275
C            4.36025309670062       -0.43280370720458       -0.83494429267246
C            5.07690784864781        0.73016884364729       -1.04158935327756
C            6.38926063227657        0.83987945141502       -0.60174340596850
C            7.00254574639452       -0.21183075516796        0.05796648143936
O            8.27118292549056       -0.21297369474873        0.52611293203577
C            9.07185858013524        0.92597105425590        0.32223714945458
C            6.27366917017293       -1.40731482456543        0.27798061627045
O            6.95212315009372       -2.38464305683581        0.92680612332500
C            6.31817647354401       -3.62021096185341        1.14820424449477
C            4.96667657663281       -1.49631327806981       -0.16472305849408
C           -0.05075371626314       -1.30618877649011       -0.63310549124337
C           -3.87865201280047        3.07555226508578        0.57719147404464
C           -4.52619941762559        2.77270883700960        1.91853561301466
C           -3.40078305489016        4.51999029350412        0.54188062113681
H           -4.65457667457505        0.95078087713656       -1.30266958312049
H           -6.84558653027946        0.26935311453680       -1.78416493430082
H           -7.17394855866177       -1.17076274137908       -2.77643577334721
H           -5.66782147264419       -0.25609779328790       -3.02407528157466
H           -4.87314651053824       -3.71792232235036        2.41247854193871
H           -5.28629408556939       -4.96609349152051        1.21162433856530
H           -3.60456161729361       -4.40006805112786        1.35358152821449
H           -3.05892424123025       -2.22246998973060        2.10108928702473
H           -2.13255132761223        0.01796178624769        2.01331911056035
H           -3.01958350981287        2.39235627713862       -1.87395455009473
H           -1.64291666120051        3.25026361184575       -1.19012387673642
H           -1.80749574661187        0.23596099499829       -1.62258345567263
H           -1.00300131159711        1.38146435945945       -2.70455004743375
H           -0.67539806665703        1.64779683876604        0.64316767091560
H            0.64277075130390        1.98869256750957       -0.93543519052911
H            2.11646430755972       -0.67191090389393        0.72052608070264
H            2.30518188474282        0.98110892036222        0.10887223087903
H            2.77174140094232        0.06722366540627       -2.17402549006771
H            2.68514000386359       -1.57730302133803       -1.52002383055907
H            4.62548853004802        1.56094790744302       -1.56095810956726
H            6.92648914613416        1.75579456043990       -0.78750437245244
H            8.65296166453243        1.80557624983732        0.82115078102933
H            9.20461093137675        1.13810504650515       -0.74264473447827
H           10.03763955212062        0.68690404119435        0.76520675450366
H            7.05764126650477       -4.24156378073364        1.64970766921576
H            5.44015992512635       -3.51291036691095        1.79462411725126
H            6.02322707217461       -4.09751483022439        0.20731300642974
H            4.40479922063753       -2.40465587801690       -0.01079913054526
H           -0.21932154212716       -1.61747239456460       -1.66872006169883
H           -1.01590121003807       -1.24625697355398       -0.12415018408449
H            0.56010323908739       -2.05689182700259       -0.13965385775269
H           -4.67578219309461        2.95486204299207       -0.17897096601604
H           -3.83958462117187        2.95421858042076        2.71716830331808
H           -4.87123169974549        1.73308544005347        1.97448825251538
H           -5.37203283834159        3.43805603573390        2.05042209644026
H           -2.68249452739632        4.70840940183831        1.30570898268770
H           -2.97370254151448        4.81009006634738       -0.40465852885241
H           -4.23720136929495        5.17434892931611        0.71960940068353
H           -0.59549921729936        2.78757955424928        2.74333173447294
72
 energy: -103.314949714964 gnorm: 0.032375033398 xtb: 6.6.1 (8d0f1dd)
N           -1.49601115963896        2.79744232862468        2.24511817133117
C           -1.56413830451425        2.15950852150154        1.16931458301096
C           -2.74654315737964        2.06134611271556        0.25219874363874
C           -3.31198343764502        0.65016233770539        0.33606073182721
C           -4.30032154540998        0.24901069456787       -0.56520061265771
C           -4.84722509245035       -1.01909220785252       -0.52223261745463
O           -5.81774552628056       -1.48240598346448       -1.35167884832483
C           -6.39487991353291       -0.59745579619617       -2.27948196384380
C           -4.39343255103994       -1.94206417622176        0.44971989688921
O           -4.98582370577523       -3.16467162840150        0.41576626169017
C           -4.65553999629252       -4.10124831847462        1.41033588128559
C           -3.41553090406394       -1.54235647256019        1.34077488450171
C           -2.88141109368181       -0.25874709047069        1.28449680396207
C           -2.19107881762015        2.30208058415376       -1.17544414850800
C           -1.25948869035054        1.18657687425007       -1.67603852676491
C            0.01389240275945        1.12639062048474       -0.90133124459839
N            0.63455195563839       -0.04608855076336       -0.56788529091050
C            2.00911839344840       -0.04430321441982       -0.16206786397276
C            2.94045438831992       -0.54518151889185       -1.28456367325961
C            4.36757673078745       -0.43784991613582       -0.84576245702945
C            5.08213169950544        0.72791742193876       -1.04514579943797
C            6.39156980720035        0.83944099290647       -0.60051354887314
C            7.00396483995463       -0.21221368300836        0.05922828994218
O            8.27881520431853       -0.21489374939212        0.52957731375719
C            9.07330604450877        0.92612238724809        0.32302014282193
C            6.27582411895564       -1.40601541358704        0.27871176244637
O            6.95619283191815       -2.38685512684848        0.92985146833574
C            6.31835006926870       -3.61966630355053        1.14875264844779
C            4.97233481816668       -1.49789047411047       -0.16942880638010
C           -0.04784202748137       -1.31156017941796       -0.63165875752107
C           -3.88157943665158        3.07514310892274        0.57365823591065
C           -4.52833966421154        2.77904809077427        1.92275491855945
C           -3.40763266758027        4.52401145878749        0.54452048789763
H           -4.65272354155333        0.94937893023668       -1.30380335448504
H           -6.84360489192800        0.26971983170231       -1.78398927107811
H           -7.17460508090714       -1.16940271774831       -2.77941224470929
H           -5.66591090315584       -0.25584934456002       -3.02238789727235
H           -4.87135905262074       -3.71721350858346        2.41273546239331
H           -5.28439477406359       -4.96795450744789        1.21345146167035
H           -3.60295312547414       -4.39812207777080        1.35368174498967
H           -3.05856861574991       -2.22133278792135        2.09902645753637
H           -2.13400416561587        0.02197675153949        2.01001938288276
H           -3.02379980633405        2.39633098698707       -1.87323567584416
H           -1.64165153782686        3.24455258349293       -1.18723581663900
H           -1.79579839309736        0.24066837575805       -1.62838649753392
H           -1.02883301341044        1.39008177775753       -2.73237275614278
H           -0.68979677097988        1.64334097342744        0.67732207646459
H            0.65790610429261        1.99089242733015       -0.97023386396660
H            2.12830056214652       -0.67920798025053        0.72167545301754
H            2.30129268548477        0.97264673215538        0.10664089537774
H            2.77010653995723        0.06663603044891       -2.17237586891907
H            2.68829221939334       -1.57929762528479       -1.52241080772991
H            4.62731542222740        1.56006757936133       -1.56104190277396
H            6.92848154365828        1.75630224143354       -0.78411780640531
H            8.65249470316179        1.80620482277528        0.82064797917464
H            9.20401545290142        1.13889885495867       -0.74295734137648
H           10.04006956246179        0.69030725572526        0.76492424166118
H            7.05596177599120       -4.24372670636222        1.65049187713083
H            5.43899227834373       -3.51160714482526        1.79315854884238
H            6.02264765949323       -4.09536460005639        0.20737692618621
H            4.40725279935964       -2.40376919818203       -0.01195666157510
H           -0.21840849089649       -1.62362998226956       -1.66794464324630
H           -1.01399728689956       -1.24863750893321       -0.12361344861131
H            0.55908678902578       -2.06521019818778       -0.13688739969618
H           -4.65890403180442        2.95358096866968       -0.19521801712196
H           -3.82322029853030        2.95038068435940        2.72408579719011
H           -4.87179634796513        1.74557552860420        1.97124233926333
H           -5.38332531613359        3.43646779825569        2.06209200918662
H           -2.67208639001587        4.69662767165224        1.31787570224583
H           -2.97753798667303        4.79813114621112       -0.41366828302754
H           -4.25201337380269        5.18283039176084        0.72495476603564
H           -0.61333235725417        2.79046264593459        2.75054346793282
72
 energy: -103.315493805826 gnorm: 0.019517358014 xtb: 6.6.1 (8d0f1dd)
N           -1.47547195376889        2.78327423608274        2.23810244225117
C           -1.54599086134269        2.15002188903769        1.15425872414840
C           -2.74244281500345        2.06091323692050        0.25044929826988
C           -3.30411504447775        0.64786679396279        0.33205813140299
C           -4.29550768696121        0.24801547722648       -0.56577631138717
C           -4.84213707959004       -1.01939821181606       -0.52208764054826
O           -5.81783800263330       -1.48298811541463       -1.35204443223542
C           -6.39495773463335       -0.59767733490286       -2.27806577460645
C           -4.38925539716704       -1.94174260035675        0.44817673778882
O           -4.98669484803298       -3.16587048490071        0.41480725986970
C           -4.65727536953841       -4.10113837725463        1.40971449330790
C           -3.41123613486968       -1.54442431313024        1.33871670337785
C           -2.87480509166518       -0.26231922137781        1.28041483941147
C           -2.19231278791957        2.30511246526301       -1.17874139143102
C           -1.26230783981670        1.18392961957609       -1.66718634972921
C            0.00491527774392        1.13500720601605       -0.88836621953366
N            0.63464668802506       -0.05034016426996       -0.55598645934410
C            2.00409200791803       -0.03717115175823       -0.15734627228789
C            2.93621922595238       -0.53977524879558       -1.27953510623379
C            4.35939178276429       -0.43343611492072       -0.83814231149382
C            5.07551663861234        0.73109924829165       -1.04019890304583
C            6.38620124114533        0.84081729876159       -0.60121913076490
C            6.99725877662971       -0.21129831091995        0.05722201275856
O            8.27653069147328       -0.21626865521861        0.52759213551625
C            9.07024231775665        0.92401833166758        0.32220123797353
C            6.26933584612801       -1.40304706776917        0.27889558435281
O            6.95404238315387       -2.38677795599750        0.92760944724686
C            6.31801727292940       -3.61926890874386        1.14784253261395
C            4.96471598891211       -1.49414400194404       -0.16380800344514
C           -0.04955990751735       -1.30811082934355       -0.63365807447621
C           -3.87792306525152        3.07164783211800        0.57270273236841
C           -4.53000528116996        2.77301796684737        1.92005994447706
C           -3.40530370097409        4.52479243248841        0.54072377180203
H           -4.65135715937423        0.95009630752381       -1.30198099868833
H           -6.84445947645433        0.26973786378406       -1.78295038663401
H           -7.17524823812120       -1.17067867929277       -2.77635984789916
H           -5.66821643257191       -0.25583273330786       -3.02315974721958
H           -4.87314625704916       -3.71752495263730        2.41258696655898
H           -5.28753872238282       -4.96677573990241        1.21212820682925
H           -3.60493962078237       -4.40064011258473        1.35401386604763
H           -3.05747517427328       -2.22297343035138        2.09973302047444
H           -2.13038769506986        0.01858556009081        2.00939979565753
H           -3.02485666753494        2.39665650900216       -1.87758861449223
H           -1.64192070263348        3.24788607960029       -1.19143446189243
H           -1.79944367433990        0.23597725881785       -1.61801469773773
H           -1.01888832681754        1.38184487572975       -2.71940262922073
H           -0.67950958607318        1.65009267022077        0.65332275787412
H            0.64726763127686        1.99852271947046       -0.93785426005835
H            2.12365818106176       -0.66934483424248        0.72841671639069
H            2.29537055094938        0.98231932581884        0.11098242292494
H            2.76673471635172        0.07033789116756       -2.16838037055491
H            2.68087522644109       -1.57347647422449       -1.51575317731400
H            4.62084406045915        1.56175549108231       -1.55944223816065
H            6.92483209204359        1.75608403417201       -0.78858219553492
H            8.65146024610489        1.80506680817364        0.82054668766993
H            9.20302687425978        1.13836255550065       -0.74374348918434
H           10.03616030692166        0.68605477988348        0.76449704414143
H            7.05822014255391       -4.24137897187285        1.64865729036960
H            5.43996780625983       -3.51343250718580        1.79438786342703
H            6.02181289316550       -4.09713981166664        0.20763196637080
H            4.39973812658963       -2.40070066952654       -0.00837888359290
H           -0.21997902646368       -1.61611835213414       -1.67190533450022
H           -1.01676046824378       -1.24866812650197       -0.12600806527476
H            0.55832529760915       -2.06226931288434       -0.14078164637038
H           -4.65967892805772        2.95149661629311       -0.18713947500939
H           -3.82469949881138        2.95088320076224        2.72521231096306
H           -4.87099452683606        1.74105969690596        1.97213917164671
H           -5.38493798514583        3.43268884194988        2.05062249194079
H           -2.66708039159312        4.70131381675924        1.31865205056427
H           -2.97220605271990        4.80266807082710       -0.41783106601256
H           -4.25298686829665        5.18229743221909        0.72112289581684
H           -0.57644205085666        2.76620817010374        2.71737650905534
72
 energy: -103.316017595431 gnorm: 0.010466069664 xtb: 6.6.1 (8d0f1dd)
N           -1.49985321578004        2.78287609227328        2.24488542184066
C           -1.55255258699060        2.15674074241643        1.15649154665502
C           -2.74620960642938        2.06118998140143        0.24993256681430
C           -3.30866247633011        0.64863070668551        0.33370954849235
C           -4.29881133509445        0.24874463054280       -0.56589145534984
C           -4.84485070685657       -1.01854904210550       -0.52093440496308
O           -5.81884253495380       -1.48214742324051       -1.35231157951422
C           -6.39437142320587       -0.59724746881471       -2.27934090888775
C           -4.39202985437776       -1.94031299820333        0.45018386969787
O           -4.98664787575391       -3.16537545010138        0.41627106258107
C           -4.65538290802170       -4.10060839421937        1.41021678012587
C           -3.41435226838479       -1.54343126795700        1.34144227208746
C           -2.87944587745274       -0.26091652739974        1.28367543350366
C           -2.18979515754920        2.30519424559553       -1.17622101716682
C           -1.26284051273861        1.18066116531161       -1.66324980045311
C            0.00677482339341        1.13028654167799       -0.89348745102279
N            0.63619199943084       -0.05067165722989       -0.56591296383636
C            2.00579294360119       -0.03784877759285       -0.16643633421121
C            2.94050471610008       -0.54385617279215       -1.28580981162706
C            4.36317913101016       -0.43607622071218       -0.83979584034347
C            5.08033621442531        0.72815108506335       -1.04259386046824
C            6.39071425939352        0.83914870595488       -0.60209523134395
C            7.00106278016517       -0.21234489725719        0.05714411478681
O            8.27921372565487       -0.21474118732572        0.52924452507812
C            9.07254584453816        0.92563087688886        0.32358069285497
C            6.27423718226625       -1.40498789436568        0.27677257645558
O            6.95678849785642       -2.38795658975587        0.92822376924893
C            6.31890465086991       -3.61941349963964        1.14844718237461
C            4.96985383698257       -1.49737473711039       -0.16726099627458
C           -0.04960943743850       -1.30717470629514       -0.63453323942218
C           -3.88135895851874        3.07204659602530        0.57313090704728
C           -4.53136502758952        2.77207033463976        1.91972547403459
C           -3.40543194035255        4.52346669200749        0.54069181815775
H           -4.65524144508299        0.95045917769534       -1.30234468257941
H           -6.84556759161985        0.26992265085493       -1.78540424344975
H           -7.17370344472520       -1.17050140987016       -2.77858000971471
H           -5.66679010316432       -0.25570265567278       -3.02387266028923
H           -4.87199566015406       -3.71816725457681        2.41329910816660
H           -5.28429945247084       -4.96707513961498        1.21221754437120
H           -3.60275696380946       -4.39863629820320        1.35380551314581
H           -3.06039152813925       -2.22175443271553        2.10233188063247
H           -2.13608714677275        0.02016439801900        2.01393398832899
H           -3.02107278794827        2.39485121443303       -1.87538324709943
H           -1.64125207599177        3.24916112726799       -1.18812319335637
H           -1.80375397545707        0.23473155537905       -1.62205784013689
H           -1.00949931933020        1.38202077150219       -2.71125921909283
H           -0.68300035691062        1.65379122268252        0.65956814879567
H            0.65196561841380        1.98998731514031       -0.94507085001597
H            2.12308584762138       -0.67349894032811        0.71755896594163
H            2.30398979822551        0.97892327404852        0.10425059035392
H            2.77509296429985        0.06490772916473       -2.17658696648711
H            2.68768893757924       -1.57837280988560       -1.52326850073044
H            4.62693210611042        1.55858149617694       -1.56294638835345
H            6.92841082821963        1.75551525778759       -0.78662795148971
H            8.65345239488200        1.80690059794977        0.82114002411678
H            9.20603713743211        1.13906464281098       -0.74234853591858
H           10.03882927415099        0.68897195326437        0.76617468226161
H            7.05709753957299       -4.24228032738185        1.65120884991826
H            5.43990916654400       -3.51208821334494        1.79360400073190
H            6.02410163205993       -4.09776818201319        0.20791297810228
H            4.40712262566036       -2.40575094934798       -0.01427783376868
H           -0.22175071365642       -1.62220107815093       -1.67002168222242
H           -1.01523045461930       -1.24545516367662       -0.12411353773129
H            0.55933774612725       -2.05884494069500       -0.13859258522111
H           -4.67118689112829        2.95475513849082       -0.18020207757611
H           -3.82942864491683        2.95311777136325        2.72240360872885
H           -4.87357864438600        1.73902568564112        1.97547728147803
H           -5.37849251376087        3.43897391258507        2.05208033931764
H           -2.67287850602472        4.70539228871119        1.31612337501620
H           -2.97242824462931        4.80910280344104       -0.41244244221269
H           -4.24840727047035        5.18041989858226        0.72214346552443
H           -0.60682062524349        2.78093126108750        2.73451953330817
72
 energy: -103.316068020245 gnorm: 0.009459911213 xtb: 6.6.1 (8d0f1dd)
N           -1.48977707214833        2.78830838630434        2.24281304132296
C           -1.54818472805807        2.15770796680624        1.15883546879679
C           -2.74272040661503        2.06049913918572        0.25200798777649
C           -3.30826991199868        0.64895520396807        0.33500525559505
C           -4.29759844769199        0.24908083358021       -0.56609180443198
C           -4.84371123077436       -1.01851324270638       -0.52145324381711
O           -5.81749370898998       -1.48180246853131       -1.35221064904789
C           -6.39433308311513       -0.59686377961770       -2.27806220078805
C           -4.39060338892072       -1.94080450260077        0.44917145326502
O           -4.98541527199522       -3.16522819470394        0.41562300794406
C           -4.65627213002274       -4.10065833963294        1.40995917115860
C           -3.41167394368080       -1.54442492637921        1.33976385589022
C           -2.87721417817878       -0.26153508785859        1.28296959624544
C           -2.19025441951896        2.30302846872509       -1.17645882587745
C           -1.26235155182518        1.18272156142263       -1.67205776486950
C            0.00872048365239        1.12890471789094       -0.90367838341825
N            0.63414788622427       -0.04775716191167       -0.56805533522392
C            2.00224296933166       -0.03734898401584       -0.15922039046653
C            2.93644453675178       -0.54166159816204       -1.27969515877954
C            4.36123692964912       -0.43449583214911       -0.83830265776781
C            5.07850254782405        0.72969183364583       -1.04143025999446
C            6.38898777108176        0.84062919192594       -0.60041921381907
C            6.99926205743941       -0.21145521196808        0.05834254630358
O            8.27716929586011       -0.21439423202047        0.52873561920036
C            9.07096819884065        0.92521903746148        0.32189554020281
C            6.27238232682305       -1.40392094426250        0.27834016592095
O            6.95426702178793       -2.38687524311676        0.92939028954552
C            6.31694855008064       -3.61888144033478        1.14802596181493
C            4.96774783672970       -1.49581606136405       -0.16563840346234
C           -0.04918120104489       -1.30678285903224       -0.63346509773925
C           -3.87791516518891        3.07151429272835        0.57370989648299
C           -4.52839640899995        2.77322613912947        1.92029786037709
C           -3.40471668820673        4.52138057768068        0.54204366706191
H           -4.65199137929391        0.95011538950782       -1.30386791496937
H           -6.84411596237297        0.27011524422995       -1.78271832948705
H           -7.17469380558786       -1.16927396274033       -2.77680816421435
H           -5.66725235281992       -0.25522658577207       -3.02298214388649
H           -4.87253878830717       -3.71700937080232        2.41255137449586
H           -5.28641891090340       -4.96653032785346        1.21278789208353
H           -3.60419041762670       -4.40009190434716        1.35397890113637
H           -3.05562034193017       -2.22358349400361        2.09840704817012
H           -2.13000671245893        0.01837737267473        2.00968239659555
H           -3.02403792475764        2.39415689381381       -1.87229835305272
H           -1.64266195318332        3.24694956199436       -1.18962783777397
H           -1.80209562689411        0.23769568350538       -1.62932701859349
H           -1.02007995834691        1.38716944391424       -2.72335427031659
H           -0.68397504325772        1.64000127514080        0.66472579555862
H            0.65559399025141        1.98748882056159       -0.96064302349051
H            2.12063180527788       -0.67468202817188        0.72452511568557
H            2.30064263142190        0.97821054135330        0.11255915358830
H            2.76748657106576        0.06879231238387       -2.16886981622007
H            2.68380907221777       -1.57618161419029       -1.51791581796203
H            4.62416476372789        1.56168839037299       -1.55842777583108
H            6.92650395909792        1.75706456701175       -0.78456060743971
H            8.65227940597894        1.80611378760173        0.82021275962302
H            9.20235931484617        1.13854769099979       -0.74420213056266
H           10.03810173500225        0.68849489825611        0.76298611720337
H            7.05565126821232       -4.24287413401908        1.64872704690213
H            5.43852036918596       -3.51268380050171        1.79413696066315
H            6.02110024835045       -4.09525242148049        0.20678902915793
H            4.40335903817558       -2.40230255153947       -0.00836101485180
H           -0.21743104486598       -1.62246054021994       -1.66904728356313
H           -1.01631970926746       -1.24753559213669       -0.12594307947247
H            0.55816326393154       -2.06016687676773       -0.13669837007132
H           -4.66164755857182        2.95288747231274       -0.18748482161890
H           -3.82826091516973        2.95189261144681        2.72294794321303
H           -4.86905331473774        1.73932426313548        1.97197740155067
H           -5.37718047305843        3.43687768426780        2.05681310600894
H           -2.67325647371328        4.70225458393100        1.31516115099567
H           -2.97348158905635        4.80283313786751       -0.41143811525938
H           -4.24620643992311        5.17871222975884        0.72293933292697
H           -0.59767005738503        2.78382294138542        2.73610046542324
72
 energy: -103.316209821861 gnorm: 0.004868113467 xtb: 6.6.1 (8d0f1dd)
N           -1.48979766741055        2.78615286066030        2.24355055216374
C           -1.55083011316148        2.15529405136385        1.15985175397625
C           -2.74556767493527        2.06170449869485        0.25204064508897
C           -3.30941679942748        0.64934648389027        0.33393814283339
C           -4.29873246470829        0.24878163100630       -0.56657133263423
C           -4.84458701340239       -1.01899692407281       -0.52172853080720
O           -5.81845252567373       -1.48283168704729       -1.35277499558654
C           -6.39474277000668       -0.59821132169803       -2.27909990349730
C           -4.39184143207638       -1.94070464615444        0.44920575625887
O           -4.98632319805586       -3.16573425243805        0.41571376198693
C           -4.65618519095631       -4.10090655463702        1.40986097058971
C           -3.41409802789966       -1.54320736869692        1.34055648378754
C           -2.87924048674390       -0.26043116145223        1.28277153524454
C           -2.19134554892521        2.30417416221233       -1.17610065549948
C           -1.26108140405691        1.18356440838901       -1.66674932307411
C            0.00848794911664        1.13055182565060       -0.89559370655302
N            0.63570755908700       -0.04846331181187       -0.56316714090088
C            2.00513838029937       -0.03846893940081       -0.16085099308105
C            2.93837879141878       -0.54250522045662       -1.28300506431579