72
 energy: 0.000000000000 xtb: 6.6.1 (8d0f1dd)
N           -1.47310921155849        2.74401293103706        2.22063921685122
C           -1.55658879776851        2.16490285539332        1.13274273951491
C           -2.74549199786261        2.05621232186130        0.23826248438941
C           -3.31377553111525        0.64333411542669        0.32332512650568
C           -4.30230156009016        0.24487110156316       -0.58026161703006
C           -4.85238763031941       -1.02286490450319       -0.53363588718165
O           -5.81419972815119       -1.48606034185536       -1.36157882725342
C           -6.39655633239252       -0.60827000183299       -2.29568474302620
C           -4.39972501531283       -1.94646102182611        0.44396929121966
O           -4.98748311285188       -3.16145997157803        0.41085992006324
C           -4.66362127904578       -4.10093827755394        1.40909127743729
C           -3.42072513477031       -1.54561384810496        1.33436546260297
C           -2.88302799614223       -0.26315800396994        1.27400150770375
C           -2.19303798107274        2.30467000305896       -1.18742977106749
C           -1.26651538239283        1.17243369445008       -1.65249429687285
C            0.01082524939134        1.09745454476277       -0.89354803499847
N            0.61779393476578       -0.02034948052406       -0.57705522512502
C            2.00145210352228       -0.02376006389122       -0.15611399603240
C            2.92554934655222       -0.53865282675074       -1.27700088804721
C            4.35756843073516       -0.43050757231754       -0.83075544324989
C            5.07346135469827        0.73206409086248       -1.03980965825901
C            6.38627986649936        0.84224441421807       -0.60344822702769
C            7.00047264773336       -0.20824756335880        0.05722314418200
O            8.26703657141718       -0.21011313101264        0.52410943644933
C            9.06912227848686        0.92943601033931        0.31863058007678
C            6.27039964270142       -1.40439753960823        0.28033466008274
O            6.94829939911432       -2.38012925705718        0.92751999079483
C            6.31537317745639       -3.61583200086742        1.15217711710877
C            4.96302794628964       -1.49347471867959       -0.16064430359178
C           -0.05511211367372       -1.29906247805359       -0.62085686319744
C           -3.86758037025447        3.07992600430699        0.58498060215443
C           -4.49286159663096        2.77383493050346        1.94313289484366
C           -3.39165179876499        4.52917666589254        0.54797523472093
H           -4.66030026466202        0.94509067363451       -1.31640568823548
H           -6.85037928558380        0.25803162192116       -1.80468845313260
H           -7.17287442604349       -1.18600110843259       -2.79318157561361
H           -5.66836817451085       -0.26952966318766       -3.04040255244073
H           -4.88416720672258       -3.71589460520039        2.40913542187496
H           -5.29223570620378       -4.96637458756866        1.20969236903657
H           -3.61139813139015       -4.39919835331056        1.35529357841967
H           -3.07077796610445       -2.21868765711333        2.10002662693138
H           -2.14562754426994        0.02067850696302        2.01001344383370
H           -3.02188875377605        2.38238012313952       -1.88813545054866
H           -1.65198530896729        3.25146700677685       -1.20556284570283
H           -1.81103374245520        0.23006524641044       -1.62116301628650
H           -0.99335688527853        1.37490212198123       -2.69443256973690
H           -0.67628064361333        1.65183887049447        0.61785727145403
H            0.63525841192517        1.98466369793744       -0.92314021190751
H            2.11132552493482       -0.65949692842762        0.72532613231274
H            2.30680473056284        0.98978251704176        0.11078972794250
H            2.76694198818247        0.06750735147374       -2.17075252200790
H            2.67954581369920       -1.57455627803457       -1.51167743520200
H            4.62169998552446        1.56295612048703       -1.56123579000624
H            6.92357674630170        1.75715815945204       -0.79119596719031
H            8.65159112996149        1.81001823324363        0.81701555159939
H            9.20136171144928        1.14042857828877       -0.74698991949293
H           10.03428838009630        0.69003240176163        0.76064937965836
H            7.05567174969094       -4.23621171795340        1.65347565939075
H            5.43848001056755       -3.50813558175093        1.79970565785717
H            6.02060041905269       -4.09420497120334        0.21253282636366
H            4.40102758497114       -2.40127266373392       -0.00490198249042
H           -0.22071299714579       -1.61775583601871       -1.65116008982042
H           -1.01972258008625       -1.24102717432227       -0.10935206830928
H            0.55899954147532       -2.04486085926761       -0.12333730421426
H           -4.63991875734388        2.95501092798550       -0.18098088071825
H           -3.76095216473977        2.90314704960906        2.73380821053058
H           -4.87457614030224        1.75695641518947        1.97884603101694
H           -5.31925552549014        3.45579210326349        2.12325564252114
H           -2.60025590131176        4.69225046143352        1.27368918226171
H           -3.03987406413880        4.81897652321898       -0.43870975059559
H           -4.22191740670577        5.18069648090034        0.80616693961239
H           -0.59832433787845        2.77744694953323        2.72958984441332
72
 energy: -3.954551887641 xtb: 6.6.1 (8d0f1dd)
N           -1.47626151579281        2.78861239483638        2.24738782444656
C           -1.55160388633558        2.16017526655398        1.16783008257818
C           -2.74121895797880        2.06232148021916        0.25958311046013
C           -3.30218805701125        0.64883494699609        0.34240640319124
C           -4.29275891234358        0.25192101300463       -0.55771139623516
C           -4.84182649015034       -1.01524620656006       -0.51549607113523
O           -5.81370562384964       -1.47571442901418       -1.34372184223431
C           -6.39421233592077       -0.58995738550797       -2.26926026159805
C           -4.38750195527722       -1.94169463896960        0.45398065988031
O           -4.98165916305471       -3.16126908394244        0.41801382233833
C           -4.65302096824437       -4.10156022292051        1.41130003417396
C           -3.40686916002332       -1.54535550829337        1.34318814394462
C           -2.87012626058421       -0.26239036580097        1.28776846465988
C           -2.18550852154514        2.30687331974615       -1.16722086819886
C           -1.26040058811844        1.18783870446705       -1.66739355046651
C            0.01396468544858        1.11876459831561       -0.89795831696385
N            0.63462602642923       -0.04482870848067       -0.57619881808294
C            2.00892461175213       -0.04470912591587       -0.16542413278091
C            2.93993156784750       -0.54535778498142       -1.28731469275532
C            4.36670292690627       -0.43835186562314       -0.84452531528912
C            5.08126364150549        0.72764129100645       -1.04362895754368
C            6.39094725818948        0.83855296470833       -0.60091362471911
C            7.00354434686737       -0.21357358716302        0.05817380623067
O            8.27709607870291       -0.21726290784347        0.52895029987003
C            9.07353215831124        0.92369997887806        0.32455915660450
C            6.27481450688430       -1.40833108200642        0.27710517781190
O            6.95561011016457       -2.38887183901404        0.92599195574235
C            6.31970068935132       -3.62261649141858        1.14595065776924
C            4.97106491948495       -1.49979420734714       -0.16974229248671
C           -0.04846789171572       -1.30989548080370       -0.64126464433164
C           -3.89740638070779        3.06758335198992        0.56326484080241
C           -4.54386895754201        2.77249926999964        1.90596635387640
C           -3.40765164511074        4.51401295459850        0.53748309658710
H           -4.64997077496073        0.95534236774223       -1.29144674195093
H           -6.84279288402172        0.27607509432099       -1.77190635033296
H           -7.17452257569545       -1.16256298478692       -2.76748414212380
H           -5.66751751642629       -0.24783725699394       -3.01402396682572
H           -4.86759143858008       -3.71900704406997        2.41420424145376
H           -5.28395008778396       -4.96596768166213        1.21241152213394
H           -3.60107861411280       -4.40057364413537        1.35271034944268
H           -3.05159917299227       -2.22490374311093        2.10185807992098
H           -2.12366930881581        0.01592123263529        2.01575884892905
H           -3.01788558582138        2.39960057000084       -1.86445729032570
H           -1.63648944626256        3.24993476449960       -1.17967195382764
H           -1.80239200756873        0.24374432771270       -1.62365348898769
H           -1.01997727678839        1.39360444174898       -2.71911827470619
H           -0.67491310771024        1.64278535098310        0.67239330416857
H            0.65169457492467        1.99066665863170       -0.94752771407390
H            2.12022798234533       -0.68088688695125        0.71662453300869
H            2.30399057798491        0.97142966287491        0.10701902829569
H            2.77308404879434        0.06715727666573       -2.17495913378316
H            2.68890889601497       -1.57911107212032       -1.52587103164669
H            4.62737204039812        1.55985452307392       -1.56085801410619
H            6.92855687285450        1.75479226848294       -0.78488780709988
H            8.65356735488056        1.80373696327367        0.82288885060715
H            9.20577401016828        1.13730298243879       -0.74113601162550
H           10.03901121983116        0.68553098023664        0.76716761712541
H            7.05894734335690       -4.24515345955796        1.64707964777216
H            5.44119446568739       -3.51580638245772        1.79161324319581
H            6.02441113717123       -4.09899454019329        0.20502566121574
H            4.40689680556807       -2.40659470379767       -0.01427563112105
H           -0.21870935686879       -1.61725288105200       -1.67762738912701
H           -1.01437190985362       -1.24890278208135       -0.13155586610111
H            0.56036096814447       -2.06322540570645       -0.14946985497730
H           -4.72662404045036        2.95451739682474       -0.17726070303725
H           -3.85536119152012        2.96461998179988        2.71456521455201
H           -4.87292934906426        1.73966889999149        1.97533525773505
H           -5.41963526695654        3.42104696283129        1.98557675043299
H           -2.67549584075395        4.70711478694071        1.30273412878630
H           -2.97869652934332        4.81087310147470       -0.40710197794935
H           -4.23706109113072        5.17438653900701        0.72030744610383
H           -0.59433098831773        2.79381355771810        2.75037684082266
72
 energy: 0.201812765272 xtb: 6.6.1 (8d0f1dd)
N           -1.48718069367043        2.85241591125254        2.27330271766399
C           -1.54627031725299        2.16472599168733        1.20939724641443
C           -2.73693471779833        2.06727060757844        0.28139422312477
C           -3.28066741824223        0.65103540099015        0.36605204784015
C           -4.27856597442883        0.25992071325150       -0.52556373755157
C           -4.82694557958882       -1.00512782966695       -0.48762720010776
O           -5.81335344690599       -1.45955032510534       -1.31565408481637
C           -6.39052899575590       -0.56142084633973       -2.22789053683832
C           -4.36914322749103       -1.93545236140614        0.46988459844736
O           -4.97214485982803       -3.16057579985707        0.42991105789904
C           -4.63627836055671       -4.10235848179637        1.41503298725648
C           -3.38414355276139       -1.54765669449184        1.35656629675575
C           -2.84670636431064       -0.26558854294528        1.30591637129528
C           -2.17172733214047        2.31488561931100       -1.14191784480649
C           -1.25302748955451        1.20334826979171       -1.67381311004600
C            0.02065324049617        1.14069443796795       -0.90384198028160
N            0.65223897182871       -0.07191038416910       -0.58064198863918
C            2.01531236120995       -0.06824795200075       -0.18011843654525
C            2.95797387063857       -0.55410732282601       -1.30192084125033
C            4.37814038536585       -0.44834734482180       -0.85934514616482
C            5.09254902128671        0.72021664379286       -1.04782656241126
C            6.39925984241673        0.83211817720442       -0.59777378594891
C            7.00833156917723       -0.22206895784941        0.05856390430866
O            8.28978663918539       -0.22766098092958        0.53493717068458
C            9.07934881667245        0.91471743687370        0.33343850972047
C            6.28204103125132       -1.41468820206482        0.27103216577634
O            6.96559301341621       -2.40168983112799        0.92218016097698
C            6.32603857971514       -3.63280337472350        1.13584104144537
C            4.98186486449998       -1.50875329475098       -0.18276485542024
C           -0.04216368907418       -1.31996373499702       -0.67626039220054
C           -3.92732005129603        3.05226199694042        0.53774711179812
C           -4.62096073903783        2.77383059125902        1.85452884738299
C           -3.43394186095517        4.49673531158241        0.52197465420116
H           -4.63477878290951        0.97027162446683       -1.25327371513720
H           -6.83165877366789        0.30378094447958       -1.72082429272601
H           -7.17709325850405       -1.12538952701203       -2.72737395445589
H           -5.66649476906825       -0.21443907121408       -2.97330961447720
H           -4.84199291969889       -3.72456011700334        2.42249420848667
H           -5.27070363993454       -4.96508637792837        1.21710047216902
H           -3.58503628369279       -4.40353709229019        1.34870628863089
H           -3.02244871423420       -2.23534978841590        2.10601382552425
H           -2.09099299193498        0.00678384318052        2.02630737816955
H           -3.01057994172212        2.42990949727338       -1.83046833261152
H           -1.61086406341339        3.25206545758719       -1.14151954895198
H           -1.79166570110363        0.25698513257551       -1.62388354936060
H           -1.05167947275605        1.41932709387832       -2.73516416203390
H           -0.67922939469972        1.62670115015647        0.75215580453562
H            0.67854561958903        1.98983509157800       -0.97143508017497
H            2.13283934442572       -0.71021728431025        0.70051973616548
H            2.30298627825591        0.94802221650715        0.10377946237326
H            2.78320867185041        0.06676451779224       -2.18220442930712
H            2.70275287116018       -1.58546567070778       -1.54902153263214
H            4.63618933787438        1.55384376235113       -1.56058497223388
H            6.93634528576546        1.75075250917356       -0.77506393307726
H            8.65709630530614        1.79412486554984        0.83219719129518
H            9.21316355631174        1.13248814017473       -0.73199694925867
H           10.04532639107567        0.67844085119832        0.77696177406010
H            7.06368542521530       -4.25845938707769        1.63657984122084
H            5.44565659932018       -3.52794978260758        1.77951844511577
H            6.03084029074585       -4.10691728073123        0.19318105564489
H            4.41517226208500       -2.41466682254097       -0.02951439686889
H           -0.21645128047401       -1.61461036477458       -1.71941144264357
H           -1.00920907913393       -1.26211310905486       -0.16783900504327
H            0.56042725994110       -2.08547402362833       -0.19329902697272
H           -4.82689013444741        2.95179752620067       -0.17661384523607
H           -4.00924773208986        3.06816524407645        2.69572735488615
H           -4.86513065592526        1.71571210007933        1.97261393267986
H           -5.57335530822213        3.35852050893739        1.78178186755939
H           -2.79951173073788        4.72905628867628        1.35978713788520
H           -2.87564235657061        4.79172228589800       -0.35851993948435
H           -4.27034592146099        5.16825526791924        0.57686450008669
H           -0.59246093616653        2.81399576891958        2.76677716435531
72
 energy: 10.374362618165 xtb: 6.6.1 (8d0f1dd)
N           -1.49908816239091        2.90483373690974        2.29888230969340
C           -1.54218637435797        2.17820572117704        1.24780890203957
C           -2.73453371249917        2.07250620214975        0.30240885392154
C           -3.25790782289806        0.65211542671810        0.39004437324849
C           -4.26369448699305        0.26747098149716       -0.49356742856885
C           -4.81232491661529       -0.99530296903109       -0.45886859410646
O           -5.81225065594218       -1.44200844067530       -1.28552453990608
C           -6.38681208125884       -0.53124059185987       -2.18381052309309
C           -4.35013602479940       -1.92976935044322        0.48703418417453
O           -4.96082641461594       -3.15874910791147        0.44330891883217
C           -4.61833212053819       -4.10322127880394        1.41953572622664
C           -3.35899549997343       -1.55115212085718        1.37029805489318
C           -2.82028393911128       -0.26997661986425        1.32392166702885
C           -2.15778491143890        2.32449704619253       -1.11645461861342
C           -1.24742382706569        1.21728499105993       -1.67519048110132
C            0.02781753775873        1.15711293252609       -0.91341789918177
N            0.66573645117779       -0.09444326494020       -0.58831700578071
C            2.02088506586712       -0.08987430976078       -0.19437978220556
C            2.97417142070742       -0.56254266340777       -1.31724220533741
C            4.38925044646244       -0.45787206670429       -0.87211239628850
C            5.10403132839449        0.71266950621036       -1.05151213320940
C            6.40823968547701        0.82553920954652       -0.59490572700074
C            7.01388286002709       -0.23108837150367        0.05870721422173
O            8.30108403282568       -0.23804532755855        0.54033085153791
C            9.08525359747848        0.90533505848885        0.34261100503233
C            6.28988587684021       -1.42231975492470        0.26443922536505
O            6.97484862909669       -2.41469509722740        0.91729358321824
C            6.33261932247298       -3.64368719006230        1.12502827341874
C            4.99246556378465       -1.51843947216219       -0.19560463336082
C           -0.03664626226628       -1.32883504224962       -0.71371395008720
C           -3.95594699161419        3.04036518503251        0.51327904288143
C           -4.70678236454977        2.77557910898744        1.80039528166537
C           -3.46068544273721        4.48234214584487        0.50579968575731
H           -4.61928508706873        0.98598463755336       -1.21331795138464
H           -6.82030564347388        0.33264935502527       -1.66648795305408
H           -7.17988470755513       -1.08579629472405       -2.68454517616002
H           -5.66574973691538       -0.17941539910480       -2.93020393786872
H           -4.81493514702733       -3.73090239366611        2.43165100854824
H           -5.25641690082967       -4.96402444122604        1.22252500891218
H           -3.56804048110698       -4.40714920157594        1.34476044110218
H           -2.99180382499325       -2.24610338888395        2.11101725629215
H           -2.05671382335861       -0.00342911773778        2.03837625544170
H           -3.00097305033159        2.46211014902390       -1.79685694436660
H           -1.58389074585138        3.25435961893276       -1.10236214487966
H           -1.78290336458766        0.26938362245908       -1.62311474665544
H           -1.07875683044923        1.44441527173791       -2.74315977939128
H           -0.68500339072786        1.61439812351091        0.83211990155067
H            0.70455848728008        1.98595127762432       -0.98986416417421
H            2.14518262214059       -0.73991740439769        0.68316634176069
H            2.30471538152080        0.92470909208487        0.10129338498719
H            2.79463113271929        0.06629807018193       -2.19102771085924
H            2.71719453364765       -1.59186256261745       -1.57373609158168
H            4.64577143218371        1.54754984876883       -1.56069236718455
H            6.94429533890669        1.74644580963613       -0.76536249392382
H            8.66117443893498        1.78403658492918        0.84211016958580
H            9.22132591134205        1.12736531479749       -0.72233219003479
H           10.05164443565152        0.67085152197667        0.78717147788970
H            7.06867591530985       -4.27228214814955        1.62534159667405
H            5.45058956142951       -3.54092724753825        1.76704167466567
H            6.03799241464278       -4.11562757842035        0.18065467260918
H            4.42390740635792       -2.42389889524471       -0.04565452915535
H           -0.21293240908201       -1.61019418092742       -1.76292872983921
H           -1.00484382854075       -1.27672503265486       -0.20653220370402
H            0.56009567406080       -2.10742146956901       -0.24071667413486
H           -4.91057740832997        2.94672931550733       -0.18902081726825
H           -4.18371112038136        3.17344923217924        2.67065483771944
H           -4.86279252720087        1.69848010000402        1.97033131517194
H           -5.71858974062627        3.28423591658125        1.58962672433766
H           -2.94229053378050        4.75746974368221        1.42246473671865
H           -2.76470137052087        4.76722087343099       -0.29709166612726
H           -4.30138163880222        5.16131471420068        0.41251727670535
H           -0.59090198842695        2.83696518716314        2.77816528388086
72
 energy: 22.106977093662 xtb: 6.6.1 (8d0f1dd)
N           -1.51136951614973        2.94459000337643        2.32159812282862
C           -1.53927992192779        2.20109907541965        1.28224183437284
C           -2.73517773973834        2.07673315749115        0.32060612810895
C           -3.23548715191470        0.65164185881347        0.41353121151871
C           -4.24963857926433        0.27424313467772       -0.46303100113127
C           -4.79899757707455       -0.98618131825002       -0.43070946658149
O           -5.81017404505618       -1.42398306020626       -1.25549754163931
C           -6.38286374649791       -0.50145415685012       -2.13989296829640
C           -4.33172802291904       -1.92464231928122        0.50440340369035
O           -4.94833550390888       -3.15580100658076        0.45718940979112
C           -4.60042166065530       -4.10377754329323        1.42415426346080
C           -3.33324162018494       -1.55557483052370        1.38386502931669
C           -2.79274373526944       -0.27543998786248        1.34126769311014
C           -2.14405176517202        2.33533378200069       -1.09271714807227
C           -1.24366841348034        1.22838328189539       -1.67147702185690
C            0.03617487590368        1.16688063376909       -0.93002596653786
N            0.67357084283895       -0.11036738642956       -0.59865940157405
C            2.02499907838577       -0.10789323031323       -0.20741198509194
C            2.98776162317490       -0.57065983922246       -1.33234925832222
C            4.39980728551458       -0.46655247553171       -0.88202991389236
C            5.11540694558610        0.70510513587624       -1.05457909035756
C            6.41774665669097        0.81920777320302       -0.59219111858694
C            7.01990572897220       -0.24001536726069        0.05894492462114
O            8.31035687580446       -0.24760059616284        0.54513832388432
C            9.09081044574246        0.89611840708688        0.35181485806707
C            6.29824729639335       -1.43053387176257        0.25800866964773
O            6.98289925458015       -2.42693037725102        0.91218533625394
C            6.33910977069977       -3.65430369157062        1.11457445156275
C            5.00254377808425       -1.52822461172315       -0.20760799955315
C           -0.03208925171246       -1.33529587025205       -0.75145558941692
C           -3.97998759249143        3.03421298826729        0.49349434549564
C           -4.79707437473788        2.77817167970538        1.74713936014114
C           -3.48563314278951        4.47321031522759        0.48930480806522
H           -4.60369085217940        1.00199470851015       -1.17337235484000
H           -6.80922071340424        0.36066693477787       -1.61267966554741
H           -7.18224908282264       -1.04642953611335       -2.64174178898375
H           -5.66507216464363       -0.14498905409164       -2.88764390110529
H           -4.78825554442302       -3.73749242466111        2.44075513402583
H           -5.24203294036000       -4.96266608011234        1.22813121634947
H           -3.55129645752909       -4.41101141546496        1.34099948155081
H           -2.96161433964345       -2.25655872368081        2.11630376327692
H           -2.02298109387009       -0.01430904542308        2.05156909982601
H           -2.99006476118248        2.49474941309914       -1.76386871979882
H           -1.55689190957962        3.25656079393813       -1.06407864939823
H           -1.77558456490670        0.27963903521756       -1.62238591408668
H           -1.10231221065530        1.46842783456045       -2.74305176148035
H           -0.69312199896090        1.60602528776076        0.91281959580138
H            0.73015250345117        1.97805046132483       -1.00425559238604
H            2.15709622991127       -0.76860712419819        0.66547120509448
H            2.30904992193542        0.90273521222401        0.09976634474780
H            2.80649501281352        0.06552655881558       -2.20051243545983
H            2.73177626490245       -1.59845316807453       -1.59867865311419
H            4.65552369982177        1.54108921964476       -1.56096937822681
H            6.95199471584371        1.74221171694514       -0.75585109866796
H            8.66554948821883        1.77419748567601        0.85222403998441
H            9.22974891310152        1.12229199563404       -0.71244776554285
H           10.05767123673365        0.66351122959089        0.79742391215381
H            7.07352630403698       -4.28568322812733        1.61446392638231
H            5.45568248327647       -3.55378512511507        1.75529177663467
H            6.04549991885911       -4.12436713731199        0.16862619505954
H            4.43266994653914       -2.43344004068781       -0.06157055682691
H           -0.20834299120021       -1.60489855779808       -1.80499452021251
H           -1.00105151094503       -1.29201464973350       -0.24491011411153
H            0.55942075538589       -2.12761320099549       -0.28867823504427
H           -4.98300160847056        2.94271618953952       -0.20977963229703
H           -4.37204003247046        3.26568658362058        2.62901728219079
H           -4.86743285247529        1.69624774484808        1.96948331608776
H           -5.83585467025356        3.19937174564129        1.42191949149319
H           -3.09471792135796        4.78903419482638        1.46543065770336
H           -2.67034063436921        4.74177795650562       -0.21615622031028
H           -4.31032302397254        5.14865511999386        0.24626382348535
H           -0.58984141971708        2.86074223935907        2.78432632068748
72
 energy: 28.094490174590 xtb: 6.6.1 (8d0f1dd)
N           -1.51835314452696        2.96474606531802        2.33304857115004
C           -1.53916347867278        2.23324315068765        1.31097402513164
C           -2.74050213400145        2.07841081222972        0.33439231562242
C           -3.21754445802418        0.64948753552061        0.43499519680354
C           -4.23876925116707        0.27929403695906       -0.43854690774430
C           -4.78986584430905       -0.97925914623329       -0.40718057347656
O           -5.80620075555633       -1.40651452726906       -1.22873642455507
C           -6.37920253709101       -0.47541451546647       -2.10104902454265
C           -4.31681920726785       -1.92139996719479        0.52013012123682
O           -4.93483149539197       -3.15059892729651        0.47023907577516
C           -4.58472015370724       -4.10382845333860        1.42824112943196
C           -3.30979787362606       -1.56076567809240        1.39566954161260
C           -2.76727738193119       -0.28123965662956        1.35619374271789
C           -2.13204642965504        2.34638177329519       -1.07310527938391
C           -1.24185050645671        1.23448838075365       -1.66043505811315
C            0.04802571482703        1.16063515054504       -0.95830156346101
N            0.66897435694358       -0.10995471888889       -0.61323692915777
C            2.02656900534900       -0.11844449840786       -0.21690125342928
C            2.99507800296610       -0.57752364287471       -1.34600935330158
C            4.40911910926356       -0.47311745647117       -0.88700747439676