25
 energy: -42.177026089944 gnorm: 0.006020909302 xtb: 6.6.1 (8d0f1dd)
C            3.11609379632023        0.26970531844382       -0.30856224354327
N            1.69953723036671        0.18187049056010       -0.11538009228429
C            3.88747086220252       -0.77505649884687        0.48359557077449
N            1.04750515030684       -0.97179686737666       -0.14940134310473
C           -0.24395178626224       -0.67528411781132       -0.05909281665801
C           -0.45855443882204        0.72958808326738        0.01970750689636
C            0.85863375673204        1.33157169744805       -0.00328528956012
O            1.26661187506924        2.46499252979858        0.05645561213866
N           -1.77385452844617        0.96554068125790        0.03779833344947
C           -2.46695082152114        2.21531215745555        0.05805943034451
C           -2.43568399756987       -0.29104260070312       -0.02364008127038
O           -3.61853223268092       -0.45119849805778       -0.03752692880291
N           -1.44708392562563       -1.28819078598977       -0.07218264694436
C           -1.75904655335734       -2.68802055066064       -0.14768170514167
H            3.75046119794061       -0.62778022334022        1.55517432721940
H            3.32963981977966        0.13995497429618       -1.38204788421683
H            3.40849145797056        1.29049869313992       -0.03595871623647
H            4.94665380767014       -0.68649093347196        0.24854490755524
H           -1.74862650713132        3.02765998601010        0.15092634939113
H           -3.04487305815198        2.33055830959236       -0.86292019122535
H           -3.17288996970744        2.23319446385458        0.89133896834355
H           -1.33716541895212       -3.21879648357428        0.70734208919935
H           -1.34819967370288       -3.12050874691296       -1.06173051312296
H           -2.84421907555898       -2.78914324357991       -0.14662023662935
H            3.54896454724574       -1.77889929317404        0.22825921132830
