      -----------------------------------------------------------      
     |                   =====================                   |     
     |                           x T B                           |     
     |                   =====================                   |     
     |                         S. Grimme                         |     
     |          Mulliken Center for Theoretical Chemistry        |     
     |                    University of Bonn                     |     
      -----------------------------------------------------------      

   * xtb version 6.6.1 (8d0f1dd) compiled by 'conda@1efc2f54142f' on 2023-08-01

   xtb is free software: you can redistribute it and/or modify it under
   the terms of the GNU Lesser General Public License as published by
   the Free Software Foundation, either version 3 of the License, or
   (at your option) any later version.
   
   xtb is distributed in the hope that it will be useful,
   but WITHOUT ANY WARRANTY; without even the implied warranty of
   MERCHANTABILITY or FITNESS FOR A PARTICULAR PURPOSE.  See the
   GNU Lesser General Public License for more details.
   
   Cite this work as:
   * C. Bannwarth, E. Caldeweyher, S. Ehlert, A. Hansen, P. Pracht,
     J. Seibert, S. Spicher, S. Grimme, WIREs Comput. Mol. Sci., 2020, 11,
     e01493. DOI: 10.1002/wcms.1493
   
   for GFN2-xTB:
   * C. Bannwarth, S. Ehlert and S. Grimme., J. Chem. Theory Comput., 2019,
     15, 1652-1671. DOI: 10.1021/acs.jctc.8b01176
   for GFN1-xTB:
   * S. Grimme, C. Bannwarth, P. Shushkov, J. Chem. Theory Comput., 2017,
     13, 1989-2009. DOI: 10.1021/acs.jctc.7b00118
   for GFN0-xTB:
   * P. Pracht, E. Caldeweyher, S. Ehlert, S. Grimme, ChemRxiv, 2019, preprint.
     DOI: 10.26434/chemrxiv.8326202.v1
   for GFN-FF:
   * S. Spicher and S. Grimme, Angew. Chem. Int. Ed., 2020, 59, 15665-15673.
     DOI: 10.1002/anie.202004239
   
   for ALPB and GBSA implicit solvation:
   * S. Ehlert, M. Stahn, S. Spicher, S. Grimme, J. Chem. Theory Comput.,
     2021, 17, 4250-4261. DOI: 10.1021/acs.jctc.1c00471
   
   for DFT-D4:
   * E. Caldeweyher, C. Bannwarth and S. Grimme, J. Chem. Phys., 2017,
     147, 034112. DOI: 10.1063/1.4993215
   * E. Caldeweyher, S. Ehlert, A. Hansen, H. Neugebauer, S. Spicher,
     C. Bannwarth and S. Grimme, J. Chem. Phys., 2019, 150, 154122.
     DOI: 10.1063/1.5090222
   * E. Caldeweyher, J.-M. Mewes, S. Ehlert and S. Grimme, Phys. Chem. Chem. Phys.
     2020, 22, 8499-8512. DOI: 10.1039/D0CP00502A
   
   for sTDA-xTB:
   * S. Grimme and C. Bannwarth, J. Chem. Phys., 2016, 145, 054103.
     DOI: 10.1063/1.4959605
   
   in the mass-spec context:
   * V. Asgeirsson, C. Bauer and S. Grimme, Chem. Sci., 2017, 8, 4879.
     DOI: 10.1039/c7sc00601b
   * J. Koopman and S. Grimme, ACS Omega 2019, 4, 12, 15120-15133.
     DOI: 10.1021/acsomega.9b02011
   
   for metadynamics refer to:
   * S. Grimme, J. Chem. Theory Comput., 2019, 155, 2847-2862
     DOI: 10.1021/acs.jctc.9b00143
   
   for SPH calculations refer to:
   * S. Spicher and S. Grimme, J. Chem. Theory Comput., 2021, 17, 1701-1714
     DOI: 10.1021/acs.jctc.0c01306
   
   with help from (in alphabetical order)
   P. Atkinson, C. Bannwarth, F. Bohle, G. Brandenburg, E. Caldeweyher
   M. Checinski, S. Dohm, S. Ehlert, S. Ehrlich, I. Gerasimov, C. Hölzer
   A. Katbashev, J. Koopman, C. Lavigne, S. Lehtola, F. März, M. Müller,
   F. Musil, H. Neugebauer, J. Pisarek, C. Plett, P. Pracht, F. Pultar,
   J. Seibert, P. Shushkov, S. Spicher, M. Stahn, M. Steiner, T. Strunk,
   J. Stückrath, T. Rose, and J. Unsleber
   
 * started run on 2024/06/05 at 19:59:15.898     

           -------------------------------------------------
          |                Calculation Setup                |
           -------------------------------------------------

          program call               : xtb struc.xyz --opt loose --input .xc1 --gfn2
          hostname                   : n-62-31-11
          coordinate file            : struc.xyz
          omp threads                :                     1

   ID    Z sym.   atoms
    1    6 C      1, 3, 5-7, 10, 11, 14
    2    7 N      2, 4, 9, 13
    3    8 O      8, 12
    4    1 H      15-25
constraining bond 9 14 to    5.9200000 Å, actual value:    3.7157301 Å

           -------------------------------------------------
          |                 G F N 2 - x T B                 |
           -------------------------------------------------

        Reference                      10.1021/acs.jctc.8b01176
      * Hamiltonian:
        H0-scaling (s, p, d)           1.850000    2.230000    2.230000
        zeta-weighting                 0.500000
      * Dispersion:
        s8                             2.700000
        a1                             0.520000
        a2                             5.000000
        s9                             5.000000
      * Repulsion:
        kExp                           1.500000    1.000000
        rExp                           1.000000
      * Coulomb:
        alpha                          2.000000
        third order                    shell-resolved
        anisotropic                    true
        a3                             3.000000
        a5                             4.000000
        cn-shift                       1.200000
        cn-exp                         4.000000
        max-rad                        5.000000


          ...................................................
          :                      SETUP                      :
          :.................................................:
          :  # basis functions                  67          :
          :  # atomic orbitals                  67          :
          :  # shells                           39          :
          :  # electrons                        74          :
          :  max. iterations                   250          :
          :  Hamiltonian                  GFN2-xTB          :
          :  restarted?                      false          :
          :  GBSA solvation                  false          :
          :  PC potential                    false          :
          :  electronic temp.         5000.0000000     K    :
          :  accuracy                    1.0000000          :
          :  -> integral cutoff          0.2500000E+02      :
          :  -> integral neglect         0.1000000E-07      :
          :  -> SCF convergence          0.1000000E-05 Eh   :
          :  -> wf. convergence          0.1000000E-03 e    :
          :  Broyden damping             0.4000000          :
          ...................................................

 iter      E             dE          RMSdq      gap      omega  full diag
   1    -42.5894031 -0.425894E+02  0.445E+00    3.52       0.0  T
   2    -42.7683054 -0.178902E+00  0.251E+00    3.36       1.0  T
   3    -42.7759211 -0.761567E-02  0.147E+00    3.35       1.0  T
   4    -42.7728404  0.308066E-02  0.553E-01    3.33       1.0  T
   5    -42.7789548 -0.611444E-02  0.112E-01    3.35       1.0  T
   6    -42.7790473 -0.924914E-04  0.614E-02    3.33       1.0  T
   7    -42.7790721 -0.247928E-04  0.258E-02    3.34       1.0  T
   8    -42.7790772 -0.508996E-05  0.938E-03    3.34       2.1  T
   9    -42.7790779 -0.669422E-06  0.448E-03    3.34       4.5  T
  10    -42.7790780 -0.821510E-07  0.115E-03    3.34      17.4  T
  11    -42.7790780 -0.322663E-08  0.553E-04    3.34      36.2  T
  12    -42.7790780 -0.287051E-08  0.180E-04    3.34     111.1  T

   *** convergence criteria satisfied after 12 iterations ***

         #    Occupation            Energy/Eh            Energy/eV
      -------------------------------------------------------------
         1        2.0000           -0.9185990             -24.9964
       ...           ...                  ...                  ...
        31        1.9996           -0.6230278             -16.9534
        32        1.9995           -0.6194601             -16.8564
        33        1.9979           -0.5974976             -16.2587
        34        1.9932           -0.5789629             -15.7544
        35        1.9817           -0.5631863             -15.3251
        36        1.9779           -0.5602245             -15.2445
        37        1.9748           -0.5581234             -15.1873 (HOMO)
        38        0.0652           -0.4353579             -11.8467 (LUMO)
        39        0.0099           -0.4050467             -11.0219
        40        0.0013           -0.3732218             -10.1559
        41        0.0000           -0.2886859              -7.8555
        42                         -0.2065804              -5.6213
       ...                                ...                  ...
        67                          0.5625656              15.3082
      -------------------------------------------------------------
                  HL-Gap            0.1227656 Eh            3.3406 eV
             Fermi-level           -0.4890455 Eh          -13.3076 eV

 SCC (total)                   0 d,  0 h,  0 min,  0.036 sec
 SCC setup                      ...        0 min,  0.000 sec (  0.647%)
 Dispersion                     ...        0 min,  0.000 sec (  0.806%)
 classical contributions        ...        0 min,  0.000 sec (  0.213%)
 integral evaluation            ...        0 min,  0.005 sec ( 13.593%)
 iterations                     ...        0 min,  0.017 sec ( 46.713%)
 molecular gradient             ...        0 min,  0.014 sec ( 37.577%)
 printout                       ...        0 min,  0.000 sec (  0.420%)

         :::::::::::::::::::::::::::::::::::::::::::::::::::::
         ::                     SUMMARY                     ::
         :::::::::::::::::::::::::::::::::::::::::::::::::::::
         :: total energy             -24.896751014768 Eh    ::
         :: gradient norm             11.781559492764 Eh/a0 ::
         :: HOMO-LUMO gap              3.340621582928 eV    ::
         ::.................................................::
         :: SCC energy               -42.779077977399 Eh    ::
         :: -> isotropic ES            0.141123876439 Eh    ::
         :: -> anisotropic ES         -0.005230418907 Eh    ::
         :: -> anisotropic XC          0.011966818540 Eh    ::
         :: -> dispersion             -0.022657731803 Eh    ::
         :: repulsion energy           0.531105277918 Eh    ::
         :: add. restraining          17.351107525704 Eh    ::
         :: total charge               1.000000000002 e     ::
         :::::::::::::::::::::::::::::::::::::::::::::::::::::

      ----------------------------------------------------------- 
     |                   =====================                   |
     |                        A N C O P T                        |
     |                   =====================                   |
     |               Approximate Normal Coordinate               |
     |                Rational Function Optimizer                |
      ----------------------------------------------------------- 

          ...................................................
          :                      SETUP                      :
          :.................................................:
          :   optimization level             loose          :
          :   max. optcycles                   200          :
          :   ANC micro-cycles                  20          :
          :   degrees of freedom                69          :
          :.................................................:
          :   RF solver                   davidson          :
          :   write xtbopt.log                true          :
          :   linear?                        false          :
          :   energy convergence         0.5000000E-04 Eh   :
          :   grad. convergence          0.4000000E-02 Eh/α :
          :   maxmium RF displ.          1.0000000          :
          :   Hlow (freq-cutoff)         0.1000000E-01      :
          :   Hmax (freq-cutoff)         5.0000000          :
          :   S6 in model hess.         20.0000000          :
          ...................................................

generating ANC from model Hessian ...
Using Lindh-Hessian (1995)
 Shifting diagonal of input Hessian by    1.7846073604266821     
 Lowest  eigenvalues of input Hessian
    0.010000    0.325753    0.000000    0.000000    0.000000    0.000000
    0.000000    0.000000    1.787812    1.789395    1.793852    1.794370
    1.795199    1.798393    1.800511    1.803553    1.806955    1.812117
 Highest eigenvalues
    3.931696    4.000996    4.068297    4.163645    4.249352    6.912726


........................................................................
.............................. CYCLE    1 ..............................
........................................................................

 iter      E             dE          RMSdq      gap      omega  full diag
   1    -42.7790780 -0.427791E+02  0.626E-05    3.34       0.0  T
   2    -42.7790780 -0.124416E-10  0.329E-05    3.34     607.4  T
   3    -42.7790780  0.127898E-12  0.193E-05    3.34    1034.2  T
     SCC iter.                  ...        0 min,  0.005 sec
     gradient                   ...        0 min,  0.014 sec
 * total energy  :   -24.8967510 Eh     change       -0.6650680E-10 Eh
   gradient norm :    11.7815595 Eh/α   predicted     0.0000000E+00 (-100.00%)
   displ. norm   :     0.8125673 α      lambda       -0.9569938E+01
   maximum displ.:     0.7948226 α      in ANC's #69, #61, #67, ...

........................................................................
.............................. CYCLE    2 ..............................
........................................................................

 iter      E             dE          RMSdq      gap      omega  full diag
   1    -42.6819433 -0.426819E+02  0.136E+00    2.72       0.0  T
   2    -42.6931256 -0.111823E-01  0.765E-01    3.05       1.0  T
   3    -42.6962176 -0.309195E-02  0.419E-01    2.90       1.0  T
   4    -42.6967051 -0.487581E-03  0.118E-01    2.92       1.0  T
   5    -42.6969356 -0.230442E-03  0.324E-02    2.95       1.0  T
   6    -42.6969418 -0.616207E-05  0.177E-02    2.93       1.1  T
   7    -42.6969432 -0.147231E-05  0.594E-03    2.94       3.4  T
   8    -42.6969437 -0.439056E-06  0.251E-03    2.94       8.0  T
   9    -42.6969437 -0.327505E-07  0.130E-03    2.94      15.4  T
  10    -42.6969437 -0.994919E-08  0.576E-04    2.94      34.7  T
  11    -42.6969437 -0.235412E-08  0.192E-04    2.94     104.3  T
     SCC iter.                  ...        0 min,  0.015 sec
     gradient                   ...        0 min,  0.014 sec
 * total energy  :   -33.0150290 Eh     change       -0.8118278E+01 Eh
   gradient norm :     8.2459721 Eh/α   predicted    -0.7944320E+01 (  -2.14%)
   displ. norm   :     0.7724583 α      lambda       -0.6360280E+01
   maximum displ.:     0.7517985 α      in ANC's #69, #61, #40, ...

........................................................................
.............................. CYCLE    3 ..............................
........................................................................

 iter      E             dE          RMSdq      gap      omega  full diag
   1    -42.3880457 -0.423880E+02  0.157E+00    1.28       0.0  T
   2    -42.3137793  0.742664E-01  0.254E+00    2.57       1.0  T
   3    -42.4961235 -0.182344E+00  0.976E-01    2.29       1.0  T
   4    -42.5162219 -0.200985E-01  0.295E-01    1.86       1.0  T
   5    -42.5163583 -0.136356E-03  0.139E-01    1.93       1.0  T
   6    -42.5166779 -0.319560E-03  0.671E-02    1.89       1.0  T
   7    -42.5168159 -0.138003E-03  0.326E-02    1.93       1.0  T
   8    -42.5168374 -0.215701E-04  0.115E-02    1.92       1.7  T
   9    -42.5168398 -0.237728E-05  0.365E-03    1.92       5.5  T
  10    -42.5168397  0.688867E-07  0.241E-03    1.92       8.3  T
  11    -42.5168399 -0.164642E-06  0.920E-04    1.92      21.7  T
  12    -42.5168399 -0.117018E-07  0.311E-04    1.92      64.3  T
     SCC iter.                  ...        0 min,  0.016 sec
     gradient                   ...        0 min,  0.013 sec
 * total energy  :   -38.1707940 Eh     change       -0.5155765E+01 Eh
   gradient norm :     5.1455351 Eh/α   predicted    -0.5079581E+01 (  -1.48%)
   displ. norm   :     0.7005583 α      lambda       -0.3569088E+01
   maximum displ.:     0.6629615 α      in ANC's #69, #2, #40, ...

........................................................................
.............................. CYCLE    4 ..............................
........................................................................

 iter      E             dE          RMSdq      gap      omega  full diag
   1    -42.2065166 -0.422065E+02  0.182E+00    1.18       0.0  T
   2    -41.4378887  0.768628E+00  0.404E+00    0.84       1.0  T
   3    -42.3460154 -0.908127E+00  0.683E-01    0.98       1.0  T
   4    -42.3399472  0.606822E-02  0.652E-01    0.96       1.0  T
   5    -42.3483789 -0.843174E-02  0.328E-01    0.96       1.0  T
   6    -42.3506680 -0.228906E-02  0.176E-01    0.90       1.0  T
   7    -42.3511774 -0.509374E-03  0.106E-01    0.92       1.0  T
   8    -42.3512789 -0.101494E-03  0.476E-02    0.92       1.0  T
   9    -42.3513045 -0.256457E-04  0.133E-02    0.92       1.5  T
  10    -42.3513055 -0.100439E-05  0.454E-03    0.92       4.4  T
  11    -42.3513056 -0.886005E-07  0.141E-03    0.92      14.1  T
  12    -42.3513056 -0.247279E-07  0.828E-04    0.92      24.1  T
  13    -42.3513056 -0.437074E-08  0.354E-04    0.92      56.5  T
     SCC iter.                  ...        0 min,  0.017 sec
     gradient                   ...        0 min,  0.013 sec
 * total energy  :   -40.8417753 Eh     change       -0.2670981E+01 Eh
   gradient norm :     2.5226041 Eh/α   predicted    -0.2660366E+01 (  -0.40%)
   displ. norm   :     0.5338263 α      lambda       -0.1303825E+01
   maximum displ.:     0.4767812 α      in ANC's #69, #2, #40, ...

........................................................................
.............................. CYCLE    5 ..............................
........................................................................

 iter      E             dE          RMSdq      gap      omega  full diag
   1    -42.2118489 -0.422118E+02  0.131E+00    0.94       0.0  T
   2    -41.8209733  0.390876E+00  0.268E+00    0.61       1.0  T
   3    -42.1921311 -0.371158E+00  0.115E+00    1.07       1.0  T
   4    -42.2461178 -0.539866E-01  0.314E-01    0.75       1.0  T
   5    -42.2431525  0.296529E-02  0.328E-01    0.63       1.0  T
   6    -42.2462381 -0.308567E-02  0.197E-01    0.69       1.0  T
   7    -42.2473716 -0.113344E-02  0.103E-01    0.69       1.0  T
   8    -42.2478189 -0.447368E-03  0.139E-02    0.72       1.4  T
   9    -42.2478206 -0.167773E-05  0.754E-03    0.72       2.7  T
  10    -42.2478216 -0.977716E-06  0.432E-03    0.72       4.6  T
  11    -42.2478217 -0.877198E-07  0.234E-03    0.72       8.5  T
  12    -42.2478218 -0.161223E-06  0.602E-04    0.72      33.2  T
  13    -42.2478218 -0.657898E-08  0.227E-04    0.72      87.9  T
     SCC iter.                  ...        0 min,  0.017 sec
     gradient                   ...        0 min,  0.013 sec
 * total energy  :   -41.6560073 Eh     change       -0.8142320E+00 Eh
   gradient norm :     0.6229106 Eh/α   predicted    -0.8376908E+00 (   2.88%)
   displ. norm   :     0.2325084 α      lambda       -0.1262612E+00
   maximum displ.:     0.1455550 α      in ANC's #69, #2, #18, ...

........................................................................
.............................. CYCLE    6 ..............................
........................................................................

 iter      E             dE          RMSdq      gap      omega  full diag
   1    -42.2309560 -0.422310E+02  0.534E-01    0.68       0.0  T
   2    -42.2248339  0.612206E-02  0.554E-01    0.71       1.0  T
   3    -42.2227620  0.207185E-02  0.528E-01    0.88       1.0  T
   4    -42.2317665 -0.900442E-02  0.272E-01    0.61       1.0  T
   5    -42.2345508 -0.278436E-02  0.136E-01    0.77       1.0  T
   6    -42.2353951 -0.844223E-03  0.339E-02    0.72       1.0  T
   7    -42.2354175 -0.224307E-04  0.173E-02    0.72       1.2  T
   8    -42.2354258 -0.830562E-05  0.857E-03    0.72       2.3  T
   9    -42.2354270 -0.119764E-05  0.487E-03    0.72       4.1  T
  10    -42.2354279 -0.943644E-06  0.179E-03    0.72      11.2  T
  11    -42.2354280 -0.818536E-07  0.441E-04    0.72      45.4  T
  12    -42.2354280 -0.311807E-08  0.186E-04    0.72     107.8  T
     SCC iter.                  ...        0 min,  0.016 sec
     gradient                   ...        0 min,  0.013 sec
 * total energy  :   -41.7317568 Eh     change       -0.7574951E-01 Eh
   gradient norm :     0.2342916 Eh/α   predicted    -0.6654367E-01 ( -12.15%)
   displ. norm   :     0.1641097 α      lambda       -0.3186957E-01
   maximum displ.:     0.0711679 α      in ANC's #18, #2, #1, ...

........................................................................
.............................. CYCLE    7 ..............................
........................................................................

 iter      E             dE          RMSdq      gap      omega  full diag
   1    -42.2507265 -0.422507E+02  0.405E-01    0.49       0.0  T
   2    -42.2275687  0.231578E-01  0.770E-01    0.97       1.0  T
   3    -42.2500066 -0.224378E-01  0.419E-01    0.57       1.0  T
   4    -42.2559287 -0.592212E-02  0.218E-01    0.72       1.0  T
   5    -42.2576132 -0.168451E-02  0.761E-02    0.63       1.0  T
   6    -42.2577984 -0.185245E-03  0.286E-02    0.64       1.0  T
   7    -42.2578346 -0.361293E-04  0.913E-03    0.65       2.2  T
   8    -42.2578339  0.640243E-06  0.554E-03    0.65       3.6  T
   9    -42.2578353 -0.134348E-05  0.147E-03    0.65      13.6  T
  10    -42.2578353  0.552685E-08  0.726E-04    0.65      27.5  T
  11    -42.2578353 -0.169578E-07  0.293E-04    0.65      68.4  T
     SCC iter.                  ...        0 min,  0.015 sec
     gradient                   ...        0 min,  0.013 sec
 * total energy  :   -41.7594844 Eh     change       -0.2772762E-01 Eh
   gradient norm :     0.2572280 Eh/α   predicted    -0.1636698E-01 ( -40.97%)
   displ. norm   :     0.5208071 α      lambda       -0.9533686E-01
   maximum displ.:     0.2618284 α      in ANC's #18, #19, #61, ...

........................................................................
.............................. CYCLE    8 ..............................
........................................................................

 iter      E             dE          RMSdq      gap      omega  full diag
   1    -42.2814973 -0.422815E+02  0.123E+00    0.32       0.0  T
   2    -41.8743403  0.407157E+00  0.325E+00    1.74       1.0  T
   3    -42.3423512 -0.468011E+00  0.695E-01    0.59       1.0  T
   4    -42.3459075 -0.355625E-02  0.504E-01    0.53       1.0  T
   5    -42.3422731  0.363440E-02  0.493E-01    0.20       1.0  T
   6    -42.3535214 -0.112483E-01  0.110E-01    0.33       1.0  T
   7    -42.3540381 -0.516733E-03  0.354E-02    0.36       1.0  T
   8    -42.3540445 -0.636868E-05  0.170E-02    0.36       1.2  T
   9    -42.3540556 -0.111028E-04  0.541E-03    0.37       3.7  T
  10    -42.3540552  0.385614E-06  0.424E-03    0.37       4.7  T
  11    -42.3540558 -0.625739E-06  0.986E-04    0.37      20.3  T
  12    -42.3540558 -0.132681E-07  0.445E-04    0.37      44.9  T
     SCC iter.                  ...        0 min,  0.016 sec
     gradient                   ...        0 min,  0.013 sec
 * total energy  :   -41.8329769 Eh     change       -0.7349249E-01 Eh
   gradient norm :     0.3170093 Eh/α   predicted    -0.6059864E-01 ( -17.54%)
   displ. norm   :     0.5214142 α      lambda       -0.7096691E-01
   maximum displ.:     0.2775592 α      in ANC's #18, #19, #61, ...

........................................................................
.............................. CYCLE    9 ..............................
........................................................................

 iter      E             dE          RMSdq      gap      omega  full diag
   1    -42.3996013 -0.423996E+02  0.111E+00    0.42       0.0  T
   2    -41.9701582  0.429443E+00  0.335E+00    1.56       1.0  T
   3    -42.4404824 -0.470324E+00  0.568E-01    0.34       1.0  T
   4    -42.4479986 -0.751625E-02  0.232E-01    0.15       1.0  T
   5    -42.4475260  0.472641E-03  0.171E-01    0.12       1.0  T
   6    -42.4486052 -0.107919E-02  0.336E-02    0.16       1.0  T
   7    -42.4486131 -0.790605E-05  0.198E-02    0.16       1.0  T
   8    -42.4486198 -0.669148E-05  0.784E-03    0.16       2.6  T
   9    -42.4486207 -0.894252E-06  0.249E-03    0.16       8.0  T
  10    -42.4486207 -0.235786E-08  0.140E-03    0.16      14.2  T
  11    -42.4486207 -0.259564E-07  0.463E-04    0.16      43.2  T
  12    -42.4486207  0.664450E-09  0.350E-04    0.16      57.1  T
     SCC iter.                  ...        0 min,  0.016 sec
     gradient                   ...        0 min,  0.013 sec
 * total energy  :   -41.8838364 Eh     change       -0.5085947E-01 Eh
   gradient norm :     0.3053531 Eh/α   predicted    -0.4513205E-01 ( -11.26%)
   displ. norm   :     0.4577742 α      lambda       -0.5105861E-01
   maximum displ.:     0.2310482 α      in ANC's #18, #1, #19, ...

........................................................................
.............................. CYCLE   10 ..............................
........................................................................

 iter      E             dE          RMSdq      gap      omega  full diag
   1    -42.4845126 -0.424845E+02  0.859E-01    0.38       0.0  T
   2    -42.1620755  0.322437E+00  0.288E+00    1.30       1.0  T
   3    -42.5058930 -0.343818E+00  0.290E-01    0.09       1.0  T
   4    -42.5054482  0.444742E-03  0.189E-01    0.08       1.0  T
   5    -42.5060066 -0.558320E-03  0.540E-02    0.09       1.0  T
   6    -42.5060734 -0.668138E-04  0.259E-02    0.09       1.0  T
   7    -42.5060682  0.519791E-05  0.226E-02    0.09       1.0  T
   8    -42.5060799 -0.116993E-04  0.118E-02    0.09       1.7  T
   9    -42.5060843 -0.445194E-05  0.230E-03    0.09       8.7  T
  10    -42.5060844 -0.106997E-06  0.114E-03    0.09      17.5  T
  11    -42.5060845 -0.157704E-07  0.505E-04    0.09      39.6  T
  12    -42.5060845 -0.614002E-08  0.179E-04    0.09     111.6  T
     SCC iter.                  ...        0 min,  0.016 sec
     gradient                   ...        0 min,  0.013 sec
 * total energy  :   -41.9171235 Eh     change       -0.3328709E-01 Eh
   gradient norm :     0.2418512 Eh/α   predicted    -0.3087942E-01 (  -7.23%)
   displ. norm   :     0.7220486 α      lambda       -0.6715450E-01
   maximum displ.:     0.5493510 α      in ANC's #1, #18, #19, ...

........................................................................
.............................. CYCLE   11 ..............................
........................................................................

 iter      E             dE          RMSdq      gap      omega  full diag
   1    -42.5053142 -0.425053E+02  0.114E+00    0.56       0.0  T
   2    -42.1467602  0.358554E+00  0.321E+00    1.15       1.0  T
   3    -42.5251010 -0.378341E+00  0.568E-01    0.38       1.0  T
   4    -42.5281293 -0.302835E-02  0.398E-01    0.10       1.0  T
   5    -42.5310385 -0.290919E-02  0.232E-01    0.21       1.0  T
   6    -42.5325567 -0.151811E-02  0.433E-02    0.22       1.0  T
   7    -42.5326100 -0.533844E-04  0.186E-02    0.20       1.1  T
   8    -42.5326131 -0.310501E-05  0.120E-02    0.20       1.7  T
   9    -42.5326183 -0.514679E-05  0.214E-03    0.21       9.3  T
  10    -42.5326184 -0.623200E-07  0.959E-04    0.21      20.9  T
  11    -42.5326184 -0.281842E-08  0.378E-04    0.21      52.9  T
     SCC iter.                  ...        0 min,  0.015 sec
     gradient                   ...        0 min,  0.013 sec
 * total energy  :   -41.9257410 Eh     change       -0.8617537E-02 Eh
   gradient norm :     0.3817196 Eh/α   predicted    -0.5108349E-01 ( 492.79%)
   displ. norm   :     0.4199716 α      lambda       -0.6650677E-01
   maximum displ.:     0.3807048 α      in ANC's #1, #67, #43, ...

........................................................................
.............................. CYCLE   12 ..............................
........................................................................

 iter      E             dE          RMSdq      gap      omega  full diag
   1    -42.5447009 -0.425447E+02  0.436E-01    0.19       0.0  T
   2    -42.5282484  0.164525E-01  0.736E-01    0.55       1.0  T
   3    -42.5450004 -0.167520E-01  0.269E-01    0.18       1.0  T
   4    -42.5452430 -0.242640E-03  0.225E-01    0.31       1.0  T
   5    -42.5462768 -0.103377E-02  0.757E-02    0.25       1.0  T
   6    -42.5463985 -0.121667E-03  0.338E-02    0.26       1.0  T
   7    -42.5464257 -0.272101E-04  0.161E-02    0.26       1.2  T
   8    -42.5464302 -0.454759E-05  0.677E-03    0.26       3.0  T
   9    -42.5464316 -0.131947E-05  0.162E-03    0.25      12.4  T
  10    -42.5464316 -0.101160E-07  0.956E-04    0.25      20.9  T
  11    -42.5464316 -0.113596E-07  0.203E-04    0.25      98.4  T
     SCC iter.                  ...        0 min,  0.015 sec
     gradient                   ...        0 min,  0.013 sec
 * total energy  :   -41.9679380 Eh     change       -0.4219700E-01 Eh
   gradient norm :     0.3033640 Eh/α   predicted    -0.3911878E-01 (  -7.29%)
   displ. norm   :     0.2495596 α      lambda       -0.4357003E-01
   maximum displ.:     0.1345082 α      in ANC's #1, #67, #2, ...

........................................................................
.............................. CYCLE   13 ..............................
........................................................................

 iter      E             dE          RMSdq      gap      omega  full diag
   1    -42.5466279 -0.425466E+02  0.365E-01    0.26       0.0  T
   2    -42.5440839  0.254397E-02  0.388E-01    0.40       1.0  T
   3    -42.5385869  0.549694E-02  0.484E-01    0.11       1.0  T
   4    -42.5451633 -0.657638E-02  0.324E-01    0.41       1.0  T
   5    -42.5481937 -0.303041E-02  0.851E-02    0.31       1.0  T
   6    -42.5483610 -0.167227E-03  0.192E-02    0.30       1.0  T
   7    -42.5483603  0.638666E-06  0.154E-02    0.30       1.3  T
   8    -42.5483660 -0.570025E-05  0.615E-03    0.30       3.3  T
   9    -42.5483671 -0.112525E-05  0.144E-03    0.29      13.9  T
  10    -42.5483672 -0.218906E-07  0.705E-04    0.29      28.4  T
  11    -42.5483672 -0.306074E-08  0.270E-04    0.29      74.1  T
     SCC iter.                  ...        0 min,  0.015 sec
     gradient                   ...        0 min,  0.013 sec
 * total energy  :   -41.9959034 Eh     change       -0.2796540E-01 Eh
   gradient norm :     0.1509020 Eh/α   predicted    -0.2314181E-01 ( -17.25%)
   displ. norm   :     0.3407512 α      lambda       -0.2877223E-01
   maximum displ.:     0.1650937 α      in ANC's #18, #19, #42, ...

........................................................................
.............................. CYCLE   14 ..............................
........................................................................

 iter      E             dE          RMSdq      gap      omega  full diag
   1    -42.5624549 -0.425625E+02  0.522E-01    0.46       0.0  T
   2    -42.5070333  0.554217E-01  0.126E+00    0.22       1.0  T
   3    -42.5508087 -0.437754E-01  0.685E-01    0.65       1.0  T
   4    -42.5669922 -0.161835E-01  0.197E-01    0.41       1.0  T
   5    -42.5675875 -0.595238E-03  0.757E-02    0.37       1.0  T
   6    -42.5676897 -0.102180E-03  0.180E-02    0.35       1.1  T
   7    -42.5677000 -0.103102E-04  0.682E-03    0.36       2.9  T
   8    -42.5677005 -0.521878E-06  0.384E-03    0.36       5.2  T
   9    -42.5677008 -0.293916E-06  0.135E-03    0.36      14.8  T
  10    -42.5677008 -0.333295E-07  0.595E-04    0.36      33.6  T
  11    -42.5677008 -0.677677E-08  0.191E-04    0.36     104.5  T
     SCC iter.                  ...        0 min,  0.015 sec
     gradient                   ...        0 min,  0.013 sec
 * total energy  :   -42.0144744 Eh     change       -0.1857099E-01 Eh
   gradient norm :     0.1427235 Eh/α   predicted    -0.1605659E-01 ( -13.54%)
   displ. norm   :     0.2624148 α      lambda       -0.1391820E-01
   maximum displ.:     0.1311981 α      in ANC's #18, #19, #42, ...

........................................................................
.............................. CYCLE   15 ..............................
........................................................................

 iter      E             dE          RMSdq      gap      omega  full diag
   1    -42.5810747 -0.425811E+02  0.366E-01    0.51       0.0  T
   2    -42.5420978  0.389769E-01  0.104E+00    0.10       1.0  T
   3    -42.5781446 -0.360468E-01  0.386E-01    0.57       1.0  T
   4    -42.5829974 -0.485273E-02  0.110E-01    0.43       1.0  T
   5    -42.5831382 -0.140794E-03  0.303E-02    0.40       1.0  T
   6    -42.5831663 -0.281543E-04  0.729E-03    0.41       2.7  T
   7    -42.5831670 -0.662605E-06  0.332E-03    0.41       6.0  T
   8    -42.5831670 -0.242637E-07  0.147E-03    0.41      13.6  T
   9    -42.5831670 -0.300366E-07  0.737E-04    0.41      27.1  T
  10    -42.5831670 -0.138236E-07  0.281E-04    0.41      71.3  T
     SCC iter.                  ...        0 min,  0.013 sec
     gradient                   ...        0 min,  0.013 sec
 * total energy  :   -42.0247566 Eh     change       -0.1028222E-01 Eh
   gradient norm :     0.1218624 Eh/α   predicted    -0.7438357E-02 ( -27.66%)
   displ. norm   :     0.2770239 α      lambda       -0.1392703E-01
   maximum displ.:     0.1252140 α      in ANC's #18, #1, #19, ...

........................................................................
.............................. CYCLE   16 ..............................
........................................................................

 iter      E             dE          RMSdq      gap      omega  full diag
   1    -42.6002070 -0.426002E+02  0.408E-01    0.61       0.0  T
   2    -42.5098033  0.904037E-01  0.158E+00    0.25       1.0  T
   3    -42.6027945 -0.929912E-01  0.223E-01    0.53       1.0  T
   4    -42.6037625 -0.968078E-03  0.924E-02    0.45       1.0  T
   5    -42.6039379 -0.175392E-03  0.276E-02    0.45       1.0  T
   6    -42.6039563 -0.183877E-04  0.102E-02    0.46       2.0  T
   7    -42.6039583 -0.197480E-05  0.374E-03    0.46       5.3  T
   8    -42.6039585 -0.216501E-06  0.155E-03    0.46      12.9  T
   9    -42.6039585 -0.321106E-07  0.671E-04    0.46      29.8  T
  10    -42.6039585 -0.680543E-08  0.242E-04    0.46      82.6  T
     SCC iter.                  ...        0 min,  0.013 sec
     gradient                   ...        0 min,  0.013 sec
 * total energy  :   -42.0337540 Eh     change       -0.8997372E-02 Eh
   gradient norm :     0.0852984 Eh/α   predicted    -0.7498079E-02 ( -16.66%)
   displ. norm   :     0.1465022 α      lambda       -0.4881858E-02
   maximum displ.:     0.0670316 α      in ANC's #18, #19, #42, ...

........................................................................
.............................. CYCLE   17 ..............................
........................................................................

 iter      E             dE          RMSdq      gap      omega  full diag
   1    -42.6115637 -0.426116E+02  0.247E-01    0.57       0.0  T
   2    -42.5823232  0.292405E-01  0.904E-01    0.12       1.0  T
   3    -42.6121747 -0.298515E-01  0.172E-01    0.56       1.0  T
   4    -42.6130507 -0.875941E-03  0.495E-02    0.49       1.0  T
   5    -42.6130567 -0.601308E-05  0.147E-02    0.49       1.4  T
   6    -42.6130604 -0.374681E-05  0.583E-03    0.49       3.4  T
   7    -42.6130610 -0.573194E-06  0.321E-03    0.49       6.2  T
   8    -42.6130612 -0.211157E-06  0.117E-03    0.49      17.1  T
   9    -42.6130612 -0.111178E-07  0.533E-04    0.49      37.5  T
  10    -42.6130612 -0.340782E-08  0.186E-04    0.49     107.2  T
     SCC iter.                  ...        0 min,  0.013 sec
     gradient                   ...        0 min,  0.013 sec
 * total energy  :   -42.0371492 Eh     change       -0.3395215E-02 Eh
   gradient norm :     0.0669642 Eh/α   predicted    -0.2493392E-02 ( -26.56%)
   displ. norm   :     0.1372030 α      lambda       -0.3715824E-02
   maximum displ.:     0.0590969 α      in ANC's #19, #18, #42, ...

........................................................................
.............................. CYCLE   18 ..............................
........................................................................

 iter      E             dE          RMSdq      gap      omega  full diag
   1    -42.6185112 -0.426185E+02  0.218E-01    0.59       0.0  T
   2    -42.5890890  0.294222E-01  0.899E-01    0.14       1.0  T
   3    -42.6194980 -0.304090E-01  0.106E-01    0.55       1.0  T
   4    -42.6197419 -0.243911E-03  0.410E-02    0.52       1.0  T
   5    -42.6197528 -0.109396E-04  0.192E-02    0.51       1.0  T
   6    -42.6197625 -0.964384E-05  0.574E-03    0.51       3.5  T
   7    -42.6197632 -0.739652E-06  0.203E-03    0.51       9.8  T
   8    -42.6197633 -0.546147E-07  0.997E-04    0.51      20.1  T
   9    -42.6197633 -0.150351E-07  0.362E-04    0.51      55.2  T
     SCC iter.                  ...        0 min,  0.012 sec
     gradient                   ...        0 min,  0.013 sec
 * total energy  :   -42.0399244 Eh     change       -0.2775161E-02 Eh
   gradient norm :     0.0657441 Eh/α   predicted    -0.1892912E-02 ( -31.79%)
   displ. norm   :     0.1585985 α      lambda       -0.4145123E-02
   maximum displ.:     0.0691579 α      in ANC's #19, #13, #18, ...

........................................................................
.............................. CYCLE   19 ..............................
........................................................................

 iter      E             dE          RMSdq      gap      omega  full diag
   1    -42.6222229 -0.426222E+02  0.226E-01    0.61       0.0  T
   2    -42.5924781  0.297448E-01  0.902E-01    0.16       1.0  T
   3    -42.6230582 -0.305801E-01  0.126E-01    0.58       1.0  T
   4    -42.6233845 -0.326271E-03  0.535E-02    0.54       1.0  T
   5    -42.6234416 -0.570684E-04  0.192E-02    0.54       1.0  T
   6    -42.6234497 -0.811218E-05  0.676E-03    0.53       3.0  T
   7    -42.6234509 -0.124125E-05  0.184E-03    0.53      10.9  T
   8    -42.6234509 -0.119094E-07  0.109E-03    0.53      18.4  T
   9    -42.6234509 -0.192898E-07  0.352E-04    0.53      56.8  T
  10    -42.6234510 -0.195878E-08  0.138E-04    0.53     145.4  T
     SCC iter.                  ...        0 min,  0.014 sec
     gradient                   ...        0 min,  0.013 sec
 * total energy  :   -42.0429482 Eh     change       -0.3023822E-02 Eh
   gradient norm :     0.0668925 Eh/α   predicted    -0.2124704E-02 ( -29.73%)
   displ. norm   :     0.1528326 α      lambda       -0.3809735E-02
   maximum displ.:     0.0673070 α      in ANC's #13, #19, #11, ...

........................................................................
.............................. CYCLE   20 ..............................
........................................................................

 iter      E             dE          RMSdq      gap      omega  full diag
   1    -42.6238132 -0.426238E+02  0.190E-01    0.60       0.0  T
   2    -42.6049721  0.188410E-01  0.714E-01    0.24       1.0  T
   3    -42.6242152 -0.192431E-01  0.124E-01    0.59       1.0  T
   4    -42.6244600 -0.244802E-03  0.610E-02    0.56       1.0  T
   5    -42.6245726 -0.112542E-03  0.166E-02    0.55       1.2  T
   6    -42.6245797 -0.713615E-05  0.531E-03    0.54       3.8  T
   7    -42.6245804 -0.633059E-06  0.171E-03    0.54      11.7  T
   8    -42.6245804 -0.154089E-07  0.767E-04    0.54      26.1  T
   9    -42.6245804 -0.956541E-08  0.252E-04    0.54      79.3  T
     SCC iter.                  ...        0 min,  0.012 sec
     gradient                   ...        0 min,  0.013 sec
 * total energy  :   -42.0457687 Eh     change       -0.2820533E-02 Eh
   gradient norm :     0.0683127 Eh/α   predicted    -0.1949378E-02 ( -30.89%)
   displ. norm   :     0.1654704 α      lambda       -0.3974196E-02
   maximum displ.:     0.0829317 α      in ANC's #13, #19, #11, ...
 * RMSD in coord.:     0.9340266 α      energy gain  -0.1714902E+02 Eh

generating ANC from model Hessian ...
Using Lindh-Hessian (1995)
 Shifting diagonal of input Hessian by    1.0318127781339037E-002
 Lowest  eigenvalues of input Hessian
    0.010000    0.000000    0.000000    0.000000    0.000000    0.000000
    0.000000    0.010536    0.010573    0.010919    0.011270    0.012277
    0.012444    0.012968    0.014245    0.015828    0.018916    0.022217
 Highest eigenvalues
    2.098495    2.136681    2.242951    2.471805    3.128040    4.304458


........................................................................
.............................. CYCLE   21 ..............................
........................................................................

 iter      E             dE          RMSdq      gap      omega  full diag
   1    -42.6234336 -0.426234E+02  0.166E-01    0.59       0.0  T
   2    -42.6142457  0.918791E-02  0.498E-01    0.33       1.0  T
   3    -42.6232711 -0.902543E-02  0.148E-01    0.60       1.0  T
   4    -42.6236937 -0.422630E-03  0.615E-02    0.57       1.0  T
   5    -42.6238173 -0.123557E-03  0.137E-02    0.55       1.5  T
   6    -42.6238221 -0.480418E-05  0.548E-03    0.55       3.7  T
   7    -42.6238228 -0.667798E-06  0.161E-03    0.54      12.5  T
   8    -42.6238228 -0.172282E-07  0.657E-04    0.54      30.5  T
   9    -42.6238228 -0.683533E-08  0.252E-04    0.54      79.3  T
     SCC iter.                  ...        0 min,  0.012 sec
     gradient                   ...        0 min,  0.013 sec
 * total energy  :   -42.0487329 Eh     change       -0.2964197E-02 Eh
   gradient norm :     0.0705614 Eh/α   predicted     0.0000000E+00 (-100.00%)
   displ. norm   :     0.5047493 α      lambda       -0.1459786E-01
   maximum displ.:     0.2559511 α      in ANC's #11, #14, #13, ...

........................................................................
.............................. CYCLE   22 ..............................
........................................................................

 iter      E             dE          RMSdq      gap      omega  full diag
   1    -42.6387558 -0.426388E+02  0.284E-01    0.55       0.0  T
   2    -42.6380616  0.694234E-03  0.213E-01    0.47       1.0  T
   3    -42.6279233  0.101383E-01  0.568E-01    0.78       1.0  T
   4    -42.6388176 -0.108943E-01  0.769E-02    0.52       1.0  T
   5    -42.6389423 -0.124680E-03  0.183E-02    0.54       1.1  T
   6    -42.6389483 -0.601571E-05  0.907E-03    0.53       2.2  T
   7    -42.6389494 -0.101890E-05  0.468E-03    0.53       4.3  T
   8    -42.6389497 -0.331898E-06  0.204E-03    0.54       9.8  T
   9    -42.6389498 -0.110436E-06  0.736E-04    0.54      27.2  T
  10    -42.6389498 -0.763012E-08  0.328E-04    0.54      61.0  T
     SCC iter.                  ...        0 min,  0.014 sec
     gradient                   ...        0 min,  0.013 sec
 * total energy  :   -42.0604413 Eh     change       -0.1170834E-01 Eh
   gradient norm :     0.0372154 Eh/α   predicted    -0.9184575E-02 ( -21.56%)
   displ. norm   :     0.6325985 α      lambda       -0.1253237E-01
   maximum displ.:     0.3046620 α      in ANC's #11, #14, #18, ...

........................................................................
.............................. CYCLE   23 ..............................
........................................................................

 iter      E             dE          RMSdq      gap      omega  full diag
   1    -42.6513926 -0.426514E+02  0.338E-01    0.58       0.0  T
   2    -42.6461192  0.527334E-02  0.447E-01    0.36       1.0  T
   3    -42.6451078  0.101148E-02  0.463E-01    0.72       1.0  T
   4    -42.6515352 -0.642741E-02  0.121E-01    0.52       1.0  T
   5    -42.6518968 -0.361649E-03  0.327E-02    0.53       1.0  T
   6    -42.6519258 -0.290299E-04  0.127E-02    0.53       1.6  T
   7    -42.6519281 -0.225677E-05  0.703E-03    0.53       2.8  T
   8    -42.6519292 -0.114160E-05  0.166E-03    0.53      12.0  T
   9    -42.6519293 -0.418736E-07  0.620E-04    0.53      32.2  T
  10    -42.6519293 -0.156481E-08  0.349E-04    0.53      57.4  T
     SCC iter.                  ...        0 min,  0.013 sec
     gradient                   ...        0 min,  0.013 sec
 * total energy  :   -42.0698805 Eh     change       -0.9439245E-02 Eh
   gradient norm :     0.0377247 Eh/α   predicted    -0.8773798E-02 (  -7.05%)
   displ. norm   :     0.6940290 α      lambda       -0.9695283E-02
   maximum displ.:     0.3824546 α      in ANC's #11, #18, #14, ...

........................................................................
.............................. CYCLE   24 ..............................
........................................................................

 iter      E             dE          RMSdq      gap      omega  full diag
   1    -42.6470733 -0.426471E+02  0.511E-01    0.73       0.0  T
   2    -42.5513120  0.957613E-01  0.169E+00    0.14       1.0  T
   3    -42.6479865 -0.966745E-01  0.375E-01    0.69       1.0  T
   4    -42.6506554 -0.266888E-02  0.164E-01    0.59       1.0  T
   5    -42.6511798 -0.524456E-03  0.427E-02    0.57       1.0  T
   6    -42.6512262 -0.463245E-04  0.156E-02    0.56       1.3  T
   7    -42.6512292 -0.304641E-05  0.738E-03    0.57       2.7  T
   8    -42.6512306 -0.138214E-05  0.181E-03    0.57      11.1  T
   9    -42.6512306 -0.468761E-07  0.814E-04    0.57      24.6  T
  10    -42.6512306 -0.520896E-08  0.301E-04    0.57      66.5  T
     SCC iter.                  ...        0 min,  0.014 sec
     gradient                   ...        0 min,  0.013 sec
 * total energy  :   -42.0753887 Eh     change       -0.5508198E-02 Eh
   gradient norm :     0.0652417 Eh/α   predicted    -0.7182636E-02 (  30.40%)
   displ. norm   :     0.6430145 α      lambda       -0.1129516E-01
   maximum displ.:     0.3556069 α      in ANC's #11, #9, #14, ...

........................................................................
.............................. CYCLE   25 ..............................
........................................................................

 iter      E             dE          RMSdq      gap      omega  full diag
   1    -42.6510498 -0.426510E+02  0.589E-01    0.85       0.0  T
   2    -42.4869898  0.164060E+00  0.222E+00    0.28       1.0  T
   3    -42.6551469 -0.168157E+00  0.350E-01    0.76       1.0  T
   4    -42.6572193 -0.207240E-02  0.174E-01    0.65       1.0  T
   5    -42.6578280 -0.608663E-03  0.415E-02    0.64       1.0  T
   6    -42.6578636 -0.355853E-04  0.118E-02    0.64       1.7  T
   7    -42.6578640 -0.442582E-06  0.498E-03    0.64       4.0  T
   8    -42.6578644 -0.443177E-06  0.131E-03    0.64      15.2  T
   9    -42.6578645 -0.202005E-07  0.658E-04    0.64      30.4  T
  10    -42.6578645  0.942180E-11  0.304E-04    0.64      65.9  T
     SCC iter.                  ...        0 min,  0.014 sec
     gradient                   ...        0 min,  0.013 sec
 * total energy  :   -42.0811140 Eh     change       -0.5725336E-02 Eh
   gradient norm :     0.0543450 Eh/α   predicted    -0.7982679E-02 (  39.43%)
   displ. norm   :     0.3183585 α      lambda       -0.6067577E-02
   maximum displ.:     0.1654985 α      in ANC's #11, #20, #12, ...

........................................................................
.............................. CYCLE   26 ..............................
........................................................................

 iter      E             dE          RMSdq      gap      omega  full diag
   1    -42.6666702 -0.426667E+02  0.290E-01    0.80       0.0  T
   2    -42.6302393  0.364309E-01  0.103E+00    0.29       1.0  T
   3    -42.6675722 -0.373329E-01  0.165E-01    0.76       1.0  T
   4    -42.6680568 -0.484636E-03  0.724E-02    0.71       1.0  T
   5    -42.6681407 -0.839124E-04  0.239E-02    0.71       1.0  T
   6    -42.6681535 -0.127362E-04  0.834E-03    0.71       2.4  T
   7    -42.6681539 -0.425027E-06  0.271E-03    0.71       7.4  T
   8    -42.6681540 -0.857487E-07  0.119E-03    0.71      16.8  T
   9    -42.6681540 -0.344550E-07  0.416E-04    0.71      48.1  T
  10    -42.6681540 -0.771159E-09  0.183E-04    0.71     109.2  T
     SCC iter.                  ...        0 min,  0.014 sec
     gradient                   ...        0 min,  0.013 sec
 * total energy  :   -42.0846778 Eh     change       -0.3563736E-02 Eh
   gradient norm :     0.0374336 Eh/α   predicted    -0.3341270E-02 (  -6.24%)
   displ. norm   :     0.4416008 α      lambda       -0.5536702E-02
   maximum displ.:     0.1979244 α      in ANC's #10, #11, #18, ...

........................................................................
.............................. CYCLE   27 ..............................
........................................................................

 iter      E             dE          RMSdq      gap      omega  full diag
   1    -42.6690897 -0.426691E+02  0.370E-01    0.91       0.0  T
   2    -42.5839408  0.851489E-01  0.159E+00    0.15       1.0  T
   3    -42.6722815 -0.883407E-01  0.156E-01    0.82       1.0  T
   4    -42.6725054 -0.223903E-03  0.999E-02    0.77       1.0  T
   5    -42.6726421 -0.136688E-03  0.367E-02    0.77       1.0  T
   6    -42.6726670 -0.249189E-04  0.200E-02    0.78       1.0  T
   7    -42.6726782 -0.111800E-04  0.566E-03    0.78       3.5  T
   8    -42.6726789 -0.651057E-06  0.115E-03    0.79      17.4  T
   9    -42.6726789 -0.258311E-07  0.416E-04    0.79      48.1  T
  10    -42.6726789 -0.118817E-09  0.290E-04    0.79      68.9  T
     SCC iter.                  ...        0 min,  0.014 sec
     gradient                   ...        0 min,  0.013 sec
 * total energy  :   -42.0879673 Eh     change       -0.3289575E-02 Eh
   gradient norm :     0.0260280 Eh/α   predicted    -0.3308215E-02 (   0.57%)
   displ. norm   :     0.3367257 α      lambda       -0.2283192E-02
   maximum displ.:     0.1597877 α      in ANC's #11, #12, #10, ...

........................................................................
.............................. CYCLE   28 ..............................
........................................................................

 iter      E             dE          RMSdq      gap      omega  full diag
   1    -42.6654417 -0.426654E+02  0.254E-01    0.87       0.0  T
   2    -42.6391871  0.262547E-01  0.860E-01    0.44       1.0  T
   3    -42.6650676 -0.258805E-01  0.227E-01    0.88       1.0  T
   4    -42.6664042 -0.133667E-02  0.450E-02    0.81       1.0  T
   5    -42.6664564 -0.522080E-04  0.115E-02    0.80       1.7  T
   6    -42.6664597 -0.324354E-05  0.359E-03    0.80       5.6  T
   7    -42.6664598 -0.157724E-06  0.169E-03    0.80      11.8  T
   8    -42.6664599 -0.265723E-07  0.752E-04    0.80      26.6  T
   9    -42.6664599 -0.588230E-08  0.361E-04    0.80      55.5  T
     SCC iter.                  ...        0 min,  0.012 sec
     gradient                   ...        0 min,  0.012 sec
 * total energy  :   -42.0895457 Eh     change       -0.1578385E-02 Eh
   gradient norm :     0.0252242 Eh/α   predicted    -0.1271035E-02 ( -19.47%)
   displ. norm   :     0.4033271 α      lambda       -0.2774157E-02
   maximum displ.:     0.1937641 α      in ANC's #14, #12, #3, ...

........................................................................
.............................. CYCLE   29 ..............................
........................................................................

 iter      E             dE          RMSdq      gap      omega  full diag
   1    -42.6683565 -0.426684E+02  0.301E-01    0.87       0.0  T
   2    -42.6573939  0.109626E-01  0.579E-01    0.58       1.0  T
   3    -42.6654736 -0.807966E-02  0.345E-01    0.96       1.0  T
   4    -42.6687781 -0.330448E-02  0.810E-02    0.81       1.0  T
   5    -42.6689481 -0.170002E-03  0.184E-02    0.82       1.1  T
   6    -42.6689565 -0.844045E-05  0.566E-03    0.82       3.5  T
   7    -42.6689570 -0.422512E-06  0.267E-03    0.82       7.5  T
   8    -42.6689570 -0.783096E-07  0.954E-04    0.82      21.0  T
   9    -42.6689570 -0.704934E-08  0.472E-04    0.82      42.4  T
     SCC iter.                  ...        0 min,  0.012 sec
     gradient                   ...        0 min,  0.013 sec
 * total energy  :   -42.0913903 Eh     change       -0.1844540E-02 Eh
   gradient norm :     0.0329339 Eh/α   predicted    -0.1612719E-02 ( -12.57%)
   displ. norm   :     0.5173834 α      lambda       -0.2902035E-02
   maximum displ.:     0.2754099 α      in ANC's #11, #14, #12, ...

........................................................................
.............................. CYCLE   30 ..............................
........................................................................

 iter      E             dE          RMSdq      gap      omega  full diag
   1    -42.6569115 -0.426569E+02  0.455E-01    0.97       0.0  T
   2    -42.5768607  0.800509E-01  0.154E+00    0.20       1.0  T
   3    -42.6583614 -0.815007E-01  0.287E-01    0.94       1.0  T
   4    -42.6602951 -0.193374E-02  0.730E-02    0.83       1.0  T
   5    -42.6603507 -0.555470E-04  0.260E-02    0.83       1.0  T
   6    -42.6603586 -0.798086E-05  0.136E-02    0.83       1.5  T
   7    -42.6603634 -0.474566E-05  0.559E-03    0.83       3.6  T
   8    -42.6603641 -0.672982E-06  0.193E-03    0.84      10.3  T
   9    -42.6603641 -0.775708E-07  0.872E-04    0.83      22.9  T
  10    -42.6603642 -0.151883E-07  0.331E-04    0.83      60.4  T
     SCC iter.                  ...        0 min,  0.014 sec
     gradient                   ...        0 min,  0.013 sec
 * total energy  :   -42.0934998 Eh     change       -0.2109535E-02 Eh
   gradient norm :     0.0384784 Eh/α   predicted    -0.1839441E-02 ( -12.80%)
   displ. norm   :     0.5196628 α      lambda       -0.4438119E-02
   maximum displ.:     0.2542728 α      in ANC's #11, #14, #17, ...

........................................................................
.............................. CYCLE   31 ..............................
........................................................................

 iter      E             dE          RMSdq      gap      omega  full diag
   1    -42.6508892 -0.426509E+02  0.570E-01    0.98       0.0  T
   2    -42.6167265  0.341627E-01  0.103E+00    0.47       1.0  T
   3    -42.6364216 -0.196950E-01  0.746E-01    1.25       1.0  T
   4    -42.6534443 -0.170227E-01  0.178E-01    0.94       1.0  T
   5    -42.6538780 -0.433739E-03  0.554E-02    0.91       1.0  T
   6    -42.6539452 -0.671694E-04  0.152E-02    0.89       1.3  T
   7    -42.6539491 -0.388912E-05  0.760E-03    0.89       2.6  T
   8    -42.6539495 -0.459009E-06  0.438E-03    0.90       4.6  T
   9    -42.6539501 -0.534920E-06  0.114E-03    0.89      17.5  T
  10    -42.6539501 -0.209106E-07  0.454E-04    0.89      44.1  T
  11    -42.6539501 -0.112107E-08  0.206E-04    0.89      97.2  T
     SCC iter.                  ...        0 min,  0.015 sec
     gradient                   ...        0 min,  0.013 sec
 * total energy  :   -42.0964415 Eh     change       -0.2941718E-02 Eh
   gradient norm :     0.0463758 Eh/α   predicted    -0.2818315E-02 (  -4.19%)
   displ. norm   :     0.5142017 α      lambda       -0.4497525E-02
   maximum displ.:     0.2974408 α      in ANC's #11, #12, #14, ...

........................................................................
.............................. CYCLE   32 ..............................
........................................................................

 iter      E             dE          RMSdq      gap      omega  full diag
   1    -42.6447473 -0.426447E+02  0.666E-01    1.07       0.0  T
   2    -42.6226071  0.221402E-01  0.913E-01    0.67       1.0  T
   3    -42.6237365 -0.112935E-02  0.886E-01    1.47       1.0  T
   4    -42.6487114 -0.249750E-01  0.170E-01    1.02       1.0  T
   5    -42.6488446 -0.133214E-03  0.654E-02    1.03       1.0  T
   6    -42.6489450 -0.100309E-03  0.184E-02    1.00       1.1  T
   7    -42.6489509 -0.591408E-05  0.713E-03    1.01       2.8  T
   8    -42.6489508  0.580227E-07  0.502E-03    1.01       4.0  T
   9    -42.6489516 -0.749543E-06  0.114E-03    1.01      17.5  T
  10    -42.6489516 -0.104874E-07  0.678E-04    1.01      29.5  T
  11    -42.6489516 -0.504723E-08  0.256E-04    1.01      78.3  T
     SCC iter.                  ...        0 min,  0.015 sec
     gradient                   ...        0 min,  0.013 sec
 * total energy  :   -42.1013601 Eh     change       -0.4918570E-02 Eh
   gradient norm :     0.0664427 Eh/α   predicted    -0.2843343E-02 ( -42.19%)
   displ. norm   :     0.4558049 α      lambda       -0.7468503E-02
   maximum displ.:     0.2698942 α      in ANC's #11, #12, #10, ...

........................................................................
.............................. CYCLE   33 ..............................
........................................................................

 iter      E             dE          RMSdq      gap      omega  full diag
   1    -42.6403697 -0.426404E+02  0.619E-01    1.20       0.0  T
   2    -42.6334508  0.691887E-02  0.653E-01    0.91       1.0  T
   3    -42.6241982  0.925262E-02  0.819E-01    1.56       1.0  T
   4    -42.6448969 -0.206987E-01  0.159E-01    1.18       1.0  T
   5    -42.6447210  0.175925E-03  0.904E-02    1.19       1.0  T
   6    -42.6450091 -0.288133E-03  0.174E-02    1.18       1.2  T
   7    -42.6450124 -0.330309E-05  0.869E-03    1.18       2.3  T
   8    -42.6450121  0.318466E-06  0.614E-03    1.18       3.3  T
   9    -42.6450131 -0.102906E-05  0.214E-03    1.18       9.3  T
  10    -42.6450132 -0.104399E-06  0.685E-04    1.18      29.2  T
  11    -42.6450132 -0.362353E-08  0.230E-04    1.18      86.9  T
     SCC iter.                  ...        0 min,  0.015 sec
     gradient                   ...        0 min,  0.013 sec
 * total energy  :   -42.1093165 Eh     change       -0.7956412E-02 Eh
   gradient norm :     0.0824172 Eh/α   predicted    -0.4510073E-02 ( -43.32%)
   displ. norm   :     0.7730425 α      lambda       -0.3127115E-01
   maximum displ.:     0.2902267 α      in ANC's #10, #26, #39, ...

........................................................................
.............................. CYCLE   34 ..............................
........................................................................

 iter      E             dE          RMSdq      gap      omega  full diag
   1    -42.6059370 -0.426059E+02  0.122E+00    1.17       0.0  T
   2    -42.4519172  0.154020E+00  0.246E+00    0.07       1.0  T
   3    -42.5944208 -0.142504E+00  0.118E+00    1.64       1.0  T
   4    -42.6257575 -0.313367E-01  0.566E-01    0.90       1.0  T
   5    -42.6319672 -0.620975E-02  0.275E-01    1.11       1.0  T
   6    -42.6331458 -0.117853E-02  0.974E-02    1.06       1.0  T
   7    -42.6334185 -0.272720E-03  0.415E-02    1.08       1.0  T
   8    -42.6334671 -0.485682E-04  0.109E-02    1.09       1.8  T
   9    -42.6334687 -0.166352E-05  0.505E-03    1.09       4.0  T
  10    -42.6334692 -0.484753E-06  0.144E-03    1.09      13.9  T
  11    -42.6334692 -0.323716E-07  0.683E-04    1.09      29.3  T
  12    -42.6334692 -0.901447E-08  0.340E-04    1.09      58.8  T
     SCC iter.                  ...        0 min,  0.016 sec
     gradient                   ...        0 min,  0.013 sec
 * total energy  :   -42.0631972 Eh     change        0.4611930E-01 Eh
   gradient norm :     0.3247754 Eh/α   predicted    -0.2497926E-01 (-154.16%)
   displ. norm   :     0.4710023 α      lambda       -0.1250723E+00
   maximum displ.:     0.1649572 α      in ANC's #26, #39, #60, ...

........................................................................
.............................. CYCLE   35 ..............................
........................................................................

 iter      E             dE          RMSdq      gap      omega  full diag
   1    -42.6312344 -0.426312E+02  0.730E-01    1.11       0.0  T
   2    -42.6347135 -0.347909E-02  0.563E-01    1.08       1.0  T
   3    -42.6289091  0.580441E-02  0.607E-01    1.42       1.0  T
   4    -42.6348542 -0.594507E-02  0.436E-01    0.98       1.0  T
   5    -42.6392895 -0.443529E-02  0.110E-01    1.15       1.0  T
   6    -42.6396181 -0.328640E-03  0.259E-02    1.14       1.0  T
   7    -42.6396362 -0.181050E-04  0.780E-03    1.15       2.6  T
   8    -42.6396364 -0.220197E-06  0.466E-03    1.15       4.3  T
   9    -42.6396369 -0.485367E-06  0.107E-03    1.15      18.7  T
  10    -42.6396369 -0.122820E-07  0.435E-04    1.15      46.0  T
  11    -42.6396369 -0.192486E-08  0.201E-04    1.15      99.6  T
     SCC iter.                  ...        0 min,  0.015 sec
     gradient                   ...        0 min,  0.013 sec
 * total energy  :   -42.1136852 Eh     change       -0.5048795E-01 Eh
   gradient norm :     0.1060374 Eh/α   predicted    -0.7640950E-01 (  51.34%)
   displ. norm   :     0.7785514 α      lambda       -0.2846725E-01
   maximum displ.:     0.4534276 α      in ANC's #14, #11, #15, ...

........................................................................
.............................. CYCLE   36 ..............................
........................................................................

 iter      E             dE          RMSdq      gap      omega  full diag
   1    -42.5928062 -0.425928E+02  0.112E+00    0.52       0.0  T
   2    -42.4735376  0.119269E+00  0.217E+00    2.39       1.0  T
   3    -42.6195013 -0.145964E+00  0.636E-01    1.02       1.0  T
   4    -42.6200879 -0.586560E-03  0.443E-01    1.09       1.0  T
   5    -42.6201808 -0.929236E-04  0.311E-01    0.82       1.0  T
   6    -42.6234309 -0.325015E-02  0.404E-02    0.98       1.0  T
   7    -42.6234245  0.642823E-05  0.334E-02    0.98       1.0  T
   8    -42.6234488 -0.242564E-04  0.111E-02    0.97       1.8  T
   9    -42.6234520 -0.319459E-05  0.329E-03    0.97       6.1  T
  10    -42.6234519  0.545942E-07  0.251E-03    0.97       8.0  T
  11    -42.6234521 -0.165165E-06  0.558E-04    0.97      35.8  T
  12    -42.6234521 -0.382889E-08  0.212E-04    0.97      94.2  T
     SCC iter.                  ...        0 min,  0.016 sec
     gradient                   ...        0 min,  0.013 sec
 * total energy  :   -42.0709761 Eh     change        0.4270909E-01 Eh
   gradient norm :     0.2845461 Eh/α   predicted    -0.2286124E-01 (-153.53%)
   displ. norm   :     0.4475271 α      lambda       -0.7977659E-01
   maximum displ.:     0.2298450 α      in ANC's #14, #11, #25, ...

........................................................................
.............................. CYCLE   37 ..............................
........................................................................

 iter      E             dE          RMSdq      gap      omega  full diag
   1    -42.6347502 -0.426348E+02  0.685E-01    1.28       0.0  T
   2    -42.5238978  0.110852E+00  0.197E+00    0.38       1.0  T
   3    -42.6432607 -0.119363E+00  0.435E-01    1.25       1.0  T
   4    -42.6451175 -0.185683E-02  0.220E-01    1.07       1.0  T
   5    -42.6453666 -0.249073E-03  0.981E-02    1.12       1.0  T
   6    -42.6455575 -0.190930E-03  0.418E-02    1.11       1.0  T
   7    -42.6456023 -0.447779E-04  0.986E-03    1.13       2.0  T
   8    -42.6456023 -0.497401E-08  0.718E-03    1.13       2.8  T
   9    -42.6456038 -0.151253E-05  0.210E-03    1.13       9.5  T
  10    -42.6456038 -0.444310E-07  0.122E-03    1.13      16.4  T
  11    -42.6456039 -0.979303E-08  0.854E-04    1.13      23.4  T
  12    -42.6456039 -0.188942E-07  0.265E-04    1.13      75.4  T
     SCC iter.                  ...        0 min,  0.016 sec
     gradient                   ...        0 min,  0.013 sec
 * total energy  :   -42.1171146 Eh     change       -0.4613857E-01 Eh
   gradient norm :     0.0584914 Eh/α   predicted    -0.4787710E-01 (   3.77%)
   displ. norm   :     0.7004494 α      lambda       -0.1331968E-01
   maximum displ.:     0.3287925 α      in ANC's #11, #12, #17, ...

........................................................................
.............................. CYCLE   38 ..............................
........................................................................

 iter      E             dE          RMSdq      gap      omega  full diag
   1    -42.6625743 -0.426626E+02  0.434E-01    1.07       0.0  T
   2    -42.6619963  0.577941E-03  0.381E-01    1.01       1.0  T
   3    -42.6574899  0.450647E-02  0.459E-01    1.28       1.0  T
   4    -42.6614177 -0.392784E-02  0.302E-01    0.95       1.0  T
   5    -42.6638294 -0.241175E-02  0.376E-02    1.08       1.0  T
   6    -42.6638655 -0.360603E-04  0.114E-02    1.07       1.7  T
   7    -42.6638651  0.411495E-06  0.766E-03    1.07       2.6  T
   8    -42.6638662 -0.109124E-05  0.287E-03    1.08       7.0  T
   9    -42.6638663 -0.154721E-06  0.111E-03    1.08      18.0  T
  10    -42.6638664 -0.129480E-07  0.559E-04    1.08      35.8  T
  11    -42.6638664 -0.627440E-08  0.222E-04    1.08      90.1  T
     SCC iter.                  ...        0 min,  0.015 sec
     gradient                   ...        0 min,  0.013 sec
 * total energy  :   -42.1177942 Eh     change       -0.6795267E-03 Eh
   gradient norm :     0.1192988 Eh/α   predicted    -0.9927332E-02 (1360.92%)
   displ. norm   :     0.4002053 α      lambda       -0.1624248E-01
   maximum displ.:     0.1720171 α      in ANC's #14, #17, #12, ...

........................................................................
.............................. CYCLE   39 ..............................
........................................................................

 iter      E             dE          RMSdq      gap      omega  full diag
   1    -42.6432232 -0.426432E+02  0.385E-01    1.11       0.0  T
   2    -42.6418171  0.140608E-02  0.368E-01    0.98       1.0  T
   3    -42.6391160  0.270112E-02  0.433E-01    1.27       1.0  T
   4    -42.6429665 -0.385055E-02  0.206E-01    1.01       1.0  T
   5    -42.6443038 -0.133732E-02  0.555E-02    1.11       1.0  T
   6    -42.6443867 -0.828747E-04  0.141E-02    1.09       1.4  T
   7    -42.6443888 -0.207136E-05  0.621E-03    1.09       3.2  T
   8    -42.6443893 -0.495598E-06  0.270E-03    1.09       7.4  T
   9    -42.6443895 -0.213744E-06  0.814E-04    1.09      24.6  T
  10    -42.6443895 -0.130497E-08  0.422E-04    1.09      47.4  T
     SCC iter.                  ...        0 min,  0.013 sec
     gradient                   ...        0 min,  0.013 sec
 * total energy  :   -42.1205415 Eh     change       -0.2747314E-02 Eh
   gradient norm :     0.0891836 Eh/α   predicted    -0.9422026E-02 ( 242.95%)
   displ. norm   :     0.3970771 α      lambda       -0.1170860E-01
   maximum displ.:     0.2322634 α      in ANC's #14, #10, #3, ...

........................................................................
.............................. CYCLE   40 ..............................
........................................................................

 iter      E             dE          RMSdq      gap      omega  full diag
   1    -42.6512252 -0.426512E+02  0.285E-01    1.07       0.0  T
   2    -42.6474077  0.381752E-02  0.425E-01    1.23       1.0  T
   3    -42.6507933 -0.338566E-02  0.264E-01    0.98       1.0  T
   4    -42.6522018 -0.140851E-02  0.132E-01    1.14       1.0  T
   5    -42.6525147 -0.312904E-03  0.253E-02    1.08       1.0  T
   6    -42.6525312 -0.164373E-04  0.918E-03    1.09       2.2  T
   7    -42.6525310  0.159108E-06  0.744E-03    1.09       2.7  T
   8    -42.6525320 -0.103574E-05  0.174E-03    1.09      11.5  T
   9    -42.6525321 -0.494880E-07  0.740E-04    1.09      27.0  T
  10    -42.6525321 -0.195742E-08  0.451E-04    1.09      44.4  T
     SCC iter.                  ...        0 min,  0.013 sec
     gradient                   ...        0 min,  0.013 sec
 * total energy  :   -42.1249013 Eh     change       -0.4359810E-02 Eh
   gradient norm :     0.0416912 Eh/α   predicted    -0.6777376E-02 (  55.45%)
   displ. norm   :     0.2427069 α      lambda       -0.3563291E-02
   maximum displ.:     0.1181456 α      in ANC's #10, #9, #3, ...

........................................................................
.............................. CYCLE   41 ..............................
........................................................................

 iter      E             dE          RMSdq      gap      omega  full diag
   1    -42.6513418 -0.426513E+02  0.188E-01    1.09       0.0  T
   2    -42.6499650  0.137684E-02  0.244E-01    0.98       1.0  T
   3    -42.6507375 -0.772523E-03  0.178E-01    1.14       1.0  T
   4    -42.6514343 -0.696811E-03  0.494E-02    1.06       1.0  T
   5    -42.6515144 -0.800497E-04  0.158E-02    1.07       1.3  T
   6    -42.6515212 -0.681771E-05  0.433E-03    1.07       4.6  T
   7    -42.6515212 -0.471429E-07  0.196E-03    1.07      10.2  T
   8    -42.6515213 -0.404665E-07  0.572E-04    1.07      35.0  T
   9    -42.6515213 -0.533746E-08  0.292E-04    1.07      68.4  T
     SCC iter.                  ...        0 min,  0.012 sec
     gradient                   ...        0 min,  0.012 sec
 * total energy  :   -42.1264198 Eh     change       -0.1518513E-02 Eh
   gradient norm :     0.0298013 Eh/α   predicted    -0.1886593E-02 (  24.24%)
   displ. norm   :     0.1732944 α      lambda       -0.1339995E-02
   maximum displ.:     0.0824834 α      in ANC's #12, #10, #11, ...

........................................................................
.............................. CYCLE   42 ..............................
........................................................................

 iter      E             dE          RMSdq      gap      omega  full diag
   1    -42.6546272 -0.426546E+02  0.882E-02    1.05       0.0  T
   2    -42.6544472  0.180031E-03  0.955E-02    1.09       1.0  T
   3    -42.6543274  0.119717E-03  0.110E-01    1.01       1.0  T
   4    -42.6546592 -0.331763E-03  0.299E-02    1.06       1.0  T
   5    -42.6546782 -0.189730E-04  0.668E-03    1.06       3.0  T
   6    -42.6546792 -0.103582E-05  0.269E-03    1.06       7.4  T
   7    -42.6546793 -0.847425E-07  0.143E-03    1.06      13.9  T
   8    -42.6546793 -0.349931E-07  0.481E-04    1.06      41.6  T
   9    -42.6546793 -0.554635E-08  0.132E-04    1.06     151.4  T
     SCC iter.                  ...        0 min,  0.012 sec
     gradient                   ...        0 min,  0.013 sec
 * total energy  :   -42.1272737 Eh     change       -0.8539121E-03 Eh
   gradient norm :     0.0222312 Eh/α   predicted    -0.6901318E-03 ( -19.18%)
   displ. norm   :     0.1483106 α      lambda       -0.9725288E-03
   maximum displ.:     0.0623090 α      in ANC's #17, #9, #10, ...
 * RMSD in coord.:     0.8810781 α      energy gain  -0.8150499E-01 Eh

generating ANC from model Hessian ...
Using Lindh-Hessian (1995)
 Shifting diagonal of input Hessian by    9.9464560475604705E-003
 Lowest  eigenvalues of input Hessian
    0.000000    0.000000    0.000000    0.000000    0.000000    0.000000
    0.010000    0.010065    0.010095    0.010406    0.010525    0.010552
    0.013652    0.014439    0.018872    0.021095    0.022194    0.027682
 Highest eigenvalues
    2.165080    2.201248    2.272396    2.361236    2.480970    4.736277


........................................................................
.............................. CYCLE   43 ..............................
........................................................................

 iter      E             dE          RMSdq      gap      omega  full diag
   1    -42.6560401 -0.426560E+02  0.908E-02    1.05       0.0  T
   2    -42.6560223  0.177610E-04  0.630E-02    1.06       1.0  T
   3    -42.6554847  0.537652E-03  0.133E-01    0.99       1.0  T
   4    -42.6560298 -0.545105E-03  0.374E-02    1.06       1.0  T
   5    -42.6560656 -0.358493E-04  0.784E-03    1.05       2.6  T
   6    -42.6560673 -0.162018E-05  0.316E-03    1.05       6.3  T
   7    -42.6560674 -0.177104E-06  0.106E-03    1.05      18.8  T
   8    -42.6560674 -0.123353E-07  0.343E-04    1.05      58.4  T
   9    -42.6560674 -0.222748E-08  0.157E-04    1.05     127.3  T
     SCC iter.                  ...        0 min,  0.012 sec
     gradient                   ...        0 min,  0.013 sec
 * total energy  :   -42.1278079 Eh     change       -0.5341875E-03 Eh
   gradient norm :     0.0129730 Eh/α   predicted     0.0000000E+00 (-100.00%)
   displ. norm   :     0.1149335 α      lambda       -0.4364347E-03
   maximum displ.:     0.0774258 α      in ANC's #1, #9, #3, ...

........................................................................
.............................. CYCLE   44 ..............................
........................................................................

 iter      E             dE          RMSdq      gap      omega  full diag
   1    -42.6571394 -0.426571E+02  0.584E-02    1.05       0.0  T
   2    -42.6571318  0.760580E-05  0.426E-02    1.03       1.0  T
   3    -42.6569444  0.187437E-03  0.774E-02    1.08       1.0  T
   4    -42.6571076 -0.163278E-03  0.343E-02    1.03       1.0  T
   5    -42.6571465 -0.388223E-04  0.264E-03    1.04       7.6  T
   6    -42.6571466 -0.128241E-06  0.120E-03    1.04      16.7  T
   7    -42.6571466  0.752905E-09  0.752E-04    1.04      26.6  T
   8    -42.6571466 -0.125441E-07  0.198E-04    1.04     100.9  T
     SCC iter.                  ...        0 min,  0.011 sec
     gradient                   ...        0 min,  0.012 sec
 * total energy  :   -42.1281152 Eh     change       -0.3072528E-03 Eh
   gradient norm :     0.0049523 Eh/α   predicted    -0.2211128E-03 ( -28.04%)
   displ. norm   :     0.1822030 α      lambda       -0.2814481E-03
   maximum displ.:     0.1421575 α      in ANC's #1, #9, #6, ...

........................................................................
.............................. CYCLE   45 ..............................
........................................................................

 iter      E             dE          RMSdq      gap      omega  full diag
   1    -42.6572758 -0.426573E+02  0.961E-02    1.05       0.0  T
   2    -42.6569802  0.295586E-03  0.119E-01    0.99       1.0  T
   3    -42.6571340 -0.153793E-03  0.782E-02    1.07       1.0  T
   4    -42.6572832 -0.149160E-03  0.207E-02    1.04       1.0  T
   5    -42.6572989 -0.156827E-04  0.234E-03    1.04       8.5  T
   6    -42.6572990 -0.121061E-06  0.108E-03    1.04      18.5  T
   7    -42.6572990 -0.771104E-08  0.520E-04    1.04      38.5  T
   8    -42.6572990 -0.424104E-08  0.176E-04    1.04     113.7  T
     SCC iter.                  ...        0 min,  0.011 sec
     gradient                   ...        0 min,  0.013 sec
 * total energy  :   -42.1283155 Eh     change       -0.2003513E-03 Eh
   gradient norm :     0.0053720 Eh/α   predicted    -0.1453962E-03 ( -27.43%)
   displ. norm   :     0.1909323 α      lambda       -0.1823763E-03
   maximum displ.:     0.1458424 α      in ANC's #1, #6, #9, ...

........................................................................
.............................. CYCLE   46 ..............................
........................................................................

 iter      E             dE          RMSdq      gap      omega  full diag
   1    -42.6567254 -0.426567E+02  0.120E-01    1.05       0.0  T
   2    -42.6563724  0.352944E-03  0.135E-01    0.99       1.0  T
   3    -42.6563730 -0.563926E-06  0.112E-01    1.09       1.0  T
   4    -42.6567436 -0.370638E-03  0.128E-02    1.04       1.6  T
   5    -42.6567502 -0.652241E-05  0.249E-03    1.04       8.0  T
   6    -42.6567503 -0.137074E-06  0.110E-03    1.04      18.1  T
   7    -42.6567503 -0.171531E-07  0.351E-04    1.04      56.9  T
   8    -42.6567503 -0.131712E-08  0.118E-04    1.04     169.9  T
     SCC iter.                  ...        0 min,  0.011 sec
     gradient                   ...        0 min,  0.013 sec
 * total energy  :   -42.1284681 Eh     change       -0.1526334E-03 Eh
   gradient norm :     0.0054711 Eh/α   predicted    -0.9451575E-04 ( -38.08%)
   displ. norm   :     0.2230208 α      lambda       -0.2114739E-03
   maximum displ.:     0.1836879 α      in ANC's #1, #6, #9, ...

........................................................................
.............................. CYCLE   47 ..............................
........................................................................

 iter      E             dE          RMSdq      gap      omega  full diag
   1    -42.6560810 -0.426561E+02  0.169E-01    1.06       0.0  T
   2    -42.6550422  0.103875E-02  0.215E-01    0.96       1.0  T
   3    -42.6557033 -0.661086E-03  0.131E-01    1.09       1.0  T
   4    -42.6561375 -0.434254E-03  0.195E-02    1.04       1.0  T
   5    -42.6561516 -0.140179E-04  0.372E-03    1.04       5.4  T
   6    -42.6561519 -0.378098E-06  0.145E-03    1.04      13.7  T
   7    -42.6561520 -0.395616E-07  0.496E-04    1.04      40.3  T
   8    -42.6561520 -0.236724E-08  0.168E-04    1.04     119.2  T
     SCC iter.                  ...        0 min,  0.011 sec
     gradient                   ...        0 min,  0.013 sec
 * total energy  :   -42.1286497 Eh     change       -0.1815500E-03 Eh
   gradient norm :     0.0059388 Eh/α   predicted    -0.1109971E-03 ( -38.86%)
   displ. norm   :     0.2271103 α      lambda       -0.2152337E-03
   maximum displ.:     0.1804025 α      in ANC's #1, #6, #3, ...

........................................................................
.............................. CYCLE   48 ..............................
........................................................................

 iter      E             dE          RMSdq      gap      omega  full diag
   1    -42.6560555 -0.426561E+02  0.180E-01    1.06       0.0  T
   2    -42.6553924  0.663133E-03  0.187E-01    0.98       1.0  T
   3    -42.6548848  0.507558E-03  0.192E-01    1.13       1.0  T
   4    -42.6560914 -0.120658E-02  0.186E-02    1.04       1.1  T
   5    -42.6561029 -0.114860E-04  0.450E-03    1.04       4.4  T
   6    -42.6561035 -0.584392E-06  0.154E-03    1.04      13.0  T
   7    -42.6561035 -0.408623E-07  0.505E-04    1.04      39.6  T
   8    -42.6561035 -0.323848E-08  0.212E-04    1.04      94.2  T
     SCC iter.                  ...        0 min,  0.011 sec
     gradient                   ...        0 min,  0.013 sec
 * total energy  :   -42.1288342 Eh     change       -0.1845210E-03 Eh
   gradient norm :     0.0048514 Eh/α   predicted    -0.1131682E-03 ( -38.67%)
   displ. norm   :     0.2942320 α      lambda       -0.2688727E-03
   maximum displ.:     0.2495558 α      in ANC's #1, #6, #3, ...

........................................................................
.............................. CYCLE   49 ..............................
........................................................................

 iter      E             dE          RMSdq      gap      omega  full diag
[...]
H            4.04932166329645        2.23497444207954        0.91045312083920
H            4.07849683486168        2.22213531969937       -0.86226383289036
H            2.66290539397116        2.87353529259773       -0.00250706586252
H            4.48315516898732       -0.50841438884321        0.02410534719505
H           -1.85122346379042        2.59839662476199       -0.01065671277796
H           -2.68691510372823        1.28766231207423       -0.89754120116428
H           -2.69260828199705        1.28661709122138        0.86885238532058
H           -4.61254811457274       -4.48693489210031        0.90932477005246
H           -4.61870767406652       -4.47436672050406       -0.94618311252293
H           -3.66241460023791       -3.17238573836138       -0.01656290163955
H            2.70013591581025       -2.35059067764209        0.01540838762887

 Bond Distances (Angstroems)
 ---------------------------
C1-N2=1.4401         C1-H15=1.0902        C1-H16=1.0903        C1-H17=1.0902        N2-C1=1.4401         N2-C3=1.3268         
N2-C6=1.3666         C3-N2=1.3268         C3-N4=1.3436         C3-H18=1.0736        N4-C3=1.3436         N4-C5=1.3723         
N4-H25=1.0108        C5-N4=1.3723         C5-C6=1.4022         C5-N13=1.3071        C6-N2=1.3666         C6-C5=1.4022         
C6-C7=1.4477         C7-C6=1.4477         C7-O8=1.2155         C7-N9=1.3828         O8-C7=1.2155         N9-C7=1.3828         
N9-C10=1.4489        N9-C11=1.4234        C10-N9=1.4489        C10-H19=1.0884       C10-H20=1.0909       C10-H21=1.0909       
C11-N9=1.4234        C11-O12=1.2100       C11-N13=1.3567       O12-C11=1.2100       N13-C5=1.3071        N13-C11=1.3567       
C14-H22=1.0748       C14-H23=1.0724       C14-H24=1.0785       H15-C1=1.0902        H16-C1=1.0903        H17-C1=1.0902        
H18-C3=1.0736        H19-C10=1.0884       H20-C10=1.0909       H21-C10=1.0909       H22-C14=1.0748       H23-C14=1.0724       
H24-C14=1.0785       H25-N4=1.0108        
 C  H  Rav=1.0840 sigma=0.0077  Rmin=1.0724  Rmax=1.0909    10
 C  C  Rav=1.4249 sigma=0.0228  Rmin=1.4022  Rmax=1.4477     2
 N  H  Rav=1.0108 sigma=0.0000  Rmin=1.0108  Rmax=1.0108     1
 N  C  Rav=1.3768 sigma=0.0452  Rmin=1.3071  Rmax=1.4489    10
 O  C  Rav=1.2127 sigma=0.0027  Rmin=1.2100  Rmax=1.2155     2

 selected bond angles (degree)
 --------------------
H15-C1-N2=110.35               H16-C1-N2=110.35               H16-C1-H15=108.80              H17-C1-N2=108.59               
H17-C1-H15=109.32              H17-C1-H16=109.42              C3-N2-C1=126.86                C6-N2-C1=125.26                
C6-N2-C3=107.88                N4-C3-N2=110.34                H18-C3-N2=124.90               H18-C3-N4=124.76               
C5-N4-C3=108.26                H25-N4-C3=126.91               H25-N4-C5=124.83               C6-C5-N4=105.85                
N13-C5-N4=128.18               N13-C5-C6=125.96               C5-C6-N2=107.67                C7-C6-N2=132.58                
C7-C6-C5=119.75                O8-C7-C6=125.23                N9-C7-C6=111.35                N9-C7-O8=123.41                
C10-N9-C7=117.82               C11-N9-C7=126.60               C11-N9-C10=115.58              H19-C10-N9=108.32              
H20-C10-N9=109.80              H20-C10-H19=110.41             H21-C10-N9=109.80              H21-C10-H19=110.40             
H21-C10-H20=108.12             

 selected dihedral angles (degree)
 ---------------------------------
C3-N2-C1-H15=299.09           C3-N2-C1-H16= 59.37           C3-N2-C1-H17=179.29           C6-N2-C1-H15=119.19           
C6-N2-C1-H16=239.47           C6-N2-C1-H17=359.39           N4-C3-N2-C1=180.06            N4-C3-N2-C6=359.98            
H18-C3-N2-C1=  0.08           H18-C3-N2-C6=179.99           C5-N4-C3-N2=  0.00            C5-N4-C3-H18=180.00           
H25-N4-C3-N2=179.97           H25-N4-C3-H18=359.95          C6-C5-N4-C3=  0.00            C6-C5-N4-H25=180.04           
N13-C5-N4-C3=180.04           N13-C5-N4-H25=  0.09          C5-C6-N2-C1=179.94            C5-C6-N2-C3=  0.00            
C7-C6-N2-C1=359.69            C7-C6-N2-C3=179.78            N2-C6-C5-N4=  0.00            N2-C6-C5-N13=179.95           
C7-C6-C5-N4=180.20            C7-C6-C5-N13=  0.15           O8-C7-C6-N2=359.85            O8-C7-C6-C5=179.58            
N9-C7-C6-N2=179.84            N9-C7-C6-C5=359.58            C10-N9-C7-C6=179.96           C10-N9-C7-O8=359.95           
C11-N9-C7-C6=  0.67           C11-N9-C7-O8=180.66           H19-C10-N9-C7=  0.35          H19-C10-N9-C11=179.72         
H20-C10-N9-C7=120.99          H20-C10-N9-C11=300.36         H21-C10-N9-C7=239.73          H21-C10-N9-C11= 59.10         
           -------------------------------------------------
          |                Final Singlepoint                |
           -------------------------------------------------

          ...................................................
          :                      SETUP                      :
          :.................................................:
          :  # basis functions                  67          :
          :  # atomic orbitals                  67          :
          :  # shells                           39          :
          :  # electrons                        74          :
          :  max. iterations                   250          :
          :  Hamiltonian                  GFN2-xTB          :
          :  restarted?                      false          :
          :  GBSA solvation                  false          :
          :  PC potential                    false          :
          :  electronic temp.         5000.0000000     K    :
          :  accuracy                    1.0000000          :
          :  -> integral cutoff          0.2500000E+02      :
          :  -> integral neglect         0.1000000E-07      :
          :  -> SCF convergence          0.1000000E-05 Eh   :
          :  -> wf. convergence          0.1000000E-03 e    :
          :  Broyden damping             0.4000000          :
          ...................................................

 iter      E             dE          RMSdq      gap      omega  full diag
   1    -42.6636099 -0.426636E+02  0.567E-05    1.11       0.0  T
   2    -42.6636099  0.837375E-10  0.661E-05    1.11     302.5  T
   3    -42.6636099  0.191278E-10  0.605E-05    1.11     330.5  T

   *** convergence criteria satisfied after 3 iterations ***

         #    Occupation            Energy/Eh            Energy/eV
      -------------------------------------------------------------
         1        2.0000           -0.8992231             -24.4691
       ...           ...                  ...                  ...
        31        1.9970           -0.6075757             -16.5330
        32        1.9942           -0.5971331             -16.2488
        33        1.9647           -0.5682775             -15.4636
        34        1.9074           -0.5525667             -15.0361
        35        1.8978           -0.5509164             -14.9912
        36        1.8326           -0.5425526             -14.7636
        37        1.7366           -0.5345208             -14.5451 (HOMO)
        38        0.6648           -0.4936157             -13.4320 (LUMO)
        39        0.0119           -0.4235682             -11.5259
        40        0.0009           -0.3833163             -10.4306
        41        0.0001           -0.3508032              -9.5458
        42        0.0000           -0.2639660              -7.1829
       ...           ...                  ...                  ...
        67                          0.5450491              14.8315
      -------------------------------------------------------------
                  HL-Gap            0.0409051 Eh            1.1131 eV
             Fermi-level           -0.5046575 Eh          -13.7324 eV

 SCC (total)                   0 d,  0 h,  0 min,  0.022 sec
 SCC setup                      ...        0 min,  0.000 sec (  0.887%)
 Dispersion                     ...        0 min,  0.000 sec (  0.773%)
 classical contributions        ...        0 min,  0.000 sec (  0.324%)
 integral evaluation            ...        0 min,  0.004 sec ( 19.456%)
 iterations                     ...        0 min,  0.005 sec ( 20.771%)
 molecular gradient             ...        0 min,  0.013 sec ( 57.222%)
 printout                       ...        0 min,  0.000 sec (  0.520%)

         :::::::::::::::::::::::::::::::::::::::::::::::::::::
         ::                     SUMMARY                     ::
         :::::::::::::::::::::::::::::::::::::::::::::::::::::
         :: total energy             -42.137161747474 Eh    ::
         :: gradient norm              0.003141931802 Eh/a0 ::
         :: HOMO-LUMO gap              1.113083932228 eV    ::
         ::.................................................::
         :: SCC energy               -42.663609885366 Eh    ::
         :: -> isotropic ES            0.138979084976 Eh    ::
         :: -> anisotropic ES         -0.010833104653 Eh    ::
         :: -> anisotropic XC          0.020121202550 Eh    ::
         :: -> dispersion             -0.020212953733 Eh    ::
         :: repulsion energy           0.526451800239 Eh    ::
         :: add. restraining           0.000000322305 Eh    ::
         :: total charge               1.000000000000 e     ::
         :::::::::::::::::::::::::::::::::::::::::::::::::::::

           -------------------------------------------------
          |                Property Printout                |
           -------------------------------------------------

    * Orbital Energies and Occupations

         #    Occupation            Energy/Eh            Energy/eV
      -------------------------------------------------------------
         1        2.0000           -0.8992231             -24.4691
       ...           ...                  ...                  ...
        25        1.9998           -0.6513494             -17.7241
        26        1.9993           -0.6314187             -17.1818
        27        1.9993           -0.6304023             -17.1541
        28        1.9981           -0.6150107             -16.7353
        29        1.9980           -0.6142493             -16.7146
        30        1.9977           -0.6118621             -16.6496
        31        1.9970           -0.6075757             -16.5330
        32        1.9942           -0.5971331             -16.2488
        33        1.9647           -0.5682775             -15.4636
        34        1.9074           -0.5525667             -15.0361
        35        1.8978           -0.5509164             -14.9912
        36        1.8326           -0.5425526             -14.7636
        37        1.7366           -0.5345208             -14.5451 (HOMO)
        38        0.6648           -0.4936157             -13.4320 (LUMO)
        39        0.0119           -0.4235682             -11.5259
        40        0.0009           -0.3833163             -10.4306
        41        0.0001           -0.3508032              -9.5458
        42        0.0000           -0.2639660              -7.1829
        43                         -0.1813571              -4.9350
        44                         -0.1617022              -4.4001
        45                         -0.1199053              -3.2628
        46                         -0.0705332              -1.9193
        47                         -0.0240219              -0.6537
        48                         -0.0202474              -0.5510
       ...                                ...                  ...
        67                          0.5450491              14.8315
      -------------------------------------------------------------
                  HL-Gap            0.0409051 Eh            1.1131 eV
             Fermi-level           -0.5046575 Eh          -13.7324 eV

     #   Z          covCN         q      C6AA      α(0)
     1   6 C        3.692    -0.092    22.454     6.781
     2   7 N        2.827     0.086    19.742     6.599
     3   6 C        3.063     0.064    26.500     8.442
     4   7 N        2.794    -0.054    22.281     7.011
     5   6 C        3.066     0.149    24.713     8.152
     6   6 C        3.131    -0.021    28.322     8.712
     7   6 C        2.767     0.277    22.322     7.738
     8   8 O        0.858    -0.368    21.042     6.150
     9   7 N        2.747    -0.087    22.928     7.112
    10   6 C        3.704    -0.055    21.710     6.662
    11   6 C        2.754     0.339    21.240     7.547
    12   8 O        0.860    -0.354    20.786     6.113
    13   7 N        1.832    -0.251    27.384     7.755
    14   6 C        2.778    -0.072    29.768     8.936
    15   1 H        0.924     0.107     1.722     2.052
    16   1 H        0.924     0.107     1.725     2.054
    17   1 H        0.925     0.135     1.494     1.912
    18   1 H        0.926     0.125     1.573     1.961
    19   1 H        0.925     0.112     1.679     2.026
    20   1 H        0.924     0.102     1.768     2.079
    21   1 H        0.924     0.102     1.768     2.079
    22   1 H        0.926     0.131     1.526     1.932
    23   1 H        0.926     0.131     1.527     1.932
    24   1 H        0.926     0.147     1.409     1.856
    25   1 H        0.860     0.238     0.932     1.512

 Mol. C6AA /au·bohr⁶  :       6636.090742
 Mol. C8AA /au·bohr⁸  :     152935.370804
 Mol. α(0) /au        :        125.103468


Wiberg/Mayer (AO) data.
largest (>0.10) Wiberg bond orders for each atom

 ---------------------------------------------------------------------------
     #   Z sym  total        # sym  WBO       # sym  WBO       # sym  WBO
 ---------------------------------------------------------------------------
     1   6 C    3.911 --     2 N    0.983    17 H    0.961    16 H    0.959
                            15 H    0.959
     2   7 N    3.710 --     3 C    1.393     6 C    1.182     1 C    0.983
     3   6 C    3.877 --     2 N    1.393     4 N    1.316    18 H    0.951
     4   7 N    3.595 --     3 C    1.316     5 C    1.152    25 H    0.916
     5   6 C    3.948 --    13 N    1.380     6 C    1.259     4 N    1.152
     6   6 C    3.807 --     5 C    1.259     2 N    1.182     7 C    1.076
     7   6 C    3.954 --     8 O    1.638     9 N    1.143     6 C    1.076
     8   8 O    1.942 --     7 C    1.638     9 N    0.140
     9   7 N    3.471 --     7 C    1.143    11 C    1.029    10 C    0.987
                             8 O    0.140    12 O    0.100
    10   6 C    3.891 --     9 N    0.987    19 H    0.961    20 H    0.951
                            21 H    0.951
    11   6 C    3.943 --    12 O    1.649    13 N    1.179     9 N    1.029
    12   8 O    1.912 --    11 C    1.649     9 N    0.100
    13   7 N    2.833 --     5 C    1.380    11 C    1.179
    14   6 C    2.934 --    23 H    0.980    22 H    0.980    24 H    0.973
    15   1 H    0.986 --     1 C    0.959
    16   1 H    0.986 --     1 C    0.959
    17   1 H    0.981 --     1 C    0.961
    18   1 H    0.983 --     3 C    0.951
    19   1 H    0.979 --    10 C    0.961
    20   1 H    0.969 --    10 C    0.951
    21   1 H    0.969 --    10 C    0.951
    22   1 H    0.982 --    14 C    0.980
    23   1 H    0.982 --    14 C    0.980
    24   1 H    0.977 --    14 C    0.973
    25   1 H    0.942 --     4 N    0.916
 ---------------------------------------------------------------------------

Topologies differ in total number of bonds
Writing topology from bond orders to xtbtopo.mol

molecular dipole:
                 x           y           z       tot (Debye)
 q only:        1.745      -1.825       0.003
   full:        2.184      -1.906       0.005       7.369
molecular quadrupole (traceless):
                xx          xy          yy          xz          yz          zz
 q only:       42.018      25.166      -4.276       0.394       0.042     -37.742
  q+dip:       42.715      22.601      -7.718       0.407       0.021     -34.997
   full:       42.270      21.902      -8.759       0.386       0.029     -33.511

           -------------------------------------------------
          |                Geometry Summary                 |
           -------------------------------------------------

      molecular mass/u    :      195.1988581
   center of mass at/Å    :        0.3265971       0.0267021       0.0026434
  moments of inertia/u·Å² :        0.4290918E+03   0.1218048E+04   0.1637353E+04
rotational constants/cm⁻¹ :        0.3928677E-01   0.1383987E-01   0.1029566E-01

 * 24 selected distances

     #   Z          #   Z                                           value/Å
     1   6 C        2   7 N                                       1.4400816
     2   7 N        3   6 C                                       1.3268493
     3   6 C        4   7 N                                       1.3435712
     4   7 N        5   6 C                                       1.3722744
     2   7 N        6   6 C                                       1.3666474
     5   6 C        6   6 C                                       1.4021541
     7   6 C        8   8 O                                       1.2154697
     7   6 C        9   7 N                                       1.3827773
     9   7 N       10   6 C                                       1.4488775 (max)
     9   7 N       11   6 C                                       1.4234230
    11   6 C       12   8 O                                       1.2099883
     5   6 C       13   7 N                                       1.3071263
    11   6 C       13   7 N                                       1.3566704
     1   6 C       15   1 H                                       1.0902402
     1   6 C       16   1 H                                       1.0902582
     1   6 C       17   1 H                                       1.0901593
     3   6 C       18   1 H                                       1.0735592
    10   6 C       19   1 H                                       1.0884024
    10   6 C       20   1 H                                       1.0909394
    10   6 C       21   1 H                                       1.0908591
    14   6 C       22   1 H                                       1.0748153
    14   6 C       23   1 H                                       1.0724337
    14   6 C       24   1 H                                       1.0784737
     4   7 N       25   1 H                                       1.0107500 (min)

 * 5 distinct bonds (by element types)

   Z      Z             #   av. dist./Å        max./Å        min./Å
   1 H    6 C          10     1.0840140     1.0909394     1.0724337
   6 C    6 C           1     1.4021541     1.4021541     1.4021541
   1 H    7 N           1     1.0107500     1.0107500     1.0107500
   6 C    7 N          10     1.3768298     1.4488775     1.3071263
   6 C    8 O           2     1.2127290     1.2154697     1.2099883


optimized geometry written to: xtbopt.xyz


           -------------------------------------------------
          | TOTAL ENERGY              -42.137161747474 Eh   |
          | GRADIENT NORM               0.003141931802 Eh/α |
          | HOMO-LUMO GAP               1.113083932228 eV   |
           -------------------------------------------------

------------------------------------------------------------------------
 * finished run on 2024/06/05 at 19:59:18.643     
------------------------------------------------------------------------
 total:
 * wall-time:     0 d,  0 h,  0 min,  2.745 sec
 *  cpu-time:     0 d,  0 h,  0 min,  2.723 sec
 * ratio c/w:     0.992 speedup
 SCF:
 * wall-time:     0 d,  0 h,  0 min,  0.037 sec
 *  cpu-time:     0 d,  0 h,  0 min,  0.037 sec
 * ratio c/w:     1.000 speedup
 ANC optimizer:
 * wall-time:     0 d,  0 h,  0 min,  2.678 sec
 *  cpu-time:     0 d,  0 h,  0 min,  2.674 sec
 * ratio c/w:     0.998 speedup

