      -----------------------------------------------------------      
     |                   =====================                   |     
     |                           x T B                           |     
     |                   =====================                   |     
     |                         S. Grimme                         |     
     |          Mulliken Center for Theoretical Chemistry        |     
     |                    University of Bonn                     |     
      -----------------------------------------------------------      

   * xtb version 6.6.1 (8d0f1dd) compiled by 'conda@1efc2f54142f' on 2023-08-01

   xtb is free software: you can redistribute it and/or modify it under
   the terms of the GNU Lesser General Public License as published by
   the Free Software Foundation, either version 3 of the License, or
   (at your option) any later version.
   
   xtb is distributed in the hope that it will be useful,
   but WITHOUT ANY WARRANTY; without even the implied warranty of
   MERCHANTABILITY or FITNESS FOR A PARTICULAR PURPOSE.  See the
   GNU Lesser General Public License for more details.
   
   Cite this work as:
   * C. Bannwarth, E. Caldeweyher, S. Ehlert, A. Hansen, P. Pracht,
     J. Seibert, S. Spicher, S. Grimme, WIREs Comput. Mol. Sci., 2020, 11,
     e01493. DOI: 10.1002/wcms.1493
   
   for GFN2-xTB:
   * C. Bannwarth, S. Ehlert and S. Grimme., J. Chem. Theory Comput., 2019,
     15, 1652-1671. DOI: 10.1021/acs.jctc.8b01176
   for GFN1-xTB:
   * S. Grimme, C. Bannwarth, P. Shushkov, J. Chem. Theory Comput., 2017,
     13, 1989-2009. DOI: 10.1021/acs.jctc.7b00118
   for GFN0-xTB:
   * P. Pracht, E. Caldeweyher, S. Ehlert, S. Grimme, ChemRxiv, 2019, preprint.
     DOI: 10.26434/chemrxiv.8326202.v1
   for GFN-FF:
   * S. Spicher and S. Grimme, Angew. Chem. Int. Ed., 2020, 59, 15665-15673.
     DOI: 10.1002/anie.202004239
   
   for ALPB and GBSA implicit solvation:
   * S. Ehlert, M. Stahn, S. Spicher, S. Grimme, J. Chem. Theory Comput.,
     2021, 17, 4250-4261. DOI: 10.1021/acs.jctc.1c00471
   
   for DFT-D4:
   * E. Caldeweyher, C. Bannwarth and S. Grimme, J. Chem. Phys., 2017,
     147, 034112. DOI: 10.1063/1.4993215
   * E. Caldeweyher, S. Ehlert, A. Hansen, H. Neugebauer, S. Spicher,
     C. Bannwarth and S. Grimme, J. Chem. Phys., 2019, 150, 154122.
     DOI: 10.1063/1.5090222
   * E. Caldeweyher, J.-M. Mewes, S. Ehlert and S. Grimme, Phys. Chem. Chem. Phys.
     2020, 22, 8499-8512. DOI: 10.1039/D0CP00502A
   
   for sTDA-xTB:
   * S. Grimme and C. Bannwarth, J. Chem. Phys., 2016, 145, 054103.
     DOI: 10.1063/1.4959605
   
   in the mass-spec context:
   * V. Asgeirsson, C. Bauer and S. Grimme, Chem. Sci., 2017, 8, 4879.
     DOI: 10.1039/c7sc00601b
   * J. Koopman and S. Grimme, ACS Omega 2019, 4, 12, 15120-15133.
     DOI: 10.1021/acsomega.9b02011
   
   for metadynamics refer to:
   * S. Grimme, J. Chem. Theory Comput., 2019, 155, 2847-2862
     DOI: 10.1021/acs.jctc.9b00143
   
   for SPH calculations refer to:
   * S. Spicher and S. Grimme, J. Chem. Theory Comput., 2021, 17, 1701-1714
     DOI: 10.1021/acs.jctc.0c01306
   
   with help from (in alphabetical order)
   P. Atkinson, C. Bannwarth, F. Bohle, G. Brandenburg, E. Caldeweyher
   M. Checinski, S. Dohm, S. Ehlert, S. Ehrlich, I. Gerasimov, C. Hölzer
   A. Katbashev, J. Koopman, C. Lavigne, S. Lehtola, F. März, M. Müller,
   F. Musil, H. Neugebauer, J. Pisarek, C. Plett, P. Pracht, F. Pultar,
   J. Seibert, P. Shushkov, S. Spicher, M. Stahn, M. Steiner, T. Strunk,
   J. Stückrath, T. Rose, and J. Unsleber
   
 * started run on 2024/04/06 at 11:15:49.806     

           -------------------------------------------------
          |                Calculation Setup                |
           -------------------------------------------------

          program call               : xtb struc.xyz --opt loose --input .xc1 --gfn2
          hostname                   : n-62-30-23
          coordinate file            : struc.xyz
          omp threads                :                     1

   ID    Z sym.   atoms
    1    7 N      1, 17
    2    6 C      2-6, 8, 9, 11-16, 18-23, 25, 26, 28-33
    3    8 O      7, 10, 24, 27
    4    1 H      34-72
constraining bond 5 43 to    4.7133300 Å, actual value:    2.8140611 Å

           -------------------------------------------------
          |                 G F N 2 - x T B                 |
           -------------------------------------------------

        Reference                      10.1021/acs.jctc.8b01176
      * Hamiltonian:
        H0-scaling (s, p, d)           1.850000    2.230000    2.230000
        zeta-weighting                 0.500000
      * Dispersion:
        s8                             2.700000
        a1                             0.520000
        a2                             5.000000
        s9                             5.000000
      * Repulsion:
        kExp                           1.500000    1.000000
        rExp                           1.000000
      * Coulomb:
        alpha                          2.000000
        third order                    shell-resolved
        anisotropic                    true
        a3                             3.000000
        a5                             4.000000
        cn-shift                       1.200000
        cn-exp                         4.000000
        max-rad                        5.000000


          ...................................................
          :                      SETUP                      :
          :.................................................:
          :  # basis functions                 171          :
          :  # atomic orbitals                 171          :
          :  # shells                          105          :
          :  # electrons                       180          :
          :  max. iterations                   250          :
          :  Hamiltonian                  GFN2-xTB          :
          :  restarted?                      false          :
          :  GBSA solvation                  false          :
          :  PC potential                    false          :
          :  electronic temp.         5000.0000000     K    :
          :  accuracy                    1.0000000          :
          :  -> integral cutoff          0.2500000E+02      :
          :  -> integral neglect         0.1000000E-07      :
          :  -> SCF convergence          0.1000000E-05 Eh   :
          :  -> wf. convergence          0.1000000E-03 e    :
          :  Broyden damping             0.4000000          :
          ...................................................

 iter      E             dE          RMSdq      gap      omega  full diag
   1   -100.5973919 -0.100597E+03  0.374E+00    3.20       0.0  T
   2   -100.7362642 -0.138872E+00  0.221E+00    1.08       1.0  T
   3   -100.7049001  0.313641E-01  0.141E+00    3.29       1.0  T
   4   -100.7721690 -0.672689E-01  0.526E-01    1.50       1.0  T
   5   -100.7894292 -0.172602E-01  0.190E-01    1.98       1.0  T
   6   -100.7911978 -0.176856E-02  0.792E-02    1.77       1.0  T
   7   -100.7914750 -0.277198E-03  0.375E-02    1.83       1.0  T
   8   -100.7914914 -0.164582E-04  0.140E-02    1.83       1.0  T
   9   -100.7914976 -0.616739E-05  0.474E-03    1.82       2.5  T
  10   -100.7914988 -0.118227E-05  0.172E-03    1.82       6.8  T
  11   -100.7914989 -0.139928E-06  0.766E-04    1.82      15.4  T
  12   -100.7914989 -0.773143E-08  0.318E-04    1.82      37.0  T

   *** convergence criteria satisfied after 12 iterations ***

         #    Occupation            Energy/Eh            Energy/eV
      -------------------------------------------------------------
         1        2.0000           -0.8078051             -21.9815
       ...           ...                  ...                  ...
        84        1.9966           -0.5157491             -14.0342
        85        1.9959           -0.5128261             -13.9547
        86        1.9840           -0.4911498             -13.3649
        87        1.9795           -0.4872543             -13.2589
        88        1.9640           -0.4782114             -13.0128
        89        1.8920           -0.4602041             -12.5228
        90        1.8557           -0.4553147             -12.3897 (HOMO)
        91        0.3166           -0.3884132             -10.5693 (LUMO)
        92        0.0218           -0.3434697              -9.3463
        93        0.0041           -0.3169887              -8.6257
        94        0.0034           -0.3139726              -8.5436
        95        0.0029           -0.3112618              -8.4699
       ...           ...                  ...                  ...
       171                          0.5822580              15.8440
      -------------------------------------------------------------
                  HL-Gap            0.0669015 Eh            1.8205 eV
             Fermi-level           -0.4148687 Eh          -11.2892 eV

 SCC (total)                   0 d,  0 h,  0 min,  0.190 sec
 SCC setup                      ...        0 min,  0.001 sec (  0.556%)
 Dispersion                     ...        0 min,  0.002 sec (  0.909%)
 classical contributions        ...        0 min,  0.000 sec (  0.226%)
 integral evaluation            ...        0 min,  0.019 sec ( 10.042%)
 iterations                     ...        0 min,  0.098 sec ( 51.556%)
 molecular gradient             ...        0 min,  0.069 sec ( 36.370%)
 printout                       ...        0 min,  0.001 sec (  0.333%)

         :::::::::::::::::::::::::::::::::::::::::::::::::::::
         ::                     SUMMARY                     ::
         :::::::::::::::::::::::::::::::::::::::::::::::::::::
         :: total energy            -100.048212005652 Eh    ::
         :: gradient norm              0.509619217911 Eh/a0 ::
         :: HOMO-LUMO gap              1.820481192090 eV    ::
         ::.................................................::
         :: SCC energy              -100.791498925389 Eh    ::
         :: -> isotropic ES            0.109302908418 Eh    ::
         :: -> anisotropic ES          0.005415138735 Eh    ::
         :: -> anisotropic XC          0.042392697176 Eh    ::
         :: -> dispersion             -0.075527661009 Eh    ::
         :: repulsion energy           1.386151658689 Eh    ::
         :: add. restraining          -0.644081091458 Eh    ::
         :: total charge               1.000000000108 e     ::
         :::::::::::::::::::::::::::::::::::::::::::::::::::::

      ----------------------------------------------------------- 
     |                   =====================                   |
     |                        A N C O P T                        |
     |                   =====================                   |
     |               Approximate Normal Coordinate               |
     |                Rational Function Optimizer                |
      ----------------------------------------------------------- 

          ...................................................
          :                      SETUP                      :
          :.................................................:
          :   optimization level             loose          :
          :   max. optcycles                   200          :
          :   ANC micro-cycles                  20          :
          :   degrees of freedom               210          :
          :.................................................:
          :   RF solver                   davidson          :
          :   write xtbopt.log                true          :
          :   linear?                        false          :
          :   energy convergence         0.5000000E-04 Eh   :
          :   grad. convergence          0.4000000E-02 Eh/α :
          :   maxmium RF displ.          1.0000000          :
          :   Hlow (freq-cutoff)         0.1000000E-01      :
          :   Hmax (freq-cutoff)         5.0000000          :
          :   S6 in model hess.         20.0000000          :
          ...................................................

generating ANC from model Hessian ...
Using Lindh-Hessian (1995)
 Shifting diagonal of input Hessian by    9.9113172694715243E-002
 Lowest  eigenvalues of input Hessian
    0.010000    0.000000    0.000000    0.000000    0.000000    0.000000
    0.000000    0.099189    0.099296    0.099380    0.099409    0.099604
    0.099889    0.099926    0.100214    0.100378    0.100960    0.101446
 Highest eigenvalues
    2.125078    2.139779    2.140694    2.268051    2.273612    2.275958


........................................................................
.............................. CYCLE    1 ..............................
........................................................................

 iter      E             dE          RMSdq      gap      omega  full diag
   1   -100.7914989 -0.100791E+03  0.114E-04    1.82       0.0  T
   2   -100.7914989 -0.678995E-10  0.713E-05    1.82     165.2  T
   3   -100.7914989  0.665210E-10  0.496E-05    1.82     237.5  T
     SCC iter.                  ...        0 min,  0.026 sec
     gradient                   ...        0 min,  0.070 sec
 * total energy  :  -100.0482120 Eh     change       -0.4035485E-08 Eh
   gradient norm :     0.5096194 Eh/α   predicted     0.0000000E+00 (-100.00%)
   displ. norm   :     0.9478349 α      lambda       -0.4450848E+00
   maximum displ.:     0.9107032 α      in ANC's #1, #58, #159, ...

........................................................................
.............................. CYCLE    2 ..............................
........................................................................

 iter      E             dE          RMSdq      gap      omega  full diag
   1   -100.7314665 -0.100731E+03  0.475E-01    1.75       0.0  T
   2   -100.7318458 -0.379315E-03  0.289E-01    1.85       1.0  T
   3   -100.7300196  0.182622E-02  0.162E-01    1.68       1.0  T
   4   -100.7321909 -0.217132E-02  0.362E-02    1.84       1.0  T
   5   -100.7322927 -0.101802E-03  0.129E-02    1.79       1.0  T
   6   -100.7323035 -0.107522E-04  0.629E-03    1.80       1.9  T
   7   -100.7323057 -0.223829E-05  0.273E-03    1.80       4.3  T
   8   -100.7323059 -0.164371E-06  0.877E-04    1.80      13.4  T
   9   -100.7323059 -0.914865E-08  0.459E-04    1.80      25.7  T
     SCC iter.                  ...        0 min,  0.073 sec
     gradient                   ...        0 min,  0.069 sec
 * total energy  :  -100.5300987 Eh     change       -0.4818867E+00 Eh
   gradient norm :     0.5661348 Eh/α   predicted    -0.4224817E+00 ( -12.33%)
   displ. norm   :     0.9672264 α      lambda       -0.5241627E+00
   maximum displ.:     0.9414871 α      in ANC's #1, #58, #159, ...

........................................................................
.............................. CYCLE    3 ..............................
........................................................................

 iter      E             dE          RMSdq      gap      omega  full diag
   1   -100.6023600 -0.100602E+03  0.426E-01    1.78       0.0  T
   2   -100.6047048 -0.234482E-02  0.281E-01    1.89       1.0  T
   3   -100.6050240 -0.319192E-03  0.158E-01    1.75       1.0  T
   4   -100.6052426 -0.218617E-03  0.900E-02    1.91       1.0  T
   5   -100.6058671 -0.624429E-03  0.200E-02    1.81       1.0  T
   6   -100.6058698 -0.273994E-05  0.141E-02    1.84       1.0  T
   7   -100.6058880 -0.181841E-04  0.380E-03    1.83       3.1  T
   8   -100.6058888 -0.810051E-06  0.159E-03    1.83       7.4  T
   9   -100.6058888 -0.330523E-07  0.846E-04    1.83      13.9  T
  10   -100.6058888 -0.180016E-07  0.256E-04    1.83      46.1  T
     SCC iter.                  ...        0 min,  0.081 sec
     gradient                   ...        0 min,  0.069 sec
 * total energy  :  -101.0950160 Eh     change       -0.5649173E+00 Eh
   gradient norm :     0.6693995 Eh/α   predicted    -0.5072656E+00 ( -10.21%)
   displ. norm   :     0.9652127 α      lambda       -0.6166005E+00
   maximum displ.:     0.9351100 α      in ANC's #1, #58, #159, ...

........................................................................
.............................. CYCLE    4 ..............................
........................................................................

 iter      E             dE          RMSdq      gap      omega  full diag
   1   -100.4914844 -0.100491E+03  0.763E-01    1.23       0.0  T
   2   -100.4850246  0.645984E-02  0.468E-01    1.49       1.0  T
   3   -100.4157474  0.692772E-01  0.847E-01    1.06       1.0  T
   4   -100.4947758 -0.790285E-01  0.691E-02    1.37       1.0  T
   5   -100.4948896 -0.113751E-03  0.558E-02    1.35       1.0  T
   6   -100.4950805 -0.190906E-03  0.255E-02    1.36       1.0  T
   7   -100.4950967 -0.162008E-04  0.150E-02    1.36       1.0  T
   8   -100.4951194 -0.227391E-04  0.582E-03    1.36       2.0  T
   9   -100.4951215 -0.207394E-05  0.231E-03    1.36       5.1  T
  10   -100.4951218 -0.273127E-06  0.912E-04    1.36      12.9  T
  11   -100.4951218 -0.142328E-07  0.476E-04    1.36      24.8  T
     SCC iter.                  ...        0 min,  0.089 sec
     gradient                   ...        0 min,  0.069 sec
 * total energy  :  -101.7301770 Eh     change       -0.6351610E+00 Eh
   gradient norm :     0.4662048 Eh/α   predicted    -0.5955238E+00 (  -6.24%)
   displ. norm   :     0.8342921 α      lambda       -0.3766268E+00
   maximum displ.:     0.6740242 α      in ANC's #1, #37, #72, ...

........................................................................
.............................. CYCLE    5 ..............................
........................................................................

 iter      E             dE          RMSdq      gap      omega  full diag
   1   -100.4221218 -0.100422E+03  0.792E-01    0.55       0.0  T
   2   -100.2086371  0.213485E+00  0.142E+00    1.21       1.0  T
   3   -100.4665359 -0.257899E+00  0.326E-01    0.74       1.0  T
   4   -100.4711880 -0.465207E-02  0.216E-01    0.81       1.0  T
   5   -100.4730895 -0.190155E-02  0.976E-02    0.77       1.0  T
   6   -100.4739646 -0.875138E-03  0.349E-02    0.77       1.0  T
   7   -100.4740199 -0.553002E-04  0.218E-02    0.79       1.0  T
   8   -100.4740711 -0.511941E-04  0.854E-03    0.79       1.4  T
   9   -100.4740758 -0.461666E-05  0.514E-03    0.79       2.3  T
  10   -100.4740776 -0.184489E-05  0.177E-03    0.79       6.7  T
  11   -100.4740777 -0.113491E-06  0.698E-04    0.79      16.9  T
  12   -100.4740777 -0.132747E-07  0.431E-04    0.79      27.4  T
     SCC iter.                  ...        0 min,  0.096 sec
     gradient                   ...        0 min,  0.069 sec
 * total energy  :   -99.0224097 Eh     change        0.2707767E+01 Eh
   gradient norm :    17.2405378 Eh/α   predicted    -0.3193921E+00 (-111.80%)
   displ. norm   :     0.4969697 α      lambda       -0.8565344E+01
   maximum displ.:     0.4034897 α      in ANC's #1, #203, #159, ...

........................................................................
.............................. CYCLE    6 ..............................
........................................................................

 iter      E             dE          RMSdq      gap      omega  full diag
   1   -100.5022651 -0.100502E+03  0.502E-01    1.23       0.0  T
   2   -100.3421291  0.160136E+00  0.125E+00    0.84       1.0  T
   3   -100.5265556 -0.184426E+00  0.183E-01    0.89       1.0  T
   4   -100.5232792  0.327632E-02  0.212E-01    0.85       1.0  T
   5   -100.5271469 -0.386763E-02  0.907E-02    0.88       1.0  T
   6   -100.5276873 -0.540437E-03  0.281E-02    0.90       1.0  T
   7   -100.5277731 -0.858219E-04  0.918E-03    0.90       1.3  T
   8   -100.5277757 -0.257189E-05  0.510E-03    0.90       2.3  T
   9   -100.5277764 -0.666934E-06  0.244E-03    0.90       4.8  T
  10   -100.5277767 -0.339067E-06  0.953E-04    0.90      12.4  T
  11   -100.5277767 -0.301502E-07  0.561E-04    0.90      21.0  T
     SCC iter.                  ...        0 min,  0.088 sec
     gradient                   ...        0 min,  0.069 sec
 * total energy  :  -101.8010960 Eh     change       -0.2778686E+01 Eh
   gradient norm :     0.5436625 Eh/α   predicted    -0.5340427E+01 (  92.19%)
   displ. norm   :     0.4625005 α      lambda       -0.6375831E-01
   maximum displ.:     0.1506002 α      in ANC's #1, #58, #37, ...

........................................................................
.............................. CYCLE    7 ..............................
........................................................................

 iter      E             dE          RMSdq      gap      omega  full diag
   1   -100.5819400 -0.100582E+03  0.209E-01    0.78       0.0  T
   2   -100.5775093  0.443071E-02  0.264E-01    0.65       1.0  T
   3   -100.5830291 -0.551977E-02  0.107E-01    0.79       1.0  T
   4   -100.5800381  0.299097E-02  0.191E-01    0.64       1.0  T
   5   -100.5834925 -0.345438E-02  0.441E-02    0.75       1.0  T
   6   -100.5836721 -0.179576E-03  0.100E-02    0.75       1.2  T
   7   -100.5836769 -0.482116E-05  0.448E-03    0.75       2.6  T
   8   -100.5836776 -0.684741E-06  0.182E-03    0.75       6.5  T
   9   -100.5836777 -0.133190E-06  0.939E-04    0.75      12.6  T
  10   -100.5836778 -0.589501E-07  0.402E-04    0.74      29.3  T
     SCC iter.                  ...        0 min,  0.080 sec
     gradient                   ...        0 min,  0.069 sec
 * total energy  :  -101.8617494 Eh     change       -0.6065341E-01 Eh
   gradient norm :     0.3344427 Eh/α   predicted    -0.3869825E-01 ( -36.20%)
   displ. norm   :     0.8824629 α      lambda       -0.1186929E+00
   maximum displ.:     0.2625187 α      in ANC's #1, #114, #96, ...

........................................................................
.............................. CYCLE    8 ..............................
........................................................................

 iter      E             dE          RMSdq      gap      omega  full diag
   1   -100.6508321 -0.100651E+03  0.429E-01    0.58       0.0  T
   2   -100.6444061  0.642591E-02  0.381E-01    0.64       1.0  T
   3   -100.6449465 -0.540374E-03  0.355E-01    0.47       1.0  T
   4   -100.6446521  0.294406E-03  0.276E-01    0.81       1.0  T
   5   -100.6531337 -0.848157E-02  0.793E-02    0.53       1.0  T
   6   -100.6538565 -0.722785E-03  0.220E-02    0.59       1.0  T
   7   -100.6538828 -0.263240E-04  0.101E-02    0.59       1.2  T
   8   -100.6538875 -0.472656E-05  0.353E-03    0.58       3.3  T
   9   -100.6538882 -0.725054E-06  0.135E-03    0.58       8.7  T
  10   -100.6538883 -0.540043E-07  0.622E-04    0.58      18.9  T
  11   -100.6538883 -0.909597E-08  0.290E-04    0.58      40.6  T
     SCC iter.                  ...        0 min,  0.088 sec
     gradient                   ...        0 min,  0.069 sec
 * total energy  :  -101.8770774 Eh     change       -0.1532799E-01 Eh
   gradient norm :     0.5735314 Eh/α   predicted    -0.1055624E+00 ( 588.69%)
   displ. norm   :     0.3372371 α      lambda       -0.1036863E+00
   maximum displ.:     0.1678210 α      in ANC's #114, #135, #128, ...

........................................................................
.............................. CYCLE    9 ..............................
........................................................................

 iter      E             dE          RMSdq      gap      omega  full diag
   1   -100.6565792 -0.100657E+03  0.235E-01    0.63       0.0  T
   2   -100.6550212  0.155796E-02  0.182E-01    0.50       1.0  T
   3   -100.6501811  0.484011E-02  0.259E-01    0.81       1.0  T
   4   -100.6562306 -0.604951E-02  0.974E-02    0.57       1.0  T
   5   -100.6569822 -0.751611E-03  0.334E-02    0.59       1.0  T
   6   -100.6570877 -0.105447E-03  0.959E-03    0.60       1.2  T
   7   -100.6570927 -0.499797E-05  0.394E-03    0.60       3.0  T
   8   -100.6570930 -0.312425E-06  0.175E-03    0.60       6.7  T
   9   -100.6570931 -0.157917E-06  0.599E-04    0.60      19.7  T
  10   -100.6570932 -0.100646E-07  0.241E-04    0.60      49.0  T
     SCC iter.                  ...        0 min,  0.080 sec
     gradient                   ...        0 min,  0.069 sec
 * total energy  :  -101.9248947 Eh     change       -0.4781733E-01 Eh
   gradient norm :     0.1149456 Eh/α   predicted    -0.5773922E-01 (  20.75%)
   displ. norm   :     0.2232529 α      lambda       -0.8440741E-02
   maximum displ.:     0.0718718 α      in ANC's #58, #67, #106, ...

........................................................................
.............................. CYCLE   10 ..............................
........................................................................

 iter      E             dE          RMSdq      gap      omega  full diag
   1   -100.6645353 -0.100665E+03  0.103E-01    0.55       0.0  T
   2   -100.6638735  0.661826E-03  0.105E-01    0.63       1.0  T
   3   -100.6639096 -0.361614E-04  0.965E-02    0.51       1.0  T
   4   -100.6644790 -0.569341E-03  0.366E-02    0.60       1.0  T
   5   -100.6646425 -0.163568E-03  0.104E-02    0.57       1.1  T
   6   -100.6646515 -0.890429E-05  0.518E-03    0.58       2.3  T
   7   -100.6646539 -0.244667E-05  0.150E-03    0.57       7.8  T
   8   -100.6646540 -0.925379E-07  0.578E-04    0.57      20.4  T
   9   -100.6646540 -0.627810E-08  0.216E-04    0.57      54.6  T
     SCC iter.                  ...        0 min,  0.072 sec
     gradient                   ...        0 min,  0.069 sec
 * total energy  :  -101.9320612 Eh     change       -0.7166473E-02 Eh
   gradient norm :     0.1338321 Eh/α   predicted    -0.4430785E-02 ( -38.17%)
   displ. norm   :     0.4705769 α      lambda       -0.1535846E-01
   maximum displ.:     0.1433799 α      in ANC's #67, #58, #106, ...

........................................................................
.............................. CYCLE   11 ..............................
........................................................................

 iter      E             dE          RMSdq      gap      omega  full diag
   1   -100.6714779 -0.100671E+03  0.219E-01    0.46       0.0  T
   2   -100.6656432  0.583475E-02  0.278E-01    0.74       1.0  T
   3   -100.6702104 -0.456725E-02  0.172E-01    0.43       1.0  T
   4   -100.6719325 -0.172209E-02  0.580E-02    0.55       1.0  T
   5   -100.6723289 -0.396382E-03  0.145E-02    0.54       1.0  T
   6   -100.6723372 -0.829696E-05  0.113E-02    0.53       1.0  T
   7   -100.6723498 -0.126056E-04  0.362E-03    0.53       3.3  T
   8   -100.6723506 -0.808154E-06  0.151E-03    0.53       7.8  T
   9   -100.6723507 -0.698624E-07  0.599E-04    0.53      19.7  T
  10   -100.6723507 -0.155548E-07  0.281E-04    0.53      41.9  T
     SCC iter.                  ...        0 min,  0.080 sec
     gradient                   ...        0 min,  0.071 sec
 * total energy  :  -101.9423455 Eh     change       -0.1028434E-01 Eh
   gradient norm :     0.1421687 Eh/α   predicted    -0.9379811E-02 (  -8.80%)
   displ. norm   :     0.3275420 α      lambda       -0.6072115E-02
   maximum displ.:     0.0926358 α      in ANC's #67, #58, #33, ...

........................................................................
.............................. CYCLE   12 ..............................
........................................................................

 iter      E             dE          RMSdq      gap      omega  full diag
   1   -100.6763159 -0.100676E+03  0.143E-01    0.47       0.0  T
   2   -100.6730675  0.324847E-02  0.199E-01    0.65       1.0  T
   3   -100.6758685 -0.280098E-02  0.113E-01    0.44       1.0  T
   4   -100.6766381 -0.769653E-03  0.303E-02    0.52       1.0  T
   5   -100.6767278 -0.896874E-04  0.138E-02    0.50       1.0  T
   6   -100.6767462 -0.184048E-04  0.580E-03    0.51       2.0  T
   7   -100.6767492 -0.296385E-05  0.182E-03    0.51       6.5  T
   8   -100.6767493 -0.143225E-06  0.761E-04    0.51      15.5  T
   9   -100.6767493 -0.100835E-07  0.381E-04    0.51      31.0  T
     SCC iter.                  ...        0 min,  0.072 sec
     gradient                   ...        0 min,  0.069 sec
 * total energy  :  -101.9466878 Eh     change       -0.4342270E-02 Eh
   gradient norm :     0.1442652 Eh/α   predicted    -0.3361797E-02 ( -22.58%)
   displ. norm   :     0.3307264 α      lambda       -0.5796609E-02
   maximum displ.:     0.1033969 α      in ANC's #33, #14, #37, ...

........................................................................
.............................. CYCLE   13 ..............................
........................................................................

 iter      E             dE          RMSdq      gap      omega  full diag
   1   -100.6762785 -0.100676E+03  0.134E-01    0.43       0.0  T
   2   -100.6719918  0.428671E-02  0.220E-01    0.66       1.0  T
   3   -100.6764634 -0.447163E-02  0.823E-02    0.44       1.0  T
   4   -100.6765455 -0.820771E-04  0.548E-02    0.48       1.0  T
   5   -100.6768263 -0.280805E-03  0.179E-02    0.49       1.0  T
   6   -100.6768603 -0.340283E-04  0.440E-03    0.49       2.7  T
   7   -100.6768615 -0.121056E-05  0.194E-03    0.49       6.1  T
   8   -100.6768616 -0.128395E-06  0.885E-04    0.49      13.3  T
   9   -100.6768617 -0.424120E-07  0.305E-04    0.49      38.7  T
     SCC iter.                  ...        0 min,  0.073 sec
     gradient                   ...        0 min,  0.069 sec
 * total energy  :  -101.9510976 Eh     change       -0.4409829E-02 Eh
   gradient norm :     0.1006028 Eh/α   predicted    -0.3215357E-02 ( -27.09%)
   displ. norm   :     0.3887016 α      lambda       -0.6698399E-02
   maximum displ.:     0.1299044 α      in ANC's #14, #33, #37, ...

........................................................................
.............................. CYCLE   14 ..............................
........................................................................

 iter      E             dE          RMSdq      gap      omega  full diag
   1   -100.6815757 -0.100682E+03  0.145E-01    0.42       0.0  T
   2   -100.6784593  0.311635E-02  0.193E-01    0.62       1.0  T
   3   -100.6811405 -0.268119E-02  0.110E-01    0.40       1.0  T
   4   -100.6818117 -0.671131E-03  0.421E-02    0.46       1.0  T
   5   -100.6819602 -0.148542E-03  0.177E-02    0.48       1.0  T
   6   -100.6819917 -0.314802E-04  0.365E-03    0.47       3.2  T
   7   -100.6819924 -0.664573E-06  0.175E-03    0.47       6.7  T
   8   -100.6819925 -0.118545E-06  0.548E-04    0.47      21.5  T
   9   -100.6819925 -0.799614E-08  0.236E-04    0.47      50.0  T
     SCC iter.                  ...        0 min,  0.073 sec
     gradient                   ...        0 min,  0.069 sec
 * total energy  :  -101.9561096 Eh     change       -0.5011993E-02 Eh
   gradient norm :     0.0761601 Eh/α   predicted    -0.3855252E-02 ( -23.08%)
   displ. norm   :     0.3837859 α      lambda       -0.5161379E-02
   maximum displ.:     0.1332447 α      in ANC's #14, #37, #33, ...

........................................................................
.............................. CYCLE   15 ..............................
........................................................................

 iter      E             dE          RMSdq      gap      omega  full diag
   1   -100.6832529 -0.100683E+03  0.143E-01    0.42       0.0  T
   2   -100.6812989  0.195400E-02  0.162E-01    0.58       1.0  T
   3   -100.6823237 -0.102488E-02  0.122E-01    0.38       1.0  T
   4   -100.6833208 -0.997096E-03  0.456E-02    0.45       1.0  T
   5   -100.6835053 -0.184449E-03  0.176E-02    0.47       1.0  T
   6   -100.6835349 -0.296291E-04  0.431E-03    0.46       2.7  T
   7   -100.6835358 -0.838824E-06  0.217E-03    0.46       5.4  T
   8   -100.6835359 -0.178560E-06  0.102E-03    0.46      11.6  T
   9   -100.6835360 -0.632419E-07  0.382E-04    0.46      30.9  T
  10   -100.6835360 -0.776238E-08  0.146E-04    0.46      80.7  T
     SCC iter.                  ...        0 min,  0.081 sec
     gradient                   ...        0 min,  0.069 sec
 * total energy  :  -101.9597077 Eh     change       -0.3598101E-02 Eh
   gradient norm :     0.0456660 Eh/α   predicted    -0.2960863E-02 ( -17.71%)
   displ. norm   :     0.3104926 α      lambda       -0.3317742E-02
   maximum displ.:     0.1126584 α      in ANC's #14, #37, #33, ...

........................................................................
.............................. CYCLE   16 ..............................
........................................................................

 iter      E             dE          RMSdq      gap      omega  full diag
   1   -100.6906789 -0.100691E+03  0.110E-01    0.44       0.0  T
   2   -100.6901260  0.552946E-03  0.992E-02    0.52       1.0  T
   3   -100.6893773  0.748716E-03  0.122E-01    0.37       1.0  T
   4   -100.6907379 -0.136058E-02  0.166E-02    0.45       1.0  T
   5   -100.6907485 -0.106627E-04  0.123E-02    0.46       1.0  T
   6   -100.6907631 -0.145767E-04  0.415E-03    0.46       2.8  T
   7   -100.6907643 -0.117152E-05  0.162E-03    0.46       7.3  T
   8   -100.6907644 -0.153480E-06  0.723E-04    0.46      16.3  T
   9   -100.6907645 -0.298790E-07  0.260E-04    0.46      45.3  T
     SCC iter.                  ...        0 min,  0.073 sec
     gradient                   ...        0 min,  0.069 sec
 * total energy  :  -101.9618564 Eh     change       -0.2148700E-02 Eh
   gradient norm :     0.0452926 Eh/α   predicted    -0.1818798E-02 ( -15.35%)
   displ. norm   :     0.2946306 α      lambda       -0.2362712E-02
   maximum displ.:     0.1137060 α      in ANC's #37, #14, #33, ...

........................................................................
.............................. CYCLE   17 ..............................
........................................................................

 iter      E             dE          RMSdq      gap      omega  full diag
   1   -100.6914465 -0.100691E+03  0.998E-02    0.43       0.0  T
   2   -100.6905499  0.896679E-03  0.111E-01    0.53       1.0  T
   3   -100.6909067 -0.356820E-03  0.907E-02    0.39       1.0  T
   4   -100.6915636 -0.656964E-03  0.907E-03    0.45       1.3  T
   5   -100.6915662 -0.254534E-05  0.545E-03    0.46       2.2  T
   6   -100.6915678 -0.159211E-05  0.362E-03    0.45       3.3  T
   7   -100.6915686 -0.869271E-06  0.167E-03    0.45       7.0  T
   8   -100.6915688 -0.197412E-06  0.598E-04    0.45      19.7  T
   9   -100.6915689 -0.368430E-07  0.205E-04    0.45      57.6  T
     SCC iter.                  ...        0 min,  0.073 sec
     gradient                   ...        0 min,  0.069 sec
 * total energy  :  -101.9635022 Eh     change       -0.1645715E-02 Eh
   gradient norm :     0.0339466 Eh/α   predicted    -0.1283943E-02 ( -21.98%)
   displ. norm   :     0.2650264 α      lambda       -0.2378945E-02
   maximum displ.:     0.0869338 α      in ANC's #37, #14, #39, ...

........................................................................
.............................. CYCLE   18 ..............................
........................................................................

 iter      E             dE          RMSdq      gap      omega  full diag
   1   -100.6972742 -0.100697E+03  0.920E-02    0.43       0.0  T
   2   -100.6967626  0.511559E-03  0.903E-02    0.51       1.0  T
   3   -100.6966100  0.152689E-03  0.920E-02    0.39       1.0  T
   4   -100.6973376 -0.727678E-03  0.748E-03    0.46       1.6  T
   5   -100.6973414 -0.372641E-05  0.399E-03    0.45       3.0  T
   6   -100.6973417 -0.376710E-06  0.301E-03    0.45       3.9  T
   7   -100.6973421 -0.349996E-06  0.178E-03    0.45       6.6  T
   8   -100.6973424 -0.348216E-06  0.370E-04    0.45      31.8  T
   9   -100.6973424 -0.648485E-08  0.155E-04    0.45      76.0  T
     SCC iter.                  ...        0 min,  0.073 sec
     gradient                   ...        0 min,  0.075 sec
 * total energy  :  -101.9651111 Eh     change       -0.1608960E-02 Eh
   gradient norm :     0.0228563 Eh/α   predicted    -0.1273030E-02 ( -20.88%)
   displ. norm   :     0.3174034 α      lambda       -0.2071057E-02
   maximum displ.:     0.1132634 α      in ANC's #37, #14, #39, ...

........................................................................
.............................. CYCLE   19 ..............................
........................................................................

 iter      E             dE          RMSdq      gap      omega  full diag
   1   -100.6983595 -0.100698E+03  0.108E-01    0.43       0.0  T
   2   -100.6973165  0.104304E-02  0.120E-01    0.53       1.0  T
   3   -100.6977615 -0.445025E-03  0.968E-02    0.39       1.0  T
   4   -100.6984820 -0.720458E-03  0.167E-02    0.45       1.0  T
   5   -100.6985025 -0.204952E-04  0.480E-03    0.45       2.5  T
   6   -100.6985031 -0.602603E-06  0.333E-03    0.45       3.5  T
   7   -100.6985034 -0.338988E-06  0.259E-03    0.45       4.5  T
   8   -100.6985040 -0.586820E-06  0.706E-04    0.45      16.7  T
   9   -100.6985040 -0.327445E-07  0.236E-04    0.45      49.9  T
     SCC iter.                  ...        0 min,  0.072 sec
     gradient                   ...        0 min,  0.069 sec
 * total energy  :  -101.9656275 Eh     change       -0.5164078E-03 Eh
   gradient norm :     0.0796812 Eh/α   predicted    -0.1139844E-02 ( 120.73%)
   displ. norm   :     0.1057680 α      lambda       -0.1945576E-02
   maximum displ.:     0.0360399 α      in ANC's #49, #26, #35, ...

........................................................................
.............................. CYCLE   20 ..............................
........................................................................

 iter      E             dE          RMSdq      gap      omega  full diag
   1   -100.6987732 -0.100699E+03  0.514E-02    0.45       0.0  T
   2   -100.6986037  0.169549E-03  0.530E-02    0.49       1.0  T
   3   -100.6986234 -0.196570E-04  0.471E-02    0.43       1.0  T
   4   -100.6987780 -0.154648E-03  0.159E-02    0.46       1.0  T
   5   -100.6988027 -0.246981E-04  0.242E-03    0.45       4.9  T
   6   -100.6988026  0.995058E-07  0.234E-03    0.46       5.0  T
   7   -100.6988031 -0.542700E-06  0.869E-04    0.46      13.6  T
   8   -100.6988032 -0.354820E-07  0.372E-04    0.46      31.7  T
     SCC iter.                  ...        0 min,  0.065 sec
     gradient                   ...        0 min,  0.069 sec
 * total energy  :  -101.9666843 Eh     change       -0.1056736E-02 Eh
   gradient norm :     0.0134509 Eh/α   predicted    -0.9836810E-03 (  -6.91%)
   displ. norm   :     0.0972621 α      lambda       -0.4946265E-03
   maximum displ.:     0.0271912 α      in ANC's #26, #37, #67, ...
 * RMSD in coord.:     0.5951135 α      energy gain  -0.1918472E+01 Eh

generating ANC from model Hessian ...
Using Lindh-Hessian (1995)
 Shifting diagonal of input Hessian by    9.9541669410974209E-003
 Lowest  eigenvalues of input Hessian
    0.000000    0.000000    0.000000    0.000000    0.000000    0.000000
    0.010000    0.010039    0.010133    0.010267    0.010399    0.010556
    0.010604    0.010888    0.011060    0.011572    0.011797    0.012358
 Highest eigenvalues
    2.048465    2.089365    2.155707    2.182526    2.327297    2.453692


........................................................................
.............................. CYCLE   21 ..............................
........................................................................

 iter      E             dE          RMSdq      gap      omega  full diag
   1   -100.6984720 -0.100698E+03  0.384E-02    0.44       0.0  T
   2   -100.6982459  0.226140E-03  0.543E-02    0.49       1.0  T
   3   -100.6984704 -0.224492E-03  0.242E-02    0.44       1.0  T
   4   -100.6984965 -0.261509E-04  0.859E-03    0.46       1.4  T
   5   -100.6985008 -0.430920E-05  0.426E-03    0.46       2.8  T
   6   -100.6985025 -0.168307E-05  0.144E-03    0.46       8.2  T
   7   -100.6985026 -0.924751E-07  0.751E-04    0.46      15.7  T
   8   -100.6985027 -0.498839E-07  0.252E-04    0.46      46.8  T
     SCC iter.                  ...        0 min,  0.065 sec
     gradient                   ...        0 min,  0.069 sec
 * total energy  :  -101.9671070 Eh     change       -0.4227890E-03 Eh
   gradient norm :     0.0138647 Eh/α   predicted     0.0000000E+00 (-100.00%)
   displ. norm   :     0.1858838 α      lambda       -0.9133214E-03
   maximum displ.:     0.0761218 α      in ANC's #24, #36, #25, ...

........................................................................
.............................. CYCLE   22 ..............................
........................................................................

 iter      E             dE          RMSdq      gap      omega  full diag
   1   -100.6994176 -0.100699E+03  0.603E-02    0.45       0.0  T
   2   -100.6993232  0.943769E-04  0.486E-02    0.48       1.0  T
   3   -100.6989718  0.351364E-03  0.691E-02    0.41       1.0  T
   4   -100.6994165 -0.444680E-03  0.161E-02    0.47       1.0  T
   5   -100.6994370 -0.205278E-04  0.496E-03    0.46       2.4  T
   6   -100.6994388 -0.174314E-05  0.258E-03    0.46       4.6  T
   7   -100.6994393 -0.520865E-06  0.988E-04    0.46      11.9  T
   8   -100.6994394 -0.709319E-07  0.306E-04    0.46      38.6  T
     SCC iter.                  ...        0 min,  0.065 sec
     gradient                   ...        0 min,  0.069 sec
 * total energy  :  -101.9677980 Eh     change       -0.6909755E-03 Eh
   gradient norm :     0.0178103 Eh/α   predicted    -0.4724770E-03 ( -31.62%)
   displ. norm   :     0.4520306 α      lambda       -0.1567748E-02
   maximum displ.:     0.1862551 α      in ANC's #24, #36, #25, ...

........................................................................
.............................. CYCLE   23 ..............................
........................................................................

 iter      E             dE          RMSdq      gap      omega  full diag
   1   -100.6982525 -0.100698E+03  0.149E-01    0.46       0.0  T
   2   -100.6975389  0.713545E-03  0.127E-01    0.54       1.0  T
   3   -100.6960556  0.148333E-02  0.160E-01    0.37       1.0  T
   4   -100.6982838 -0.222825E-02  0.338E-02    0.49       1.0  T
   5   -100.6983991 -0.115289E-03  0.616E-03    0.48       1.9  T
   6   -100.6984005 -0.142077E-05  0.380E-03    0.48       3.1  T
   7   -100.6983999  0.619774E-06  0.402E-03    0.48       2.9  T
   8   -100.6984015 -0.160854E-05  0.768E-04    0.48      15.3  T
   9   -100.6984016 -0.444135E-07  0.251E-04    0.48      46.9  T
  10   -100.6984016 -0.181535E-08  0.125E-04    0.48      94.5  T
     SCC iter.                  ...        0 min,  0.080 sec
     gradient                   ...        0 min,  0.069 sec
 * total energy  :  -101.9685995 Eh     change       -0.8014661E-03 Eh
   gradient norm :     0.0311665 Eh/α   predicted    -0.9440459E-03 (  17.79%)
   displ. norm   :     0.3133836 α      lambda       -0.9720638E-03
   maximum displ.:     0.1109272 α      in ANC's #24, #28, #36, ...

........................................................................
.............................. CYCLE   24 ..............................
........................................................................

 iter      E             dE          RMSdq      gap      omega  full diag
   1   -100.6966905 -0.100697E+03  0.110E-01    0.48       0.0  T
   2   -100.6963056  0.384972E-03  0.952E-02    0.53       1.0  T
   3   -100.6957319  0.573710E-03  0.110E-01    0.43       1.0  T
   4   -100.6966755 -0.943687E-03  0.278E-02    0.52       1.0  T
   5   -100.6967624 -0.868629E-04  0.113E-02    0.49       1.0  T
   6   -100.6967747 -0.122848E-04  0.421E-03    0.50       2.8  T
   7   -100.6967757 -0.104449E-05  0.186E-03    0.49       6.3  T
   8   -100.6967759 -0.190614E-06  0.408E-04    0.49      28.9  T
   9   -100.6967759 -0.809845E-08  0.171E-04    0.49      69.0  T
     SCC iter.                  ...        0 min,  0.072 sec
     gradient                   ...        0 min,  0.069 sec
 * total energy  :  -101.9692888 Eh     change       -0.6892809E-03 Eh
   gradient norm :     0.0157186 Eh/α   predicted    -0.5337929E-03 ( -22.56%)
   displ. norm   :     0.3726918 α      lambda       -0.1020266E-02
   maximum displ.:     0.1241527 α      in ANC's #28, #24, #36, ...

........................................................................
.............................. CYCLE   25 ..............................
........................................................................

 iter      E             dE          RMSdq      gap      omega  full diag
   1   -100.6975070 -0.100698E+03  0.128E-01    0.51       0.0  T
   2   -100.6969154  0.591538E-03  0.117E-01    0.57       1.0  T
   3   -100.6965669  0.348529E-03  0.115E-01    0.46       1.0  T
   4   -100.6974595 -0.892589E-03  0.366E-02    0.56       1.0  T
   5   -100.6976158 -0.156283E-03  0.153E-02    0.51       1.0  T
   6   -100.6976398 -0.240634E-04  0.403E-03    0.52       2.9  T
   7   -100.6976407 -0.841365E-06  0.198E-03    0.52       6.0  T
   8   -100.6976408 -0.172546E-06  0.564E-04    0.52      20.9  T
   9   -100.6976409 -0.172932E-07  0.196E-04    0.52      60.2  T
     SCC iter.                  ...        0 min,  0.073 sec
     gradient                   ...        0 min,  0.069 sec
 * total energy  :  -101.9700865 Eh     change       -0.7977516E-03 Eh
   gradient norm :     0.0274624 Eh/α   predicted    -0.5810033E-03 ( -27.17%)
   displ. norm   :     0.4481455 α      lambda       -0.1121845E-02
   maximum displ.:     0.1439619 α      in ANC's #28, #6, #26, ...

........................................................................
.............................. CYCLE   26 ..............................
........................................................................

 iter      E             dE          RMSdq      gap      omega  full diag
   1   -100.6991034 -0.100699E+03  0.143E-01    0.55       0.0  T
   2   -100.6982061  0.897349E-03  0.141E-01    0.61       1.0  T
   3   -100.6984058 -0.199660E-03  0.109E-01    0.51       1.0  T
   4   -100.6990378 -0.632035E-03  0.450E-02    0.61       1.0  T
   5   -100.6992766 -0.238833E-03  0.171E-02    0.55       1.0  T
   6   -100.6993061 -0.294706E-04  0.399E-03    0.56       3.0  T
   7   -100.6993068 -0.671977E-06  0.213E-03    0.56       5.5  T
   8   -100.6993070 -0.195528E-06  0.716E-04    0.56      16.5  T
   9   -100.6993070 -0.368482E-07  0.211E-04    0.56      55.8  T
     SCC iter.                  ...        0 min,  0.073 sec
     gradient                   ...        0 min,  0.069 sec
 * total energy  :  -101.9709231 Eh     change       -0.8365674E-03 Eh
   gradient norm :     0.0218416 Eh/α   predicted    -0.6736115E-03 ( -19.48%)
   displ. norm   :     0.4610578 α      lambda       -0.8918051E-03
   maximum displ.:     0.1557796 α      in ANC's #6, #12, #28, ...

........................................................................
.............................. CYCLE   27 ..............................
........................................................................

 iter      E             dE          RMSdq      gap      omega  full diag
   1   -100.6992840 -0.100699E+03  0.131E-01    0.60       0.0  T
   2   -100.6986353  0.648697E-03  0.126E-01    0.65       1.0  T
   3   -100.6987349 -0.995914E-04  0.969E-02    0.56       1.0  T
   4   -100.6992661 -0.531207E-03  0.391E-02    0.64       1.0  T
   5   -100.6994233 -0.157152E-03  0.173E-02    0.59       1.0  T
   6   -100.6994562 -0.328992E-04  0.380E-03    0.61       3.1  T
   7   -100.6994568 -0.670480E-06  0.190E-03    0.61       6.2  T
   8   -100.6994570 -0.147867E-06  0.711E-04    0.61      16.6  T
   9   -100.6994570 -0.463972E-07  0.188E-04    0.61      62.6  T
     SCC iter.                  ...        0 min,  0.073 sec
     gradient                   ...        0 min,  0.071 sec
 * total energy  :  -101.9716426 Eh     change       -0.7195497E-03 Eh
   gradient norm :     0.0122812 Eh/α   predicted    -0.5407058E-03 ( -24.85%)
   displ. norm   :     0.5332107 α      lambda       -0.1126130E-02
   maximum displ.:     0.2198885 α      in ANC's #6, #12, #7, ...

........................................................................
.............................. CYCLE   28 ..............................
........................................................................

 iter      E             dE          RMSdq      gap      omega  full diag
   1   -100.7046001 -0.100705E+03  0.132E-01    0.65       0.0  T
   2   -100.7040850  0.515051E-03  0.123E-01    0.70       1.0  T
   3   -100.7041098 -0.247175E-04  0.919E-02    0.62       1.0  T
   4   -100.7046567 -0.546929E-03  0.363E-02    0.70       1.0  T
   5   -100.7047352 -0.785600E-04  0.210E-02    0.65       1.0  T
   6   -100.7047887 -0.534098E-04  0.375E-03    0.67       3.1  T
   7   -100.7047892 -0.542823E-06  0.192E-03    0.66       6.1  T
   8   -100.7047894 -0.213707E-06  0.576E-04    0.66      20.4  T
   9   -100.7047894 -0.248018E-07  0.213E-04    0.66      55.2  T
     SCC iter.                  ...        0 min,  0.073 sec
     gradient                   ...        0 min,  0.069 sec
 * total energy  :  -101.9725096 Eh     change       -0.8669298E-03 Eh
   gradient norm :     0.0190195 Eh/α   predicted    -0.7231590E-03 ( -16.58%)
   displ. norm   :     0.7815599 α      lambda       -0.1534976E-02
   maximum displ.:     0.3018526 α      in ANC's #6, #12, #7, ...

........................................................................
.............................. CYCLE   29 ..............................
........................................................................

 iter      E             dE          RMSdq      gap      omega  full diag
   1   -100.6971847 -0.100697E+03  0.221E-01    0.75       0.0  T
   2   -100.6968085  0.376230E-03  0.156E-01    0.76       1.0  T
   3   -100.6950748  0.173371E-02  0.174E-01    0.69       1.0  T
   4   -100.6973247 -0.224989E-02  0.501E-02    0.79       1.0  T
   5   -100.6974622 -0.137558E-03  0.294E-02    0.71       1.0  T
   6   -100.6975767 -0.114491E-03  0.507E-03    0.74       2.3  T
   7   -100.6975774 -0.713027E-06  0.251E-03    0.74       4.7  T
   8   -100.6975778 -0.345342E-06  0.705E-04    0.74      16.7  T
   9   -100.6975778 -0.342710E-07  0.309E-04    0.74      38.1  T
     SCC iter.                  ...        0 min,  0.073 sec
     gradient                   ...        0 min,  0.069 sec
 * total energy  :  -101.9736612 Eh     change       -0.1151672E-02 Eh
   gradient norm :     0.0347700 Eh/α   predicted    -0.1236325E-02 (   7.35%)
   displ. norm   :     0.5935949 α      lambda       -0.2307050E-02
   maximum displ.:     0.2432610 α      in ANC's #12, #6, #18, ...

........................................................................
.............................. CYCLE   30 ..............................
........................................................................

 iter      E             dE          RMSdq      gap      omega  full diag
   1   -100.7022573 -0.100702E+03  0.166E-01    0.83       0.0  T
   2   -100.7022930 -0.357036E-04  0.973E-02    0.79       1.0  T
   3   -100.7019044  0.388550E-03  0.101E-01    0.83       1.0  T
   4   -100.7025394 -0.634926E-03  0.280E-02    0.81       1.0  T
   5   -100.7025563 -0.169065E-04  0.144E-02    0.79       1.0  T
   6   -100.7025809 -0.246423E-04  0.554E-03    0.81       2.1  T
   7   -100.7025833 -0.236858E-05  0.237E-03    0.81       5.0  T
   8   -100.7025836 -0.328081E-06  0.481E-04    0.81      24.5  T
   9   -100.7025836 -0.155163E-07  0.249E-04    0.81      47.4  T
     SCC iter.                  ...        0 min,  0.074 sec
     gradient                   ...        0 min,  0.069 sec
 * total energy  :  -101.9757771 Eh     change       -0.2115810E-02 Eh
   gradient norm :     0.0409251 Eh/α   predicted    -0.1559980E-02 ( -26.27%)
   displ. norm   :     0.7154211 α      lambda       -0.4574677E-02
   maximum displ.:     0.2958931 α      in ANC's #12, #11, #18, ...

........................................................................
.............................. CYCLE   31 ..............................
........................................................................

 iter      E             dE          RMSdq      gap      omega  full diag
   1   -100.7141705 -0.100714E+03  0.270E-01    0.98       0.0  T
   2   -100.7142332 -0.626514E-04  0.147E-01    0.76       1.0  T
   3   -100.7143082 -0.750644E-04  0.152E-01    1.01       1.0  T
   4   -100.7155457 -0.123748E-02  0.630E-02    0.84       1.0  T
   5   -100.7158788 -0.333102E-03  0.233E-02    0.89       1.0  T
   6   -100.7159185 -0.396934E-04  0.517E-03    0.88       2.3  T
   7   -100.7159198 -0.128642E-05  0.399E-03    0.88       3.0  T
   8   -100.7159209 -0.112432E-05  0.993E-04    0.88      11.9  T
   9   -100.7159210 -0.590693E-07  0.369E-04    0.88      31.9  T
  10   -100.7159210 -0.692691E-08  0.199E-04    0.88      59.2  T
     SCC iter.                  ...        0 min,  0.081 sec
     gradient                   ...        0 min,  0.069 sec
 * total energy  :  -101.9799623 Eh     change       -0.4185203E-02 Eh
   gradient norm :     0.0595753 Eh/α   predicted    -0.3458073E-02 ( -17.37%)
   displ. norm   :     0.7978828 α      lambda       -0.8164620E-02
   maximum displ.:     0.2806889 α      in ANC's #11, #12, #18, ...

........................................................................
.............................. CYCLE   32 ..............................
........................................................................

 iter      E             dE          RMSdq      gap      omega  full diag
   1   -100.7302172 -0.100730E+03  0.422E-01    1.18       0.0  T
   2   -100.7295197  0.697475E-03  0.253E-01    0.74       1.0  T
   3   -100.7305917 -0.107193E-02  0.239E-01    1.22       1.0  T
   4   -100.7339703 -0.337863E-02  0.941E-02    0.94       1.0  T
   5   -100.7348190 -0.848760E-03  0.220E-02    0.99       1.0  T
   6   -100.7348886 -0.695177E-04  0.716E-03    0.98       1.6  T
   7   -100.7348915 -0.292742E-05  0.364E-03    0.98       3.2  T
   8   -100.7348917 -0.257032E-06  0.183E-03    0.98       6.4  T
   9   -100.7348920 -0.241793E-06  0.502E-04    0.98      23.5  T
  10   -100.7348920 -0.113406E-07  0.199E-04    0.98      59.4  T
     SCC iter.                  ...        0 min,  0.081 sec
     gradient                   ...        0 min,  0.069 sec
 * total energy  :  -101.9877752 Eh     change       -0.7812958E-02 Eh
   gradient norm :     0.1473785 Eh/α   predicted    -0.6681205E-02 ( -14.49%)
   displ. norm   :     0.6008749 α      lambda       -0.8584371E-02
   maximum displ.:     0.1724374 α      in ANC's #34, #36, #31, ...

........................................................................
.............................. CYCLE   33 ..............................
........................................................................

 iter      E             dE          RMSdq      gap      omega  full diag
   1   -100.7347489 -0.100735E+03  0.360E-01    1.17       0.0  T
   2   -100.7352102 -0.461266E-03  0.223E-01    0.92       1.0  T
   3   -100.7350658  0.144405E-03  0.180E-01    1.23       1.0  T
   4   -100.7363185 -0.125273E-02  0.893E-02    0.98       1.0  T
   5   -100.7372350 -0.916501E-03  0.259E-02    1.08       1.0  T
   6   -100.7373383 -0.103296E-03  0.502E-03    1.07       2.3  T
   7   -100.7373390 -0.701626E-06  0.329E-03    1.06       3.6  T
   8   -100.7373395 -0.526357E-06  0.976E-04    1.06      12.1  T
   9   -100.7373396 -0.481974E-07  0.377E-04    1.06      31.2  T
     SCC iter.                  ...        0 min,  0.073 sec
     gradient                   ...        0 min,  0.069 sec
 * total energy  :  -101.9839771 Eh     change        0.3798066E-02 Eh
   gradient norm :     0.2196144 Eh/α   predicted    -0.5841905E-02 (-253.81%)
   displ. norm   :     0.3090352 α      lambda       -0.2133620E-01
   maximum displ.:     0.0998469 α      in ANC's #113, #58, #111, ...

........................................................................
.............................. CYCLE   34 ..............................
........................................................................

 iter      E             dE          RMSdq      gap      omega  full diag
   1   -100.7375539 -0.100738E+03  0.196E-01    0.96       0.0  T
   2   -100.7379636 -0.409635E-03  0.113E-01    1.08       1.0  T
   3   -100.7377973  0.166284E-03  0.926E-02    0.94       1.0  T
   4   -100.7380213 -0.224079E-03  0.529E-02    1.08       1.0  T
   5   -100.7383540 -0.332624E-03  0.108E-02    1.02       1.1  T
   6   -100.7383698 -0.158114E-04  0.337E-03    1.02       3.5  T
   7   -100.7383704 -0.573377E-06  0.186E-03    1.02       6.3  T
   8   -100.7383705 -0.131815E-06  0.687E-04    1.02      17.2  T
   9   -100.7383705 -0.304809E-07  0.250E-04    1.02      47.1  T
     SCC iter.                  ...        0 min,  0.073 sec
     gradient                   ...        0 min,  0.069 sec
 * total energy  :  -101.9934597 Eh     change       -0.9482530E-02 Eh
   gradient norm :     0.1474733 Eh/α   predicted    -0.1168690E-01 (  23.25%)
   displ. norm   :     0.4412405 α      lambda       -0.4840244E-02
   maximum displ.:     0.2302693 α      in ANC's #12, #6, #7, ...

........................................................................
.............................. CYCLE   35 ..............................
........................................................................

 iter      E             dE          RMSdq      gap      omega  full diag
   1   -100.7439650 -0.100744E+03  0.116E-01    1.04       0.0  T
   2   -100.7440054 -0.403614E-04  0.704E-02    1.01       1.0  T
   3   -100.7438740  0.131401E-03  0.424E-02    1.06       1.0  T
   4   -100.7440005 -0.126507E-03  0.173E-02    1.01       1.0  T
   5   -100.7440339 -0.334057E-04  0.445E-03    1.03       2.6  T
   6   -100.7440356 -0.171048E-05  0.219E-03    1.02       5.4  T
   7   -100.7440358 -0.244591E-06  0.861E-04    1.02      13.7  T
   8   -100.7440359 -0.579555E-07  0.302E-04    1.02      39.0  T
     SCC iter.                  ...        0 min,  0.066 sec
     gradient                   ...        0 min,  0.069 sec
 * total energy  :  -101.9960643 Eh     change       -0.2604586E-02 Eh
   gradient norm :     0.1282479 Eh/α   predicted    -0.2891313E-02 (  11.01%)
   displ. norm   :     0.4732501 α      lambda       -0.8590654E-02
   maximum displ.:     0.2061396 α      in ANC's #32, #42, #38, ...

........................................................................
.............................. CYCLE   36 ..............................
........................................................................

 iter      E             dE          RMSdq      gap      omega  full diag
   1   -100.7410552 -0.100741E+03  0.179E-01    1.07       0.0  T
   2   -100.7410576 -0.241218E-05  0.110E-01    1.00       1.0  T
   3   -100.7402347  0.822882E-03  0.967E-02    1.15       1.0  T
   4   -100.7411357 -0.900959E-03  0.298E-02    1.02       1.0  T
   5   -100.7412487 -0.112989E-03  0.631E-03    1.05       1.9  T
   6   -100.7412535 -0.485845E-05  0.242E-03    1.04       4.9  T
   7   -100.7412537 -0.158665E-06  0.142E-03    1.04       8.3  T
   8   -100.7412538 -0.834418E-07  0.554E-04    1.04      21.3  T
   9   -100.7412538 -0.205717E-07  0.168E-04    1.04      70.1  T
     SCC iter.                  ...        0 min,  0.074 sec
     gradient                   ...        0 min,  0.069 sec
 * total energy  :  -101.9998100 Eh     change       -0.3745763E-02 Eh
   gradient norm :     0.0746542 Eh/α   predicted    -0.5257336E-02 (  40.35%)
   displ. norm   :     0.6907090 α      lambda       -0.1068319E-01
   maximum displ.:     0.2777095 α      in ANC's #12, #6, #28, ...

........................................................................
.............................. CYCLE   37 ..............................
........................................................................

 iter      E             dE          RMSdq      gap      omega  full diag
   1   -100.7311580 -0.100731E+03  0.255E-01    1.10       0.0  T
   2   -100.7312083 -0.503359E-04  0.155E-01    1.01       1.0  T
   3   -100.7296543  0.155401E-02  0.128E-01    1.20       1.0  T
   4   -100.7313008 -0.164647E-02  0.350E-02    1.02       1.0  T
   5   -100.7314511 -0.150328E-03  0.123E-02    1.06       1.0  T
   6   -100.7314659 -0.148220E-04  0.525E-03    1.06       2.2  T
   7   -100.7314669 -0.956584E-06  0.222E-03    1.06       5.3  T
   8   -100.7314673 -0.447887E-06  0.637E-04    1.06      18.5  T
   9   -100.7314673 -0.231718E-07  0.280E-04    1.06      42.1  T
     SCC iter.                  ...        0 min,  0.074 sec
     gradient                   ...        0 min,  0.069 sec
 * total energy  :  -102.0031501 Eh     change       -0.3340033E-02 Eh
   gradient norm :     0.0687246 Eh/α   predicted    -0.7889961E-02 ( 136.22%)
   displ. norm   :     0.2767860 α      lambda       -0.5651968E-02
   maximum displ.:     0.1046892 α      in ANC's #10, #32, #34, ...

........................................................................
.............................. CYCLE   38 ..............................
........................................................................

 iter      E             dE          RMSdq      gap      omega  full diag
   1   -100.7341023 -0.100734E+03  0.121E-01    1.08       0.0  T
   2   -100.7340865  0.158046E-04  0.758E-02    1.03       1.0  T
   3   -100.7336001  0.486409E-03  0.695E-02    1.14       1.0  T
   4   -100.7341343 -0.534247E-03  0.175E-02    1.04       1.0  T
   5   -100.7341731 -0.387557E-04  0.396E-03    1.06       3.0  T
   6   -100.7341743 -0.126311E-05  0.214E-03    1.06       5.5  T
   7   -100.7341746 -0.264735E-06  0.818E-04    1.06      14.4  T
   8   -100.7341746 -0.435210E-07  0.344E-04    1.06      34.3  T
     SCC iter.                  ...        0 min,  0.065 sec
     gradient                   ...        0 min,  0.069 sec
 * total energy  :  -102.0062087 Eh     change       -0.3058627E-02 Eh
   gradient norm :     0.0434985 Eh/α   predicted    -0.3042493E-02 (  -0.53%)
   displ. norm   :     0.3845716 α      lambda       -0.4857849E-02
   maximum displ.:     0.1296249 α      in ANC's #11, #28, #34, ...

........................................................................
.............................. CYCLE   39 ..............................
........................................................................

 iter      E             dE          RMSdq      gap      omega  full diag
   1   -100.7472400 -0.100747E+03  0.173E-01    1.08       0.0  T
   2   -100.7473413 -0.101336E-03  0.106E-01    1.03       1.0  T
   3   -100.7469300  0.411344E-03  0.707E-02    1.13       1.0  T
   4   -100.7473087 -0.378702E-03  0.318E-02    1.03       1.0  T
   5   -100.7474391 -0.130377E-03  0.708E-03    1.06       1.7  T
   6   -100.7474420 -0.296343E-05  0.381E-03    1.06       3.1  T
   7   -100.7474429 -0.824763E-06  0.159E-03    1.06       7.4  T
   8   -100.7474431 -0.262145E-06  0.468E-04    1.06      25.2  T
   9   -100.7474431 -0.109612E-07  0.206E-04    1.06      57.3  T
     SCC iter.                  ...        0 min,  0.073 sec
     gradient                   ...        0 min,  0.069 sec
 * total energy  :  -102.0073051 Eh     change       -0.1096457E-02 Eh
   gradient norm :     0.0580775 Eh/α   predicted    -0.2788152E-02 ( 154.29%)
   displ. norm   :     0.2545418 α      lambda       -0.3263531E-02
   maximum displ.:     0.0909630 α      in ANC's #11, #7, #17, ...

........................................................................
.............................. CYCLE   40 ..............................
........................................................................

 iter      E             dE          RMSdq      gap      omega  full diag
   1   -100.7383499 -0.100738E+03  0.845E-02    1.09       0.0  T
   2   -100.7383459  0.405612E-05  0.543E-02    1.04       1.0  T
   3   -100.7381456  0.200283E-03  0.486E-02    1.12       1.0  T
   4   -100.7383793 -0.233682E-03  0.139E-02    1.05       1.0  T
   5   -100.7384039 -0.245753E-04  0.434E-03    1.07       2.7  T
   6   -100.7384057 -0.183745E-05  0.190E-03    1.07       6.2  T
   7   -100.7384058 -0.128753E-06  0.967E-04    1.07      12.2  T
   8   -100.7384059 -0.746683E-07  0.248E-04    1.07      47.6  T
     SCC iter.                  ...        0 min,  0.065 sec
     gradient                   ...        0 min,  0.069 sec
 * total energy  :  -102.0094457 Eh     change       -0.2140511E-02 Eh
   gradient norm :     0.0290899 Eh/α   predicted    -0.1737492E-02 ( -18.83%)
   displ. norm   :     0.3413214 α      lambda       -0.2053106E-02
   maximum displ.:     0.1219340 α      in ANC's #11, #10, #17, ...

........................................................................
.............................. CYCLE   41 ..............................
........................................................................

 iter      E             dE          RMSdq      gap      omega  full diag
   1   -100.7305862 -0.100731E+03  0.794E-02    1.10       0.0  T
   2   -100.7305921 -0.587491E-05  0.546E-02    1.05       1.0  T
   3   -100.7305253  0.667432E-04  0.452E-02    1.12       1.0  T
   4   -100.7306627 -0.137327E-03  0.167E-02    1.06       1.0  T
   5   -100.7307004 -0.377015E-04  0.583E-03    1.08       2.0  T
   6   -100.7307053 -0.494094E-05  0.178E-03    1.08       6.6  T
   7   -100.7307053 -0.488501E-07  0.110E-03    1.08      10.7  T
   8   -100.7307054 -0.558521E-07  0.309E-04    1.08      38.1  T
   9   -100.7307054 -0.563776E-08  0.128E-04    1.08      92.3  T
     SCC iter.                  ...        0 min,  0.073 sec
     gradient                   ...        0 min,  0.071 sec
 * total energy  :  -102.0102524 Eh     change       -0.8067076E-03 Eh
   gradient norm :     0.0257591 Eh/α   predicted    -0.1146147E-02 (  42.08%)
   displ. norm   :     0.4732182 α      lambda       -0.1721486E-02
   maximum displ.:     0.3091621 α      in ANC's #11, #6, #7, ...

........................................................................
.............................. CYCLE   42 ..............................
........................................................................

 iter      E             dE          RMSdq      gap      omega  full diag
   1   -100.7316533 -0.100732E+03  0.820E-02    1.08       0.0  T
   2   -100.7316873 -0.340891E-04  0.475E-02    1.07       1.0  T
   3   -100.7316601  0.272060E-04  0.284E-02    1.08       1.0  T
   4   -100.7316976 -0.374333E-04  0.103E-02    1.07       1.1  T
   5   -100.7317060 -0.843544E-05  0.269E-03    1.07       4.4  T
   6   -100.7317063 -0.322516E-06  0.162E-03    1.07       7.3  T
   7   -100.7317065 -0.137489E-06  0.922E-04    1.07      12.8  T
   8   -100.7317066 -0.942705E-07  0.271E-04    1.07      43.4  T
     SCC iter.                  ...        0 min,  0.065 sec
     gradient                   ...        0 min,  0.069 sec
 * total energy  :  -102.0109714 Eh     change       -0.7190100E-03 Eh
   gradient norm :     0.0258187 Eh/α   predicted    -0.1053500E-02 (  46.52%)
   displ. norm   :     0.4674463 α      lambda       -0.1299124E-02
   maximum displ.:     0.1646792 α      in ANC's #12, #13, #18, ...
 * RMSD in coord.:     0.6729055 α      energy gain  -0.4428711E-01 Eh

generating ANC from model Hessian ...
Using Lindh-Hessian (1995)
 Shifting diagonal of input Hessian by    9.9507311378644152E-003
 Lowest  eigenvalues of input Hessian
    0.000000    0.000000    0.000000    0.000000    0.000000    0.000000
    0.010000    0.010054    0.010138    0.010290    0.010409    0.010615
    0.010747    0.010970    0.011198    0.011723    0.011877    0.012623
 Highest eigenvalues
    2.051550    2.124373    2.162036    2.184601    2.309725    2.420729


........................................................................
.............................. CYCLE   43 ..............................
........................................................................

 iter      E             dE          RMSdq      gap      omega  full diag
   1   -100.7343670 -0.100734E+03  0.113E-01    1.08       0.0  T
   2   -100.7344045 -0.375645E-04  0.656E-02    1.07       1.0  T
   3   -100.7342863  0.118265E-03  0.353E-02    1.11       1.0  T
   4   -100.7343835 -0.972636E-04  0.167E-02    1.06       1.0  T
   5   -100.7344217 -0.381989E-04  0.375E-03    1.08       3.1  T
   6   -100.7344221 -0.355614E-06  0.256E-03    1.07       4.6  T
   7   -100.7344226 -0.553264E-06  0.632E-04    1.08      18.6  T
   8   -100.7344227 -0.215994E-07  0.265E-04    1.08      44.5  T
     SCC iter.                  ...        0 min,  0.065 sec
     gradient                   ...        0 min,  0.069 sec
 * total energy  :  -102.0108758 Eh     change        0.9556037E-04 Eh
   gradient norm :     0.0304788 Eh/α   predicted     0.0000000E+00 (-100.00%)
   displ. norm   :     0.1816208 α      lambda       -0.1819890E-02
   maximum displ.:     0.0809575 α      in ANC's #11, #30, #50, ...

........................................................................
.............................. CYCLE   44 ..............................
........................................................................

 iter      E             dE          RMSdq      gap      omega  full diag
   1   -100.7356802 -0.100736E+03  0.912E-02    1.08       0.0  T
   2   -100.7356933 -0.130703E-04  0.533E-02    1.08       1.0  T
   3   -100.7356826  0.106492E-04  0.138E-02    1.08       1.0  T
   4   -100.7356934 -0.107187E-04  0.556E-03    1.07       2.1  T
   5   -100.7356961 -0.274190E-05  0.251E-03    1.08       4.7  T
   6   -100.7356965 -0.357226E-06  0.136E-03    1.08       8.7  T
   7   -100.7356966 -0.178761E-06  0.497E-04    1.08      23.7  T
   8   -100.7356967 -0.228529E-07  0.154E-04    1.08      76.8  T
     SCC iter.                  ...        0 min,  0.065 sec
     gradient                   ...        0 min,  0.069 sec
 * total energy  :  -102.0117919 Eh     change       -0.9161107E-03 Eh
   gradient norm :     0.0242775 Eh/α   predicted    -0.9401803E-03 (   2.63%)
   displ. norm   :     0.1751672 α      lambda       -0.7211433E-03
   maximum displ.:     0.1066145 α      in ANC's #11, #8, #6, ...

........................................................................
.............................. CYCLE   45 ..............................
........................................................................

 iter      E             dE          RMSdq      gap      omega  full diag
   1   -100.7369432 -0.100737E+03  0.423E-02    1.08       0.0  T
   2   -100.7369460 -0.279696E-05  0.244E-02    1.07       1.0  T
   3   -100.7369081  0.378251E-04  0.189E-02    1.10       1.0  T
   4   -100.7369477 -0.395597E-04  0.432E-03    1.07       2.7  T
   5   -100.7369499 -0.217018E-05  0.169E-03    1.08       7.0  T
   6   -100.7369501 -0.237708E-06  0.762E-04    1.08      15.5  T
   7   -100.7369501 -0.230640E-07  0.264E-04    1.08      44.6  T
     SCC iter.                  ...        0 min,  0.057 sec
     gradient                   ...        0 min,  0.071 sec
 * total energy  :  -102.0121534 Eh     change       -0.3615042E-03 Eh
   gradient norm :     0.0266137 Eh/α   predicted    -0.3716514E-03 (   2.81%)
   displ. norm   :     0.2437414 α      lambda       -0.6110190E-03
   maximum displ.:     0.1492864 α      in ANC's #11, #8, #6, ...

........................................................................
.............................. CYCLE   46 ..............................
........................................................................

 iter      E             dE          RMSdq      gap      omega  full diag
   1   -100.7382365 -0.100738E+03  0.618E-02    1.08       0.0  T
   2   -100.7382388 -0.226058E-05  0.349E-02    1.07       1.0  T
   3   -100.7381720  0.668122E-04  0.240E-02    1.10       1.0  T
   4   -100.7382429 -0.708927E-04  0.374E-03    1.07       3.1  T
   5   -100.7382442 -0.132207E-05  0.176E-03    1.08       6.7  T
   6   -100.7382444 -0.196483E-06  0.866E-04    1.08      13.6  T
   7   -100.7382444 -0.329799E-07  0.318E-04    1.08      37.1  T
     SCC iter.                  ...        0 min,  0.057 sec
     gradient                   ...        0 min,  0.069 sec
 * total energy  :  -102.0125138 Eh     change       -0.3604035E-03 Eh
   gradient norm :     0.0133529 Eh/α   predicted    -0.3236668E-03 ( -10.19%)
   displ. norm   :     0.2823512 α      lambda       -0.4758227E-03
   maximum displ.:     0.1623673 α      in ANC's #11, #8, #30, ...

........................................................................
.............................. CYCLE   47 ..............................
........................................................................

 iter      E             dE          RMSdq      gap      omega  full diag
   1   -100.7380177 -0.100738E+03  0.802E-02    1.08       0.0  T
   2   -100.7380208 -0.312239E-05  0.458E-02    1.07       1.0  T
   3   -100.7379176  0.103190E-03  0.304E-02    1.11       1.0  T
   4   -100.7380256 -0.108000E-03  0.679E-03    1.07       1.7  T
   5   -100.7380303 -0.467421E-05  0.246E-03    1.08       4.8  T
   6   -100.7380305 -0.198826E-06  0.869E-04    1.08      13.6  T
   7   -100.7380305 -0.713628E-07  0.233E-04    1.08      50.6  T
     SCC iter.                  ...        0 min,  0.057 sec
     gradient                   ...        0 min,  0.070 sec
 * total energy  :  -102.0129170 Eh     change       -0.4031610E-03 Eh
   gradient norm :     0.0130758 Eh/α   predicted    -0.2568942E-03 ( -36.28%)
   displ. norm   :     0.5130314 α      lambda       -0.7397467E-03
   maximum displ.:     0.2724128 α      in ANC's #11, #8, #30, ...

........................................................................
.............................. CYCLE   48 ..............................
........................................................................

 iter      E             dE          RMSdq      gap      omega  full diag
   1   -100.7369096 -0.100737E+03  0.136E-01    1.09       0.0  T
   2   -100.7369169 -0.727991E-05  0.784E-02    1.06       1.0  T
   3   -100.7366085  0.308446E-03  0.529E-02    1.14       1.0  T
   4   -100.7369291 -0.320641E-03  0.124E-02    1.07       1.0  T
   5   -100.7369467 -0.175805E-04  0.381E-03    1.08       3.1  T
   6   -100.7369471 -0.428331E-06  0.153E-03    1.08       7.7  T
   7   -100.7369473 -0.202474E-06  0.375E-04    1.08      31.5  T
   8   -100.7369473 -0.794505E-08  0.202E-04    1.08      58.4  T
     SCC iter.                  ...        0 min,  0.065 sec
     gradient                   ...        0 min,  0.070 sec
 * total energy  :  -102.0134629 Eh     change       -0.5459039E-03 Eh
   gradient norm :     0.0090387 Eh/α   predicted    -0.4672251E-03 ( -14.41%)
   displ. norm   :     0.4769314 α      lambda       -0.4757468E-03
   maximum displ.:     0.2425110 α      in ANC's #11, #8, #6, ...

........................................................................
.............................. CYCLE   49 ..............................
........................................................................

 iter      E             dE          RMSdq      gap      omega  full diag
   1   -100.7369049 -0.100737E+03  0.107E-01    1.09       0.0  T
   2   -100.7369077 -0.283738E-05  0.616E-02    1.07       1.0  T
   3   -100.7366954  0.212247E-03  0.432E-02    1.13       1.0  T
   4   -100.7369172 -0.221800E-03  0.909E-03    1.07       1.3  T
   5   -100.7369272 -0.996197E-05  0.251E-03    1.08       4.7  T
   6   -100.7369274 -0.192838E-06  0.120E-03    1.08       9.8  T
   7   -100.7369275 -0.879055E-07  0.272E-04    1.08      43.3  T
   8   -100.7369275 -0.361304E-08  0.140E-04    1.08      84.4  T
     SCC iter.                  ...        0 min,  0.065 sec
     gradient                   ...        0 min,  0.070 sec
 * total energy  :  -102.0138326 Eh     change       -0.3696797E-03 Eh
   gradient norm :     0.0075525 Eh/α   predicted    -0.2919887E-03 ( -21.02%)
   displ. norm   :     0.4305601 α      lambda       -0.4020146E-03
   maximum displ.:     0.2166957 α      in ANC's #8, #11, #10, ...

........................................................................
.............................. CYCLE   50 ..............................
........................................................................

 iter      E             dE          RMSdq      gap      omega  full diag
   1   -100.7394631 -0.100739E+03  0.845E-02    1.09       0.0  T
   2   -100.7394680 -0.494493E-05  0.486E-02    1.07       1.0  T
   3   -100.7393622  0.105853E-03  0.303E-02    1.12       1.0  T
   4   -100.7394706 -0.108401E-03  0.753E-03    1.08       1.6  T
   5   -100.7394777 -0.717995E-05  0.197E-03    1.08       6.0  T
   6   -100.7394779 -0.165735E-06  0.104E-03    1.08      11.3  T
   7   -100.7394780 -0.478411E-07  0.247E-04    1.08      47.8  T
   8   -100.7394780 -0.263863E-08  0.106E-04    1.08     111.7  T
     SCC iter.                  ...        0 min,  0.065 sec
     gradient                   ...        0 min,  0.070 sec
 * total energy  :  -102.0141298 Eh     change       -0.2971970E-03 Eh
   gradient norm :     0.0053391 Eh/α   predicted    -0.2382714E-03 ( -19.83%)
   displ. norm   :     0.4842420 α      lambda       -0.3059983E-03
   maximum displ.:     0.2438772 α      in ANC's #8, #11, #10, ...

........................................................................
.............................. CYCLE   51 ..............................
........................................................................

 iter      E             dE          RMSdq      gap      omega  full diag
   1   -100.7379571 -0.100738E+03  0.119E-01    1.10       0.0  T
   2   -100.7379583 -0.113006E-05  0.681E-02    1.07       1.0  T
   3   -100.7376303  0.327994E-03  0.518E-02    1.15       1.0  T
   4   -100.7379787 -0.348402E-03  0.689E-03    1.08       1.7  T
   5   -100.7379836 -0.492752E-05  0.317E-03    1.09       3.7  T
   6   -100.7379842 -0.558455E-06  0.136E-03    1.09       8.7  T
   7   -100.7379843 -0.118271E-06  0.303E-04    1.09      38.9  T
   8   -100.7379843 -0.492770E-08  0.126E-04    1.09      93.6  T
     SCC iter.                  ...        0 min,  0.065 sec
     gradient                   ...        0 min,  0.070 sec
 * total energy  :  -102.0142865 Eh     change       -0.1567479E-03 Eh
   gradient norm :     0.0107070 Eh/α   predicted    -0.1888853E-03 (  20.50%)
   displ. norm   :     0.2408388 α      lambda       -0.2662187E-03
   maximum displ.:     0.1308862 α      in ANC's #8, #10, #1, ...

........................................................................
.............................. CYCLE   52 ..............................
........................................................................

 iter      E             dE          RMSdq      gap      omega  full diag
   1   -100.7429303 -0.100743E+03  0.328E-02    1.09       0.0  T
   2   -100.7429359 -0.564819E-05  0.202E-02    1.09       1.0  T
   3   -100.7429323  0.362857E-05  0.762E-03    1.09       1.5  T
   4   -100.7429357 -0.340710E-05  0.371E-03    1.09       3.2  T
[...]
         ::.................................................::
         :: SCC energy              -100.741322424585 Eh    ::
         :: -> isotropic ES            0.104915939484 Eh    ::
         :: -> anisotropic ES          0.005148707949 Eh    ::
         :: -> anisotropic XC          0.043085654939 Eh    ::
         :: -> dispersion             -0.076183406816 Eh    ::
         :: repulsion energy           1.539179515620 Eh    ::
         :: add. restraining          -2.813876838502 Eh    ::
         :: total charge               1.000000000000 e     ::
         :::::::::::::::::::::::::::::::::::::::::::::::::::::

           -------------------------------------------------
          |                Property Printout                |
           -------------------------------------------------

    * Orbital Energies and Occupations

         #    Occupation            Energy/Eh            Energy/eV
      -------------------------------------------------------------
         1        2.0000           -0.8377895             -22.7974
       ...           ...                  ...                  ...
        78        1.9982           -0.5328078             -14.4984
        79        1.9981           -0.5316685             -14.4674
        80        1.9976           -0.5276343             -14.3577
        81        1.9974           -0.5267245             -14.3329
        82        1.9964           -0.5214597             -14.1896
        83        1.9961           -0.5201279             -14.1534
        84        1.9955           -0.5179754             -14.0948
        85        1.9953           -0.5172434             -14.0749
        86        1.9698           -0.4876087             -13.2685
        87        1.9427           -0.4772144             -12.9857
        88        1.9345           -0.4750437             -12.9266
        89        1.8243           -0.4584863             -12.4760
        90        1.7101           -0.4495401             -12.2326 (HOMO)
        91        0.6366           -0.4093745             -11.1396 (LUMO)
        92        0.0108           -0.3388818              -9.2214
        93        0.0042           -0.3237751              -8.8104
        94        0.0018           -0.3106469              -8.4531
        95        0.0016           -0.3082172              -8.3870
        96        0.0000           -0.2376908              -6.4679
        97        0.0000           -0.1858940              -5.0584
        98        0.0000           -0.1743520              -4.7444
        99                         -0.1056436              -2.8747
       100                         -0.0936425              -2.5481
       101                         -0.0816826              -2.2227
       ...                                ...                  ...
       171                          1.4392603              39.1643
      -------------------------------------------------------------
                  HL-Gap            0.0401657 Eh            1.0930 eV
             Fermi-level           -0.4214351 Eh          -11.4678 eV

     #   Z          covCN         q      C6AA      α(0)
     1   7 N        1.774    -0.265    27.709     7.795
     2   6 C        2.827     0.094    25.909     8.341
     3   6 C        3.906     0.010    20.353     6.413
     4   6 C        2.960    -0.002    28.068     8.690
     5   6 C        3.810    -0.108    22.563     6.761
     6   6 C        2.852     0.122    25.318     8.247
     7   8 O        1.706    -0.195    17.255     5.608
     8   6 C        3.644     0.017    20.622     6.527
     9   6 C        2.849     0.126    25.225     8.232
    10   8 O        1.706    -0.237    17.927     5.717
    11   6 C        3.645     0.026    20.478     6.504
    12   6 C        2.913    -0.072    29.791     8.950
    13   6 C        2.903    -0.045    29.115     8.847
    14   6 C        3.866    -0.038    21.209     6.549
    15   6 C        3.806    -0.080    22.021     6.680
    16   6 C        3.805     0.035    19.984     6.364
    17   7 N        2.725    -0.118    23.561     7.209
    18   6 C        3.756     0.000    20.632     6.476
    19   6 C        3.807    -0.071    21.854     6.655
    20   6 C        2.968     0.007    27.869     8.659
    21   6 C        2.921    -0.045    29.111     8.848
    22   6 C        2.913    -0.066    29.634     8.927
    23   6 C        2.864     0.135    25.056     8.205
    24   8 O        1.706    -0.218    17.612     5.666
    25   6 C        3.645     0.024    20.505     6.508
    26   6 C        2.862     0.134    25.059     8.205
    27   8 O        1.706    -0.221    17.669     5.675
    28   6 C        3.645     0.027    20.462     6.501
    29   6 C        2.920    -0.077    29.934     8.972
    30   6 C        3.697    -0.045    21.553     6.640
    31   6 C        3.851    -0.010    20.725     6.475
    32   6 C        3.757    -0.121    22.871     6.819
    33   6 C        3.756    -0.119    22.842     6.814
    34   1 H        0.920     0.101     1.780     2.087
    35   1 H        0.924     0.065     2.143     2.289
    36   1 H        0.925     0.093     1.852     2.128
    37   1 H        0.924     0.061     2.193     2.316
    38   1 H        0.924     0.056     2.244     2.343
    39   1 H        0.925     0.083     1.947     2.182
    40   1 H        0.924     0.051     2.304     2.374
    41   1 H        0.926     0.063     2.165     2.301
    42   1 H        0.926     0.055     2.256     2.349
    43   1 H        0.930     0.131     1.529     1.934
    44   1 H        0.925     0.056     2.248     2.345
    45   1 H        0.926     0.051     2.306     2.375
    46   1 H        0.926     0.048     2.345     2.395
    47   1 H        0.924     0.036     2.505     2.475
    48   1 H        0.925     0.040     2.443     2.444
    49   1 H        0.924     0.050     2.318     2.381
    50   1 H        0.924     0.050     2.323     2.383
    51   1 H        0.924     0.047     2.353     2.399
    52   1 H        0.924     0.052     2.295     2.369
    53   1 H        0.926     0.050     2.321     2.383
    54   1 H        0.926     0.060     2.199     2.319
    55   1 H        0.924     0.057     2.237     2.339
    56   1 H        0.924     0.058     2.225     2.333
    57   1 H        0.925     0.084     1.943     2.180
    58   1 H        0.925     0.083     1.953     2.186
    59   1 H        0.924     0.051     2.310     2.377
    60   1 H        0.924     0.054     2.267     2.355
    61   1 H        0.926     0.050     2.319     2.381
    62   1 H        0.924     0.044     2.394     2.419
    63   1 H        0.925     0.053     2.286     2.364
    64   1 H        0.925     0.056     2.250     2.346
    65   1 H        0.924     0.035     2.514     2.479
    66   1 H        0.925     0.074     2.043     2.235
    67   1 H        0.925     0.031     2.572     2.508
    68   1 H        0.925     0.050     2.323     2.384
    69   1 H        0.925     0.067     2.115     2.274
    70   1 H        0.925     0.034     2.530     2.487
    71   1 H        0.925     0.057     2.229     2.335
    72   1 H        0.860     0.161     1.331     1.807

 Mol. C6AA /au·bohr⁶  :      46769.121495
 Mol. C8AA /au·bohr⁸  :    1064601.324045
 Mol. α(0) /au        :        329.839039


Wiberg/Mayer (AO) data.
largest (>0.10) Wiberg bond orders for each atom

 ---------------------------------------------------------------------------
     #   Z sym  total        # sym  WBO       # sym  WBO       # sym  WBO
 ---------------------------------------------------------------------------
     1   7 N    3.011 --     2 C    1.959    72 H    0.939
     2   6 C    3.931 --     1 N    1.959     3 C    0.979    47 H    0.920
     3   6 C    3.971 --     4 C    0.987     2 C    0.979    14 C    0.948
                            31 C    0.937
     4   6 C    3.787 --    13 C    1.601     5 C    1.014     3 C    0.987
     5   6 C    3.967 --     6 C    1.021     4 C    1.014    43 H    0.949
                            34 H    0.879
     6   6 C    3.673 --     9 C    1.317     7 O    1.159     5 C    1.021
     7   8 O    2.279 --     6 C    1.159     8 C    0.970
     8   6 C    3.920 --    36 H    0.976    37 H    0.970     7 O    0.970
                            35 H    0.970
     9   6 C    3.908 --    12 C    1.338     6 C    1.317    10 O    1.089
    10   8 O    2.243 --     9 C    1.089    11 C    0.976
    11   6 C    3.929 --    39 H    0.976    10 O    0.976    40 H    0.974
                            38 H    0.973
    12   6 C    3.745 --     9 C    1.338    13 C    1.293    41 H    0.965
    13   6 C    3.977 --     4 C    1.601    12 C    1.293    42 H    0.957
    14   6 C    3.896 --    15 C    0.961    44 H    0.959     3 C    0.948
                            16 C    0.919
    15   6 C    3.930 --    46 H    0.976    45 H    0.970    16 C    0.963
                            14 C    0.961
    16   6 C    3.917 --    17 N    1.021    15 C    0.963    48 H    0.959
                            14 C    0.919
    17   7 N    3.152 --    16 C    1.021    30 C    1.008    18 C    1.008
    18   6 C    3.965 --    17 N    1.008    50 H    0.971    49 H    0.968
                            19 C    0.959
    19   6 C    3.971 --    20 C    1.017    51 H    0.970    52 H    0.969
                            18 C    0.959
    20   6 C    3.930 --    21 C    1.395    29 C    1.379    19 C    1.017
    21   6 C    3.932 --    22 C    1.423    20 C    1.395    53 H    0.967
    22   6 C    3.951 --    21 C    1.423    23 C    1.376    54 H    0.963
    23   6 C    3.876 --    22 C    1.376    26 C    1.212    24 O    1.114
    24   8 O    2.248 --    23 C    1.114    25 C    0.975
    25   6 C    3.926 --    57 H    0.976    24 O    0.975    56 H    0.972
                            55 H    0.971
    26   6 C    3.884 --    29 C    1.393    23 C    1.212    27 O    1.107
    27   8 O    2.249 --    26 C    1.107    28 C    0.978
    28   6 C    3.930 --    27 O    0.978    58 H    0.977    59 H    0.973
                            60 H    0.972
    29   6 C    3.952 --    26 C    1.393    20 C    1.379    61 H    0.962
    30   6 C    3.969 --    17 N    1.008    64 H    0.979    63 H    0.969
                            62 H    0.967
    31   6 C    3.967 --    33 C    1.010    32 C    1.008    65 H    0.962
                             3 C    0.937
    32   6 C    3.980 --    31 C    1.008    68 H    0.982    67 H    0.980
                            66 H    0.974
    33   6 C    3.980 --    31 C    1.010    71 H    0.978    70 H    0.978
                            69 H    0.972
    34   1 H    0.937 --     5 C    0.879
    35   1 H    0.990 --     8 C    0.970
    36   1 H    0.991 --     8 C    0.976
    37   1 H    0.990 --     8 C    0.970
    38   1 H    0.993 --    11 C    0.973
    39   1 H    0.992 --    11 C    0.976
    40   1 H    0.994 --    11 C    0.974
    41   1 H    0.995 --    12 C    0.965
    42   1 H    0.996 --    13 C    0.957
    43   1 H    0.976 --     5 C    0.949
    44   1 H    0.994 --    14 C    0.959
    45   1 H    0.997 --    15 C    0.970
    46   1 H    0.994 --    15 C    0.976
    47   1 H    0.977 --     2 C    0.920
    48   1 H    0.990 --    16 C    0.959
    49   1 H    0.994 --    18 C    0.968
    50   1 H    0.995 --    18 C    0.971
    51   1 H    0.996 --    19 C    0.970
    52   1 H    0.995 --    19 C    0.969
    53   1 H    0.997 --    21 C    0.967
    54   1 H    0.994 --    22 C    0.963
    55   1 H    0.990 --    25 C    0.971
    56   1 H    0.990 --    25 C    0.972
    57   1 H    0.992 --    25 C    0.976
    58   1 H    0.992 --    28 C    0.977
    59   1 H    0.992 --    28 C    0.973
    60   1 H    0.991 --    28 C    0.972
    61   1 H    0.996 --    29 C    0.962
    62   1 H    0.981 --    30 C    0.967
    63   1 H    0.991 --    30 C    0.969
    64   1 H    0.996 --    30 C    0.979
    65   1 H    0.993 --    31 C    0.962
    66   1 H    0.991 --    32 C    0.974
    67   1 H    0.998 --    32 C    0.980
    68   1 H    0.994 --    32 C    0.982
    69   1 H    0.992 --    33 C    0.972
    70   1 H    0.997 --    33 C    0.978
    71   1 H    0.993 --    33 C    0.978
    72   1 H    0.965 --     1 N    0.939
 ---------------------------------------------------------------------------

Topologies differ in total number of bonds
Writing topology from bond orders to xtbtopo.mol

molecular dipole:
                 x           y           z       tot (Debye)
 q only:       -0.811      -0.090      -0.454
   full:       -0.493      -0.289      -0.670       2.239
molecular quadrupole (traceless):
                xx          xy          yy          xz          yz          zz
 q only:       64.886       9.219     -22.333       9.169      -9.221     -42.553
  q+dip:       60.889      12.105     -22.878       9.741     -13.356     -38.011
   full:       60.792      12.375     -23.353       7.818     -13.011     -37.439

           -------------------------------------------------
          |                Geometry Summary                 |
           -------------------------------------------------

      molecular mass/u    :      455.6105846
   center of mass at/Å    :        0.0013100       0.0262257       0.0005443
  moments of inertia/u·Å² :        0.2406572E+04   0.1006381E+05   0.1123988E+05
rotational constants/cm⁻¹ :        0.7004830E-02   0.1675075E-02   0.1499805E-02

 * 66 selected distances

     #   Z          #   Z                                           value/Å
     1   7 N        2   6 C                                       1.2510916
     6   6 C        7   8 O                                       1.3365661
     7   8 O        8   6 C                                       1.4101940
     6   6 C        9   6 C                                       1.3983062
     9   6 C       10   8 O                                       1.3523145
    10   8 O       11   6 C                                       1.4098602
     9   6 C       12   6 C                                       1.3944999
     4   6 C       13   6 C                                       1.3576426
    12   6 C       13   6 C                                       1.4071740
     3   6 C       14   6 C                                       1.5407303 (max)
    14   6 C       15   6 C                                       1.5049130
    14   6 C       16   6 C                                       1.5249526
    15   6 C       16   6 C                                       1.4977912
    16   6 C       17   7 N                                       1.4289683
    17   7 N       18   6 C                                       1.4450879
    20   6 C       21   6 C                                       1.3873497
    21   6 C       22   6 C                                       1.3855745
    22   6 C       23   6 C                                       1.3887072
    23   6 C       24   8 O                                       1.3447550
    24   8 O       25   6 C                                       1.4090455
    23   6 C       26   6 C                                       1.4238628
    26   6 C       27   8 O                                       1.3469809
    27   8 O       28   6 C                                       1.4076840
    20   6 C       29   6 C                                       1.3930065
    26   6 C       29   6 C                                       1.3858926
    17   7 N       30   6 C                                       1.4459984
    31   6 C       32   6 C                                       1.5292296
    31   6 C       33   6 C                                       1.5277570
     5   6 C       34   1 H                                       1.1192016
     8   6 C       35   1 H                                       1.0937545
     8   6 C       36   1 H                                       1.0883932
     8   6 C       37   1 H                                       1.0945272
    11   6 C       38   1 H                                       1.0938417
    11   6 C       39   1 H                                       1.0880194
    11   6 C       40   1 H                                       1.0944521
    12   6 C       41   1 H                                       1.0757267
    13   6 C       42   1 H                                       1.0785940
     5   6 C       43   1 H                                       0.7435292 (min)
    14   6 C       44   1 H                                       1.0821593
    15   6 C       45   1 H                                       1.0761150
    15   6 C       46   1 H                                       1.0800400
     2   6 C       47   1 H                                       1.0961974
    16   6 C       48   1 H                                       1.0862597
    18   6 C       49   1 H                                       1.0933834
    18   6 C       50   1 H                                       1.0928097
    19   6 C       51   1 H                                       1.0907297
    19   6 C       52   1 H                                       1.0904044
    21   6 C       53   1 H                                       1.0792591
    22   6 C       54   1 H                                       1.0776845
    25   6 C       55   1 H                                       1.0941470
    25   6 C       56   1 H                                       1.0940426
    25   6 C       57   1 H                                       1.0883074
    28   6 C       58   1 H                                       1.0882081
    28   6 C       59   1 H                                       1.0947728
    28   6 C       60   1 H                                       1.0943641
    29   6 C       61   1 H                                       1.0788548
    30   6 C       62   1 H                                       1.0963885
    30   6 C       63   1 H                                       1.0895158
    30   6 C       64   1 H                                       1.0885573
    31   6 C       65   1 H                                       1.0959928
    32   6 C       66   1 H                                       1.0849397
    32   6 C       67   1 H                                       1.0873714
    32   6 C       68   1 H                                       1.0870678
    33   6 C       69   1 H                                       1.0853540
    33   6 C       70   1 H                                       1.0876504
    33   6 C       71   1 H                                       1.0874632

 * 4 distinct bonds (by element types)

   Z      Z             #   av. dist./Å        max./Å        min./Å
   1 H    6 C          38     1.0799495     1.1192016     0.7435292
   6 C    6 C          16     1.4404619     1.5407303     1.3576426
   6 C    7 N           4     1.3927866     1.4459984     1.2510916
   6 C    8 O           8     1.3771750     1.4101940     1.3365661


optimized geometry written to: xtbopt.xyz


           -------------------------------------------------
          | TOTAL ENERGY             -102.014579224749 Eh   |
          | GRADIENT NORM               0.002718245242 Eh/α |
          | HOMO-LUMO GAP               1.092963306521 eV   |
           -------------------------------------------------

------------------------------------------------------------------------
 * finished run on 2024/04/06 at 11:15:59.345     
------------------------------------------------------------------------
 total:
 * wall-time:     0 d,  0 h,  0 min,  9.539 sec
 *  cpu-time:     0 d,  0 h,  0 min,  9.516 sec
 * ratio c/w:     0.998 speedup
 SCF:
 * wall-time:     0 d,  0 h,  0 min,  0.191 sec
 *  cpu-time:     0 d,  0 h,  0 min,  0.191 sec
 * ratio c/w:     0.997 speedup
 ANC optimizer:
 * wall-time:     0 d,  0 h,  0 min,  9.305 sec
 *  cpu-time:     0 d,  0 h,  0 min,  9.301 sec
 * ratio c/w:     1.000 speedup

