25
 energy: 0.000000000000 xtb: 6.6.1 (8d0f1dd)
C            3.23720163006194        1.16630919979326        0.08434469647475
N            2.29877817382611        0.07527477071623        0.03981603040599
C            2.58028210190900       -1.21425402444508        0.03006176031096
N            1.43813958087363       -1.93419271955128        0.00098261760884
C            0.39035688448383       -1.05887472636071       -0.00790371836672
C            0.93510056364412        0.21347819449412        0.01709077491437
C            0.09450143893243        1.40504303904423       -0.00410947031874
O            0.49712751527797        2.54126714362870       -0.00342325688240
N           -1.25076640035757        1.06271879480407       -0.03085478223738
C           -2.21907211982101        2.15522099834493       -0.05001256985998
C           -1.81739487048744       -0.20012725993278       -0.04692818574614
O           -2.99983886758376       -0.37846417018721       -0.07008878229737
N           -0.92618586207120       -1.30210215599479       -0.03682761578324
C           -1.46982264913417       -2.64643102187190       -0.06029820460571
H            3.71247264356769        1.21471455160235        1.06488849150277
H            4.00791497605742        1.03430808813993       -0.67357694370751
H            2.69910007168542        2.09770118228144       -0.09130154882931
H            3.56654120610678       -1.63682992603973        0.04233140067262
H           -1.67107961066214        3.09322851271934       -0.02552706933167
H           -2.82428953597071        2.09428624779827       -0.95318082946668
H           -2.87644029173232        2.07745725625962        0.81450067533302
H           -1.17061996399332       -3.19584890659852        0.83242232437030
H           -1.14560257411436       -3.17511610292205       -0.95688275822323
H           -2.55549792440841       -2.55659984320617       -0.07459039797972
H            1.38130855184625       -2.94313852034425       -0.01389874181052
25
 energy: -1.826439669631 xtb: 6.6.1 (8d0f1dd)
C            3.25122960844953        1.19414408623418        0.09431189945499
N            2.31934326972949        0.10666060867571        0.04186201273174
C            2.61951989098172       -1.21718232890207        0.03235301391136
N            1.45246620040975       -1.93508796741126        0.00029925380995
C            0.40627229790236       -1.06332905498792       -0.01166832413937
C            0.94003825607138        0.22058248171595        0.01622947198280
C            0.11347211266381        1.39462819628216       -0.00346495863547
O            0.50952824485432        2.56036167309211        0.00127979026016
N           -1.24653880572984        1.04896288908611       -0.03651280056932
C           -2.20871238990344        2.14254373476250       -0.06212651105902
C           -1.81079827248224       -0.20100486559685       -0.05110163332630
O           -3.00652881879865       -0.38164782984988       -0.08276606828441
N           -0.93523620442584       -1.30797425496216       -0.03363797869012
C           -1.54065917951114       -2.63365759805521       -0.04224339622434
H            3.74398489486132        1.22967563560489        1.06974749625325
H            4.01173405833071        1.07675408379484       -0.67943380861527
H            2.70037571396796        2.11998884224383       -0.06038968076153
H            3.60317806881216       -1.63126110892981        0.04914923961692
H           -1.65247246116027        3.07669928853743       -0.03418437923651
H           -2.80770151238240        2.08488019266976       -0.97038121875072
H           -2.87119076325630        2.06814090717099        0.79939710283027
H           -1.11575440007722       -3.23986573643788        0.76341608458161
H           -1.29604534679834       -3.14463561008404       -0.93864978080081
H           -2.66953272151959       -2.64025162108441       -0.02123605240824
H            1.40224292694697       -2.93909604139693       -0.01321487778431
25
 energy: 9.954085411741 xtb: 6.6.1 (8d0f1dd)
C            3.26703281431715        1.22920085244723        0.10952949226219
N            2.34160590751072        0.14282085676448        0.04592343477703
C            2.66612002984460       -1.21144948185375        0.03854761218934
N            1.47901478576321       -1.92917196258913        0.00204334461650
C            0.42604185295575       -1.07665684651368       -0.01230556323027
C            0.94384220761786        0.22471290978842        0.01615831035914
C            0.14119338292447        1.37556255858010       -0.00238918383579
O            0.51868449071293        2.56478014957066        0.00999954953909
N           -1.23873879019303        1.03284035965148       -0.04736044972242
C           -2.19153237374516        2.12791561094445       -0.08350012552879
C           -1.79252755733455       -0.20399574811534       -0.06052880335371
O           -2.99617880259165       -0.38535668173833       -0.10856930576067
N           -0.94552992039887       -1.32138227093306       -0.02337859358197
C           -1.63738769621840       -2.62301079881656       -0.01138791830292
H            3.79207878734205        1.24696487019473        1.07280191751450
H            4.01235495749531        1.14527027216964       -0.68864097869609
H            2.70294019847338        2.15332605621269       -0.00683094921540
H            3.65073655081134       -1.60764399509879        0.06195248270739
H           -1.62666754846514        3.05756524262908       -0.04932474782035
H           -2.78026409962901        2.07182567792648       -0.99911889913966
H           -2.86328972851765        2.05503187241252        0.77141655465956
H           -1.02959603080936       -3.31155250672368        0.65422994504514
H           -1.55898076351737       -3.09734389550680       -0.94747729982929
H           -2.82150611678737       -2.74026125396147        0.09654415478088
H            1.45276813037497       -2.93096324526936       -0.01130008428615
25
 energy: 26.800336466767 xtb: 6.6.1 (8d0f1dd)
C            3.27859676426723        1.26026474828127        0.12209996507135
N            2.36083485073300        0.16802430602708        0.04995550936109
C            2.70467518714385       -1.19949360873143        0.04500710496141
N            1.51412176304843       -1.92237015112494        0.00835627843811
C            0.44647895697314       -1.09539776516787       -0.00310932467477
C            0.95123393334784        0.22204071481065        0.01938393836002
C            0.16454618769790        1.36364503420767       -0.00005515102212
O            0.52450615972435        2.56332893184366        0.01765533101481
N           -1.22831300235964        1.02182717330547       -0.05854512794914
C           -2.17557795678149        2.11534446716262       -0.10617402563360
C           -1.77084597082774       -0.21250701016958       -0.07170106104917
O           -2.97803979819476       -0.39408533131371       -0.13853568758551
N           -0.94665261260616       -1.34246883922843       -0.00325927876002
C           -1.71437434406988       -2.62608239063217        0.02288695371164
H            3.83650326838729        1.25972318485101        1.07021043001326
H            4.00667240610803        1.21509667562286       -0.69999353117092
H            2.70437856196909        2.18520426077020        0.04840180214462
H            3.69562892392678       -1.57598323792867        0.07347980161525
H           -1.60582939121849        3.04174027291947       -0.06537248444809
H           -2.75326172843206        2.05829041801240       -1.02889918750000
H           -2.85643943749896        2.04166630942909        0.74156829040002
H           -0.97594786539384       -3.38157158472432        0.53042965180842
H           -1.84391165134149       -3.03662406857715       -0.96718074562047
H           -2.94566436804337       -2.81529243629216        0.22761188921899
H            1.51889583137712       -2.92529147118104       -0.00718744455793
25
 energy: 41.929777456647 xtb: 6.6.1 (8d0f1dd)
C            3.28624544923473        1.28208208865855        0.12734801922661
N            2.37539809180902        0.17985890202057        0.05130171481651
C            2.72987485159351       -1.18404366976438        0.04807739729294
N            1.54969188922594       -1.91450273454823        0.01798240884243
C            0.46295423061587       -1.11400694185864        0.01648607844961
C            0.96100386739431        0.21449895392480        0.02587623920957
C            0.18108391529567        1.35930721212552        0.00323163220466
O            0.52738277043263        2.55552963677581        0.02431512097261
N           -1.21689542248339        1.01580532666138       -0.06665746119480
C           -2.16245747804169        2.10594845597506       -0.12277237257548
C           -1.75024954760725       -0.22389731587251       -0.08404930783900
O           -2.95568707892363       -0.40554954951995       -0.16897533890555
N           -0.94304537593597       -1.36538306554128        0.02266066728112
C           -1.76682723838195       -2.63840613202057        0.04914307274636
H            3.87351122810083        1.26556964104685        1.05839122075432
H            3.99546553807758        1.27372382160110       -0.71488678517202
H            2.70621293125678        2.20811909251853        0.09366187615112
H            3.72987841182918       -1.54296017109279        0.07757810623420
H           -1.59137494772503        3.03068535332471       -0.07604154960194
H           -2.73135646987337        2.04758765496703       -1.05044447270812
H           -2.84995285620473        2.03011511075179        0.71915958557179
H           -0.98612087567595       -3.42327807472943        0.40333076558236
H           -2.05610249390866       -2.95697880645894       -0.93746473711308
H           -3.04291125409128       -2.89069199932963        0.31326955583871
H            1.58649253192299       -2.92010418744339       -0.00348753991765
25
 energy: 51.241012739476 xtb: 6.6.1 (8d0f1dd)
C            3.28907309256678        1.28771650150251        0.12748724597019
N            2.38247342960260        0.17634376051726        0.05121501517077
C            2.73410160063658       -1.16948407920392        0.05135495860353
N            1.57365625932310       -1.90709922200832        0.02994222547411
C            0.47158316041446       -1.12292341665869        0.03785260199135
C            0.97081917675746        0.20783195978292        0.03294263478082
C            0.18734771526036        1.36358678711446        0.00359328758512
O            0.52781243285316        2.54726956915167        0.02485496238185
N           -1.20686057741806        1.01405824495832       -0.06935267780411
C           -2.15580340539054        2.10047063982037       -0.13489229752721
C           -1.73701460685813       -0.23520979088581       -0.08588883813301
O           -2.93700624263711       -0.41834887292708       -0.18998661396947
N           -0.93464694653274       -1.37970845731622        0.05030141189898
C           -1.77257513607495       -2.65759986049735        0.06247705778741
H            3.88871785971188        1.26288950429825        1.04576493092618
H            3.98346387442746        1.29748837355243       -0.72170416619997
H            2.70974045939748        2.21180439514523        0.11373365034016
H            3.74095697905688       -1.52049855572991        0.08278559183468
H           -1.58789719768177        3.02652757083166       -0.08682162137956
H           -2.71993961174572        2.04017923504694       -1.06468413488782
H           -2.84708831270050        2.02608980581219        0.70370028011247
H           -0.99570990567328       -3.44125640576966        0.27065980360010
H           -2.18643330278260       -2.84071518507498       -0.89884092426998
H           -3.09733326623479       -2.96631028752776        0.38497559363222
H            1.63077713965810       -2.91407361176257        0.00556391822847
25
 energy: 59.375825699393 xtb: 6.6.1 (8d0f1dd)
C            3.28940856703975        1.28285970624052        0.12466739481471
N            2.38421574940716        0.16721418950221        0.05161687009122
C            2.72612930044870       -1.15940077799915        0.05755326707717
N            1.58278189250829       -1.90324509015957        0.04767139821724
C            0.47541881874683       -1.11987095925486        0.06124814898923
C            0.97759126430865        0.20778675677457        0.04132031805271
C            0.18694239070197        1.36939639454960        0.00105854036918
O            0.52869849563912        2.54534552242491        0.01719544646258
N           -1.19924481478587        1.01247259602349       -0.06878668455090
C           -2.15431716911889        2.09675628909316       -0.14685990316820
C           -1.73058697192041       -0.24291412967815       -0.07496302731473
O           -2.92501738496908       -0.42886535446437       -0.19687806593841
N           -0.92106195746031       -1.38013078956885        0.08638074403482
C           -1.74086401398307       -2.67081788159248        0.06882340950275
H            3.88776911947644        1.25533529324971        1.03860847446591
H            3.97518415179285        1.29037987950435       -0.72461159479254
H            2.71021759717006        2.20297160401587        0.11200133239355
H            3.73431957106907       -1.51316688740702        0.09325218873368
H           -1.59290101488871        3.02728462854894       -0.10289164576312
H           -2.71660604858606        2.03244487957759       -1.07729749179474
H           -2.84818948826260        2.02879266119652        0.69016852141163
H           -0.95207397851235       -3.47179910831771        0.11909037484719
H           -2.28636052574943       -2.68726466290562       -0.86918250096569
H           -3.12156230378888       -3.04316779203478        0.45102991643367
H            1.64232342165285       -2.90936836514697        0.02681846453838
25
 energy: 70.830788423513 xtb: 6.6.1 (8d0f1dd)
C            3.28740817442934        1.27671307160865        0.11953443468560
N            2.38309640933561        0.15449633010114        0.04859604740949
C            2.71369506826926       -1.14907112023194        0.05452599371709
N            1.58767829803880       -1.90320514273112        0.05795053380178
C            0.47611534219717       -1.11427666088620        0.07598337338147
C            0.98293285176418        0.20812884886152        0.04850294403438
C            0.18222616610171        1.37244331030326        0.00067192592014
O            0.53117031237272        2.54157244789034        0.01505882958870
N           -1.19060365918403        1.00882376937772       -0.06685278677143
C           -2.15220315798207        2.09282279148228       -0.14746868472827
C           -1.72685098987880       -0.25052212552229       -0.07334717342503
O           -2.91437014026036       -0.43580574549140       -0.20203641189395
N           -0.90290220797244       -1.37715748313616        0.10572267326830
C           -1.69723777506282       -2.67995095737794        0.05873757378879
H            3.88496618005168        1.24688086859043        1.03214495564891
H            3.96779175733760        1.28172287232442       -0.73203009673099
H            2.70541709414036        2.19525317293966        0.10786954294958
H            3.72249656152611       -1.51061308139306        0.09213046203690
H           -1.59687070683393        3.02804478127991       -0.10508446591091
H           -2.71516315989507        2.02843451234032       -1.07737132497821
H           -2.84629279149832        2.02710589510116        0.68957691144372
H           -0.97241514273640       -3.43522377660607        0.00160205018799
H           -2.29730307164152       -2.58534932744490       -0.75462659929637
H           -3.14059220531178       -3.12360665049460        0.43914279211638
H            1.64002546062906       -2.90863199871318        0.03810039590323
25
 energy: 78.036831217630 xtb: 6.6.1 (8d0f1dd)
C            3.28981697757825        1.27616763627928        0.11962526687388
N            2.38590956587084        0.15450000933408        0.04872548773321
C            2.71479226554185       -1.14644982187425        0.05888195285111
N            1.59028433485360       -1.90444374168650        0.06972728780369
C            0.48136965375563       -1.10795868355132        0.08597793890993
C            0.98611783362905        0.21410482366348        0.05282760578030
C            0.18168102018221        1.37359421807436       -0.00185391596276
O            0.53498596141264        2.54700977383614        0.00462138803758
N           -1.18606151138323        1.00760835952999       -0.06730139849326
C           -2.15178254108460        2.09073060344225       -0.15390865438192
C           -1.72087857728423       -0.25225122106405       -0.06646781106058
O           -2.90697568848195       -0.43826181091962       -0.20305425548910
N           -0.88668136202857       -1.37255311885565        0.12813565343307
C           -1.66878461055896       -2.67613488696684        0.06198605551064
H            3.88017289189785        1.24976113831832        1.03671661866458
H            3.97359020621132        1.27097400869151       -0.72902954220614
H            2.70509940156703        2.19263665098115        0.09715658398600
H            3.72135477641195       -1.51392708421019        0.10120843143828
H           -1.60086811678991        3.02936974496617       -0.11515186989114
H           -2.71473077824156        2.02205130355473       -1.08372876977529
H           -2.84647735477905        2.02725832316996        0.68291389031412
H           -0.91013156159510       -3.45700138380175       -0.12866163810629
H           -2.38826275960918       -2.47086858587858       -0.69346869359763
H           -3.18412973755630       -3.21740522116210        0.46729290112818
H            1.63280437841652       -2.90948243169866        0.05386338264681
25
 energy: 88.224054290705 xtb: 6.6.1 (8d0f1dd)
C            3.29441025637701        1.27880865485332        0.12525375202558
N            2.39038338297141        0.16126471433476        0.05081765708919
C            2.72345317506645       -1.14658224019918        0.06193057879581
N            1.59115004881206       -1.90496401917880        0.06819221933295
C            0.48842099734723       -1.09780883310460        0.07267771436036
C            0.99006359929422        0.22406272137004        0.05070492588427
C            0.18249951355412        1.37577805968350       -0.00448639138560
O            0.54231898287498        2.55606343070198       -0.00271025976039
N           -1.18075651464624        1.01191355933289       -0.06827418326922
C           -2.15107140113907        2.09276311541663       -0.15349260065468
C           -1.71142042168117       -0.24807992726568       -0.06757951262815
O           -2.89960348548579       -0.42958915597209       -0.20254119368647
N           -0.86612460292872       -1.36589562603477        0.11540540231951
C           -1.63724627821935       -2.66417816521293        0.05960209890556
H            3.87147724838544        1.25934719266588        1.05195308482794
H            3.98992047668450        1.25921610679777       -0.71549227030195
H            2.70792527527102        2.19446245497575        0.08412182438148
H            3.72606449590965       -1.51962534313493        0.10760867219174
H           -1.60435039261606        3.03382206269775       -0.11598163446234
H           -2.71533822098853        2.02034261271917       -1.08256889697116
H           -2.84499661017672        2.02499505997159        0.68360402775393
H           -0.85301160708171       -3.43753785411019       -0.21355357500883
H           -2.46991789408638       -2.41754723945584       -0.60472624785058
H           -3.26978483737263       -3.36171197946556        0.47304381095538
H            1.61774948181038       -2.91029076021454        0.05352489330294
25
 energy: 101.463069466883 xtb: 6.6.1 (8d0f1dd)
C            3.30238366754347        1.28865451772532        0.13568490798788
N            2.39809711181209        0.18969362728094        0.06086485914587
C            2.75704116513689       -1.15899714007534        0.06780487506823
N            1.58559294915490       -1.91101502144434        0.05696789070325
C            0.50493706315584       -1.07559198110036        0.03220355973012
C            0.99321904220203        0.24769389938431        0.04703461973704
C            0.18137975502183        1.37342614578745       -0.00111519425579
O            0.55668048449039        2.57923239628593       -0.01172689221388
N           -1.17857762807619        1.02334042934559       -0.06554387387357
C           -2.15273533395863        2.10036712303530       -0.14739314485117
C           -1.69439506192938       -0.23276054262834       -0.06438909220837
O           -2.89620837188930       -0.40433518855861       -0.18935449095143
N           -0.82248850742703       -1.34921886556072        0.06054564552020
C           -1.57675193353601       -2.61001754108652        0.04318717431553
H            3.86112293511391        1.28067733261723        1.08364918501796
H            4.02362858869024        1.24000378464818       -0.69718029499505
H            2.70891545252651        2.20600708720306        0.06202515801692
H            3.74675532171091       -1.53769035958910        0.10944462535678
H           -1.60687228813838        3.04038012370216       -0.11171056069027
H           -2.71830629153897        2.01949603438653       -1.07636404269792
H           -2.84512603825543        2.02167941020864        0.69003884134644
H           -0.76004455338846       -3.40712690907240       -0.24510887942192
H           -2.56203567387098       -2.43162747522795       -0.47575230476366
H           -3.46821890300826       -3.58584001559199        0.42102938904617
H            1.57422171639406       -2.91740226950308        0.04219193607791
25
 energy: 107.262182557233 xtb: 6.6.1 (8d0f1dd)
C            3.30547664572792        1.29388703760514        0.13676789174900
N            2.39988422174239        0.21645213077267        0.06887826111178
C            2.78761226898161       -1.17395999175524        0.06793951551703
N            1.58100479017261       -1.91902724712506        0.04813642511438
C            0.51866966759183       -1.05946170540737        0.00873080611105
C            0.99393143915914        0.26590064171244        0.04541686648608
C            0.17439534558413        1.36526850251150        0.00368074170362
O            0.56411298840102        2.59724199012692       -0.01029138001218
N           -1.18536752170156        1.02895860830327       -0.06343900690361
C           -2.15559555740380        2.10581899270978       -0.13957698452523
C           -1.68731642864769       -0.22260754140128       -0.06151784601753
O           -2.90253716074601       -0.39664356637047       -0.17012616169067
N           -0.78671448349329       -1.33896730963600        0.02001037370012
C           -1.49925606026914       -2.53925754517482        0.01903992912124
H            3.86206803423668        1.28937055344482        1.09539989867370
H            4.04085502989247        1.23130768168952       -0.69731095121578
H            2.70846229814165        2.21529930950233        0.05212219200081
H            3.76486474833813       -1.55035633356408        0.10184859014679
H           -1.60308387740943        3.04005617871227       -0.10441915629629
H           -2.72150933269268        2.02163293586384       -1.06875217204457
H           -2.84567664057112        2.02063863183852        0.69862434245227
H           -0.73161985665503       -3.40958906868977       -0.16554381759208
H           -2.55101416913061       -2.48579587602057       -0.39821789394927
H           -3.66418243932064       -3.68193985628744        0.30722127816093
H            1.54475071800751       -2.92519855118899        0.03241215434569
25
 energy: 102.522001260315 xtb: 6.6.1 (8d0f1dd)
C            3.30736410710131        1.28972752714730        0.13385348697448
N            2.39934906534628        0.21672327736063        0.06887205018050
C            2.78731552596346       -1.17380671000890        0.06306779494100
N            1.58990627442182       -1.91740999243627        0.04016175419569
C            0.52663309278703       -1.05122034441976        0.00247905407970
C            1.00514039393064        0.27328487076738        0.04011104421373
C            0.16967985626330        1.36836816511872       -0.00031288853766
O            0.56755943583189        2.60400927868612        0.00047573450604
N           -1.18492522704518        1.03207568117148       -0.06619602059366
C           -2.15503641430601        2.10811639303990       -0.13170318238585
C           -1.68726729035283       -0.21999650000322       -0.07487301516106
O           -2.90014379442633       -0.40734528244852       -0.16061619747230
N           -0.76707562851337       -1.34136044261298       -0.00159348582190
C           -1.39893820893558       -2.50035947403732       -0.00524528801526
H            3.86258164574287        1.28673679937666        1.08964828784585
H            4.04192476371107        1.23228045262420       -0.69624551477615
H            2.71492220085731        2.21239013437364        0.05271954077521
H            3.76489977300280       -1.54754120151520        0.09753819236736
H           -1.60243844607840        3.04203161304385       -0.09482749396029
H           -2.72303596614852        2.02722486941948       -1.05907678302878
H           -2.84317458615080        2.02093080153601        0.70731803384855
H           -0.72552693673492       -3.41400511688149       -0.11306918618855
H           -2.51732756407616       -2.49946972064791       -0.28162724848462
H           -3.87192872355347       -3.73085823168633        0.19355925935155
H            1.55175731929790       -2.92149824479548        0.02261596729368
25
 energy: 87.217229397956 xtb: 6.6.1 (8d0f1dd)
C            3.31087853221534        1.28139489035733        0.12871490215589
N            2.40250088709967        0.18507123226816        0.06445363695427
C            2.75219954991720       -1.15655162992045        0.05585591272262
N            1.61136652451290       -1.89834272866487        0.02697909720949
C            0.52725824603939       -1.05096283914362        0.00199366026619
C            1.02863117492838        0.26871681500128        0.03255250947283
C            0.17819959560757        1.38704154448467       -0.00246169827227
O            0.56387667490836        2.59260603290911        0.01363459752094
N           -1.17577355389782        1.03639722741138       -0.06291792554450
C           -2.15208040263456        2.10746532578186       -0.12242896752629
C           -1.69834965735479       -0.21440083149486       -0.08859051043686
O           -2.89252433824803       -0.42299530345591       -0.15777468031775
N           -0.78450865559188       -1.35198353599542       -0.02461599825885
C           -1.34496525606872       -2.52606368776655       -0.03736815258012
H            3.86426474318573        1.27967184184593        1.06993827419556
H            4.02726192716117        1.24592726436494       -0.69389947850621
H            2.72466195013642        2.20038883576502        0.06337624006623
H            3.74869703956217       -1.52817977158268        0.09088331331637
H           -1.60447371267912        3.04519073974453       -0.08243617853054
H           -2.72313248926259        2.03290870601778       -1.04730627937147
H           -2.84004223067323        2.02242387148307        0.71737273990437
H           -0.75276408968199       -3.42345959125678       -0.02323550602759
H           -2.39798467700271       -2.57214779401360       -0.19838715351653
H           -4.05236677276668       -3.64857968522179        0.09464079890679
H            1.59138365852397       -2.90250832674656        0.00806074234468
25
 energy: 88.429953743210 xtb: 6.6.1 (8d0f1dd)
C            3.31967284764161        1.27962277287224        0.13159255631354
N            2.41857409063974        0.15193706088341        0.06628540768258
C            2.72541443812126       -1.11878792478748        0.05681510435517
N            1.64500084147090       -1.87277818043494        0.01652315393245
C            0.53862145707755       -1.03833238026749       -0.00701439242322
C            1.05630300555581        0.27660787527080        0.02538723157174
C            0.19504383816504        1.41347534762817       -0.00487833717081
O            0.55999397100259        2.58338233082616        0.02413715165761
N           -1.15217090211888        1.04027344059285       -0.06419898802050
C           -2.14641717390316        2.10413992557740       -0.11722713434990
C           -1.68774327964012       -0.21426130949934       -0.10488672206659
O           -2.86322913622565       -0.44086537877977       -0.16357692488475
N           -0.76448174437001       -1.34552614089314       -0.05375889978086
C           -1.28711057594548       -2.57239368861302       -0.05121999672759
H            3.86464007011193        1.27339106845418        1.06901642149549
H            4.02126169446204        1.25292658025645       -0.69069361293874
H            2.72451034972584        2.19168419590218        0.07346605538267
H            3.73746842579140       -1.49630097186602        0.08865926290624
H           -1.61294122214907        3.05160243146573       -0.07292637755856
H           -2.72179266272116        2.03515496362854       -1.03997432916626
H           -2.83571990142385        2.01644331216638        0.72264599300748
H           -0.71882015529088       -3.42522994966345       -0.06161026737739
H           -2.47192874330984       -2.62006405265046       -0.00819853921757
H           -4.25776278311153       -3.65556996254945       -0.00220238770611
H            1.62582791838003       -2.88150276334792       -0.00512753276883
25