      -----------------------------------------------------------      
     |                   =====================                   |     
     |                           x T B                           |     
     |                   =====================                   |     
     |                         S. Grimme                         |     
     |          Mulliken Center for Theoretical Chemistry        |     
     |                    University of Bonn                     |     
      -----------------------------------------------------------      

   * xtb version 6.6.1 (8d0f1dd) compiled by 'conda@1efc2f54142f' on 2023-08-01

   xtb is free software: you can redistribute it and/or modify it under
   the terms of the GNU Lesser General Public License as published by
   the Free Software Foundation, either version 3 of the License, or
   (at your option) any later version.
   
   xtb is distributed in the hope that it will be useful,
   but WITHOUT ANY WARRANTY; without even the implied warranty of
   MERCHANTABILITY or FITNESS FOR A PARTICULAR PURPOSE.  See the
   GNU Lesser General Public License for more details.
   
   Cite this work as:
   * C. Bannwarth, E. Caldeweyher, S. Ehlert, A. Hansen, P. Pracht,
     J. Seibert, S. Spicher, S. Grimme, WIREs Comput. Mol. Sci., 2020, 11,
     e01493. DOI: 10.1002/wcms.1493
   
   for GFN2-xTB:
   * C. Bannwarth, S. Ehlert and S. Grimme., J. Chem. Theory Comput., 2019,
     15, 1652-1671. DOI: 10.1021/acs.jctc.8b01176
   for GFN1-xTB:
   * S. Grimme, C. Bannwarth, P. Shushkov, J. Chem. Theory Comput., 2017,
     13, 1989-2009. DOI: 10.1021/acs.jctc.7b00118
   for GFN0-xTB:
   * P. Pracht, E. Caldeweyher, S. Ehlert, S. Grimme, ChemRxiv, 2019, preprint.
     DOI: 10.26434/chemrxiv.8326202.v1
   for GFN-FF:
   * S. Spicher and S. Grimme, Angew. Chem. Int. Ed., 2020, 59, 15665-15673.
     DOI: 10.1002/anie.202004239
   
   for ALPB and GBSA implicit solvation:
   * S. Ehlert, M. Stahn, S. Spicher, S. Grimme, J. Chem. Theory Comput.,
     2021, 17, 4250-4261. DOI: 10.1021/acs.jctc.1c00471
   
   for DFT-D4:
   * E. Caldeweyher, C. Bannwarth and S. Grimme, J. Chem. Phys., 2017,
     147, 034112. DOI: 10.1063/1.4993215
   * E. Caldeweyher, S. Ehlert, A. Hansen, H. Neugebauer, S. Spicher,
     C. Bannwarth and S. Grimme, J. Chem. Phys., 2019, 150, 154122.
     DOI: 10.1063/1.5090222
   * E. Caldeweyher, J.-M. Mewes, S. Ehlert and S. Grimme, Phys. Chem. Chem. Phys.
     2020, 22, 8499-8512. DOI: 10.1039/D0CP00502A
   
   for sTDA-xTB:
   * S. Grimme and C. Bannwarth, J. Chem. Phys., 2016, 145, 054103.
     DOI: 10.1063/1.4959605
   
   in the mass-spec context:
   * V. Asgeirsson, C. Bauer and S. Grimme, Chem. Sci., 2017, 8, 4879.
     DOI: 10.1039/c7sc00601b
   * J. Koopman and S. Grimme, ACS Omega 2019, 4, 12, 15120-15133.
     DOI: 10.1021/acsomega.9b02011
   
   for metadynamics refer to:
   * S. Grimme, J. Chem. Theory Comput., 2019, 155, 2847-2862
     DOI: 10.1021/acs.jctc.9b00143
   
   for SPH calculations refer to:
   * S. Spicher and S. Grimme, J. Chem. Theory Comput., 2021, 17, 1701-1714
     DOI: 10.1021/acs.jctc.0c01306
   
   with help from (in alphabetical order)
   P. Atkinson, C. Bannwarth, F. Bohle, G. Brandenburg, E. Caldeweyher
   M. Checinski, S. Dohm, S. Ehlert, S. Ehrlich, I. Gerasimov, C. Hölzer
   A. Katbashev, J. Koopman, C. Lavigne, S. Lehtola, F. März, M. Müller,
   F. Musil, H. Neugebauer, J. Pisarek, C. Plett, P. Pracht, F. Pultar,
   J. Seibert, P. Shushkov, S. Spicher, M. Stahn, M. Steiner, T. Strunk,
   J. Stückrath, T. Rose, and J. Unsleber
   
 * started run on 2024/06/05 at 19:59:12.677     

           -------------------------------------------------
          |                Calculation Setup                |
           -------------------------------------------------

          program call               : xtb xtbopt.xyz --opt crude --input .xc2 --gfn2
          hostname                   : n-62-31-11
          coordinate file            : xtbopt.xyz
          omp threads                :                     1

   ID    Z sym.   atoms
    1    6 C      1, 3, 5-7, 10, 11, 14
    2    7 N      2, 4, 9, 13
    3    8 O      8, 12
    4    1 H      15-25
########################################################################
[WARNING] Please study the warnings concerning your input carefully
-1- readin_getIntValue: could not parse ''
########################################################################

           -------------------------------------------------
          |                 G F N 2 - x T B                 |
           -------------------------------------------------

        Reference                      10.1021/acs.jctc.8b01176
      * Hamiltonian:
        H0-scaling (s, p, d)           1.850000    2.230000    2.230000
        zeta-weighting                 0.500000
      * Dispersion:
        s8                             2.700000
        a1                             0.520000
        a2                             5.000000
        s9                             5.000000
      * Repulsion:
        kExp                           1.500000    1.000000
        rExp                           1.000000
      * Coulomb:
        alpha                          2.000000
        third order                    shell-resolved
        anisotropic                    true
        a3                             3.000000
        a5                             4.000000
        cn-shift                       1.200000
        cn-exp                         4.000000
        max-rad                        5.000000

q/qsh data taken from xtbrestart
CAMM data taken from xtbrestart

          ...................................................
          :                      SETUP                      :
          :.................................................:
          :  # basis functions                  67          :
          :  # atomic orbitals                  67          :
          :  # shells                           39          :
          :  # electrons                        74          :
          :  max. iterations                   250          :
          :  Hamiltonian                  GFN2-xTB          :
          :  restarted?                       true          :
          :  GBSA solvation                  false          :
          :  PC potential                    false          :
          :  electronic temp.         5000.0000000     K    :
          :  accuracy                    1.0000000          :
          :  -> integral cutoff          0.2500000E+02      :
          :  -> integral neglect         0.1000000E-07      :
          :  -> SCF convergence          0.1000000E-05 Eh   :
          :  -> wf. convergence          0.1000000E-03 e    :
          :  Broyden damping             0.4000000          :
          ...................................................

 iter      E             dE          RMSdq      gap      omega  full diag
   1    -42.5933357 -0.425933E+02  0.169E-05    2.03       0.0  T
   2    -42.5933357  0.591172E-11  0.204E-05    2.03     981.4  T
   3    -42.5933357 -0.153051E-10  0.412E-06    2.03    4848.9  T

   *** convergence criteria satisfied after 3 iterations ***

         #    Occupation            Energy/Eh            Energy/eV
      -------------------------------------------------------------
         1        2.0000           -0.9030947             -24.5745
       ...           ...                  ...                  ...
        31        1.9998           -0.6114549             -16.6385
        32        1.9996           -0.6042841             -16.4434
        33        1.9990           -0.5877396             -15.9932
        34        1.9957           -0.5652689             -15.3818
        35        1.9932           -0.5579246             -15.1819
        36        1.9884           -0.5492711             -14.9464
        37        1.8159           -0.5041039             -13.7174 (HOMO)
        38        0.1630           -0.4295141             -11.6877 (LUMO)
        39        0.0360           -0.4045393             -11.0081
        40        0.0095           -0.3831928             -10.4272
        41        0.0003           -0.3301794              -8.9846
        42        0.0000           -0.2896307              -7.8813
       ...           ...                  ...                  ...
        67                          0.5046588              13.7325
      -------------------------------------------------------------
                  HL-Gap            0.0745899 Eh            2.0297 eV
             Fermi-level           -0.4678648 Eh          -12.7312 eV

 SCC (total)                   0 d,  0 h,  0 min,  0.025 sec
 SCC setup                      ...        0 min,  0.000 sec (  1.130%)
 Dispersion                     ...        0 min,  0.000 sec (  1.341%)
 classical contributions        ...        0 min,  0.000 sec (  0.372%)
 integral evaluation            ...        0 min,  0.005 sec ( 20.934%)
 iterations                     ...        0 min,  0.006 sec ( 22.717%)
 molecular gradient             ...        0 min,  0.013 sec ( 52.897%)
 printout                       ...        0 min,  0.000 sec (  0.566%)

         :::::::::::::::::::::::::::::::::::::::::::::::::::::
         ::                     SUMMARY                     ::
         :::::::::::::::::::::::::::::::::::::::::::::::::::::
         :: total energy             -42.117116068139 Eh    ::
         :: gradient norm              0.082904253793 Eh/a0 ::
         :: HOMO-LUMO gap              2.029693515017 eV    ::
         ::.................................................::
         :: SCC energy               -42.593335662264 Eh    ::
         :: -> isotropic ES            0.124097051723 Eh    ::
         :: -> anisotropic ES         -0.006124926306 Eh    ::
         :: -> anisotropic XC          0.014394664990 Eh    ::
         :: -> dispersion             -0.021646481211 Eh    ::
         :: repulsion energy           0.476155820202 Eh    ::
         :: add. restraining           0.000000000000 Eh    ::
         :: total charge               0.999999999953 e     ::
         :::::::::::::::::::::::::::::::::::::::::::::::::::::

      ----------------------------------------------------------- 
     |                   =====================                   |
     |                        A N C O P T                        |
     |                   =====================                   |
     |               Approximate Normal Coordinate               |
     |                Rational Function Optimizer                |
      ----------------------------------------------------------- 

          ...................................................
          :                      SETUP                      :
          :.................................................:
          :   optimization level             crude          :
          :   max. optcycles                   200          :
          :   ANC micro-cycles                  20          :
          :   degrees of freedom                69          :
          :.................................................:
          :   RF solver                   davidson          :
          :   write xtbopt.log                true          :
          :   linear?                        false          :
          :   energy convergence         0.5000000E-03 Eh   :
          :   grad. convergence          0.1000000E-01 Eh/α :
          :   maxmium RF displ.          1.0000000          :
          :   Hlow (freq-cutoff)         0.1000000E-01      :
          :   Hmax (freq-cutoff)         5.0000000          :
          :   S6 in model hess.         20.0000000          :
          ...................................................

generating ANC from model Hessian ...
Using Lindh-Hessian (1995)
 Shifting diagonal of input Hessian by    8.6723908751242806E-003
 Lowest  eigenvalues of input Hessian
    0.000000    0.000000    0.000000    0.000000    0.000000    0.000000
    0.010000    0.011106    0.011464    0.013024    0.016904    0.017700
    0.018993    0.020357    0.023170    0.027087    0.028506    0.031127
 Highest eigenvalues
    1.884797    1.974001    2.073156    2.200650    2.272636    2.328396


........................................................................
.............................. CYCLE    1 ..............................
........................................................................

 iter      E             dE          RMSdq      gap      omega  full diag
   1    -42.5933357 -0.425933E+02  0.271E-06    2.03       0.0  T
   2    -42.5933357 -0.284217E-13  0.207E-06    2.03    9665.0  T
   3    -42.5933357 -0.135003E-12  0.134E-06    2.03   14884.9  T
     SCC iter.                  ...        0 min,  0.005 sec
     gradient                   ...        0 min,  0.013 sec
 * total energy  :   -42.1171161 Eh     change       -0.1207923E-12 Eh
   gradient norm :     0.0829042 Eh/α   predicted     0.0000000E+00 (-100.00%)
   displ. norm   :     0.5892589 α      lambda       -0.2981163E-01
   maximum displ.:     0.2416445 α      in ANC's #16, #9, #11, ...

........................................................................
.............................. CYCLE    2 ..............................
........................................................................

 iter      E             dE          RMSdq      gap      omega  full diag
   1    -42.6249467 -0.426249E+02  0.333E-01    2.04       0.0  T
   2    -42.6251457 -0.198964E-03  0.195E-01    2.08       1.0  T
   3    -42.6250040  0.141658E-03  0.869E-02    2.00       1.0  T
   4    -42.6250949 -0.909106E-04  0.558E-02    2.10       1.0  T
   5    -42.6251952 -0.100284E-03  0.126E-02    2.05       1.6  T
   6    -42.6251961 -0.846373E-06  0.654E-03    2.06       3.1  T
   7    -42.6251963 -0.225135E-06  0.262E-03    2.05       7.6  T
   8    -42.6251964 -0.852596E-07  0.789E-04    2.05      25.4  T
   9    -42.6251964 -0.619624E-08  0.367E-04    2.05      54.5  T
     SCC iter.                  ...        0 min,  0.012 sec
     gradient                   ...        0 min,  0.013 sec
 * total energy  :   -42.1409259 Eh     change       -0.2380987E-01 Eh
   gradient norm :     0.0551504 Eh/α   predicted    -0.2008338E-01 ( -15.65%)
   displ. norm   :     0.6488478 α      lambda       -0.2230415E-01
   maximum displ.:     0.2500742 α      in ANC's #16, #9, #13, ...

........................................................................
.............................. CYCLE    3 ..............................
........................................................................

 iter      E             dE          RMSdq      gap      omega  full diag
   1    -42.6517800 -0.426518E+02  0.358E-01    2.08       0.0  T
   2    -42.6521537 -0.373720E-03  0.216E-01    2.12       1.0  T
   3    -42.6521031  0.506970E-04  0.939E-02    2.06       1.0  T
   4    -42.6521098 -0.674172E-05  0.602E-02    2.15       1.0  T
   5    -42.6522157 -0.105950E-03  0.155E-02    2.10       1.3  T
   6    -42.6522185 -0.274130E-05  0.774E-03    2.11       2.6  T
   7    -42.6522190 -0.561060E-06  0.338E-03    2.10       5.9  T
   8    -42.6522192 -0.135773E-06  0.114E-03    2.10      17.6  T
   9    -42.6522192 -0.164545E-07  0.474E-04    2.10      42.2  T
  10    -42.6522192 -0.361084E-09  0.256E-04    2.10      78.2  T
     SCC iter.                  ...        0 min,  0.013 sec
     gradient                   ...        0 min,  0.013 sec
 * total energy  :   -42.1566824 Eh     change       -0.1575642E-01 Eh
   gradient norm :     0.0236178 Eh/α   predicted    -0.1584715E-01 (   0.58%)
   displ. norm   :     0.6200304 α      lambda       -0.8959890E-02
   maximum displ.:     0.3277746 α      in ANC's #3, #9, #1, ...

........................................................................
.............................. CYCLE    4 ..............................
........................................................................

 iter      E             dE          RMSdq      gap      omega  full diag
   1    -42.6617153 -0.426617E+02  0.233E-01    2.15       0.0  T
   2    -42.6618806 -0.165316E-03  0.135E-01    2.15       1.0  T
   3    -42.6618792  0.146937E-05  0.472E-02    2.15       1.0  T
   4    -42.6618905 -0.113701E-04  0.181E-02    2.14       1.1  T
   5    -42.6618947 -0.420323E-05  0.786E-03    2.15       2.5  T
   6    -42.6618961 -0.138608E-05  0.488E-03    2.14       4.1  T
   7    -42.6618965 -0.410607E-06  0.204E-03    2.15       9.8  T
   8    -42.6618966 -0.248335E-07  0.471E-04    2.15      42.5  T
   9    -42.6618966 -0.330655E-08  0.170E-04    2.15     117.8  T
     SCC iter.                  ...        0 min,  0.012 sec
     gradient                   ...        0 min,  0.013 sec
 * total energy  :   -42.1622790 Eh     change       -0.5596602E-02 Eh
   gradient norm :     0.0252599 Eh/α   predicted    -0.6202377E-02 (  10.82%)
   displ. norm   :     0.3383222 α      lambda       -0.2361374E-02
   maximum displ.:     0.2396493 α      in ANC's #3, #1, #13, ...

........................................................................
.............................. CYCLE    5 ..............................
........................................................................

 iter      E             dE          RMSdq      gap      omega  full diag
   1    -42.6665937 -0.426666E+02  0.124E-01    2.18       0.0  T
   2    -42.6665987 -0.501867E-05  0.735E-02    2.15       1.0  T
   3    -42.6665189  0.797776E-04  0.507E-02    2.21       1.0  T
   4    -42.6666097 -0.907842E-04  0.871E-03    2.16       2.3  T
   5    -42.6666112 -0.144775E-05  0.351E-03    2.17       5.7  T
   6    -42.6666112 -0.429856E-07  0.171E-03    2.17      11.7  T
   7    -42.6666112 -0.202457E-07  0.396E-04    2.17      50.5  T
   8    -42.6666112 -0.620105E-09  0.190E-04    2.17     105.4  T
     SCC iter.                  ...        0 min,  0.011 sec
     gradient                   ...        0 min,  0.013 sec
 * total energy  :   -42.1640348 Eh     change       -0.1755887E-02 Eh
   gradient norm :     0.0248083 Eh/α   predicted    -0.1315832E-02 ( -25.06%)
   displ. norm   :     0.3962676 α      lambda       -0.2190995E-02
   maximum displ.:     0.2922419 α      in ANC's #3, #1, #8, ...

........................................................................
.............................. CYCLE    6 ..............................
........................................................................

 iter      E             dE          RMSdq      gap      omega  full diag
   1    -42.6710467 -0.426710E+02  0.126E-01    2.20       0.0  T
   2    -42.6710690 -0.223531E-04  0.772E-02    2.15       1.0  T
   3    -42.6710092  0.598462E-04  0.587E-02    2.22       1.0  T
   4    -42.6710974 -0.882569E-04  0.154E-02    2.17       1.3  T
   5    -42.6711026 -0.518692E-05  0.295E-03    2.18       6.8  T
   6    -42.6711027 -0.578328E-07  0.165E-03    2.18      12.1  T
   7    -42.6711027 -0.782325E-08  0.584E-04    2.18      34.2  T
   8    -42.6711027 -0.262227E-08  0.225E-04    2.18      88.9  T
     SCC iter.                  ...        0 min,  0.011 sec
     gradient                   ...        0 min,  0.013 sec
 * total energy  :   -42.1656626 Eh     change       -0.1627712E-02 Eh
   gradient norm :     0.0167753 Eh/α   predicted    -0.1267523E-02 ( -22.13%)
   displ. norm   :     0.4093888 α      lambda       -0.1557658E-02
   maximum displ.:     0.2874592 α      in ANC's #3, #1, #8, ...

........................................................................
.............................. CYCLE    7 ..............................
........................................................................

 iter      E             dE          RMSdq      gap      omega  full diag
   1    -42.6735980 -0.426736E+02  0.114E-01    2.21       0.0  T
   2    -42.6736141 -0.160849E-04  0.704E-02    2.16       1.0  T
   3    -42.6735621  0.520590E-04  0.576E-02    2.23       1.0  T
   4    -42.6736467 -0.846744E-04  0.114E-02    2.18       1.8  T
   5    -42.6736489 -0.215008E-05  0.325E-03    2.19       6.2  T
   6    -42.6736490 -0.568858E-07  0.195E-03    2.19      10.3  T
   7    -42.6736490 -0.159256E-07  0.947E-04    2.19      21.1  T
   8    -42.6736490 -0.690607E-08  0.331E-04    2.19      60.4  T
     SCC iter.                  ...        0 min,  0.011 sec
     gradient                   ...        0 min,  0.013 sec
 * total energy  :   -42.1667534 Eh     change       -0.1090797E-02 Eh
   gradient norm :     0.0098924 Eh/α   predicted    -0.9093833E-03 ( -16.63%)
   displ. norm   :     0.3873144 α      lambda       -0.8598016E-03
   maximum displ.:     0.2422207 α      in ANC's #3, #1, #6, ...

........................................................................
.............................. CYCLE    8 ..............................
........................................................................

 iter      E             dE          RMSdq      gap      omega  full diag
   1    -42.6709048 -0.426709E+02  0.101E-01    2.21       0.0  T
   2    -42.6709058 -0.105217E-05  0.609E-02    2.18       1.0  T
   3    -42.6708400  0.658001E-04  0.512E-02    2.24       1.0  T
   4    -42.6709222 -0.821956E-04  0.508E-03    2.19       3.9  T
   5    -42.6709225 -0.251803E-06  0.250E-03    2.19       8.0  T
   6    -42.6709225 -0.216643E-07  0.148E-03    2.19      13.5  T
   7    -42.6709225 -0.225489E-07  0.319E-04    2.19      62.6  T
   8    -42.6709225 -0.910944E-09  0.145E-04    2.19     138.3  T
     SCC iter.                  ...        0 min,  0.011 sec
     gradient                   ...        0 min,  0.013 sec
 * total energy  :   -42.1672308 Eh     change       -0.4774610E-03 Eh
   gradient norm :     0.0167981 Eh/α   predicted    -0.4943919E-03 (   3.55%)
   displ. norm   :     0.2028311 α      lambda       -0.6920048E-03
   maximum displ.:     0.1290647 α      in ANC's #1, #4, #12, ...

........................................................................
.............................. CYCLE    9 ..............................
........................................................................

 iter      E             dE          RMSdq      gap      omega  full diag
   1    -42.6725363 -0.426725E+02  0.809E-02    2.20       0.0  T
   2    -42.6725463 -0.998636E-05  0.479E-02    2.19       1.0  T
   3    -42.6725318  0.144603E-04  0.278E-02    2.21       1.0  T
   4    -42.6725464 -0.145331E-04  0.966E-03    2.19       2.1  T
   5    -42.6725499 -0.348591E-05  0.252E-03    2.19       7.9  T
   6    -42.6725499 -0.717385E-07  0.133E-03    2.19      15.0  T
   7    -42.6725499 -0.183568E-07  0.622E-04    2.19      32.2  T
   8    -42.6725499 -0.175057E-08  0.145E-04    2.19     138.2  T
     SCC iter.                  ...        0 min,  0.011 sec
     gradient                   ...        0 min,  0.013 sec
 * total energy  :   -42.1676389 Eh     change       -0.4080595E-03 Eh
   gradient norm :     0.0161328 Eh/α   predicted    -0.3602437E-03 ( -11.72%)
   displ. norm   :     0.2343755 α      lambda       -0.6256034E-03
   maximum displ.:     0.1691297 α      in ANC's #1, #4, #6, ...

........................................................................
.............................. CYCLE   10 ..............................
........................................................................

 iter      E             dE          RMSdq      gap      omega  full diag
   1    -42.6719281 -0.426719E+02  0.835E-02    2.20       0.0  T
   2    -42.6719396 -0.115384E-04  0.481E-02    2.20       1.0  T
   3    -42.6719388  0.774099E-06  0.164E-02    2.20       1.2  T
   4    -42.6719407 -0.192011E-05  0.402E-03    2.19       5.0  T
   5    -42.6719411 -0.322854E-06  0.230E-03    2.20       8.7  T
   6    -42.6719412 -0.114759E-06  0.965E-04    2.20      20.7  T
   7    -42.6719412 -0.618965E-08  0.374E-04    2.20      53.4  T
     SCC iter.                  ...        0 min,  0.010 sec
     gradient                   ...        0 min,  0.013 sec
 * total energy  :   -42.1680128 Eh     change       -0.3738765E-03 Eh
   gradient norm :     0.0079249 Eh/α   predicted    -0.3299895E-03 ( -11.74%)
   displ. norm   :     0.2725657 α      lambda       -0.4334605E-03
   maximum displ.:     0.1861731 α      in ANC's #1, #3, #6, ...

   *** GEOMETRY OPTIMIZATION CONVERGED AFTER 10 ITERATIONS ***

------------------------------------------------------------------------
 total energy gain   :        -0.0508967 Eh      -31.9382 kcal/mol
 total RMSD          :         0.6364091 a0        0.3368 Å
 total power (kW/mol):       -13.3629228 (step) -442.7694 (real)
------------------------------------------------------------------------

 ANCopt (total)                0 d,  0 h,  0 min,  0.302 sec
 optimizer setup                ...        0 min,  0.000 sec (  0.152%)
 model hessian                  ...        0 min,  0.006 sec (  1.886%)
 ANC generation                 ...        0 min,  0.001 sec (  0.257%)
 coordinate transformation      ...        0 min,  0.000 sec (  0.027%)
 single point calculation       ...        0 min,  0.291 sec ( 96.255%)
 optimization log               ...        0 min,  0.003 sec (  0.860%)
 hessian update                 ...        0 min,  0.000 sec (  0.042%)
 rational function              ...        0 min,  0.001 sec (  0.317%)

================
 final structure:
================
25
 xtb: 6.6.1 (8d0f1dd)
C            3.21093473868420        1.20598467200031       -0.06026606863328
N            2.30929084132313        0.08507374197282       -0.04084182170835
C            2.64420510976732       -1.20340077369922       -0.03329050954641
N            1.52451874690546       -1.96525571179956       -0.00000918277219
C            0.44292809869443       -1.12556855611012        0.01073283276801
C            0.93591394756429        0.16868626339698       -0.00824498242957
C            0.05250738971539        1.31700587667497        0.03052162476775
O            0.38520628694456        2.47629445375882       -0.01698087183397
N           -1.28738312952190        0.89115923842871        0.15015374176856
C           -2.31971875630001        1.95947307428690        0.20290359128336
C           -1.75187515263453       -0.35891759490492        0.15306323094011
O           -3.18326532725171        1.86864574548236       -0.85792789052479
N           -0.88694919707409       -1.38544496562900        0.06331157004894
C           -1.38268954827922       -2.74685626129443        0.03111190176253
H            3.69587993111932        1.31983857268328        0.91139448587862
H            3.97818175575696        1.06036839456823       -0.82018264964531
H            2.64135579862144        2.10943279080286       -0.27596094121165
H            3.64472912865185       -1.58959087458164       -0.05167990934101
H           -1.79164537692390        2.91114748662394        0.10598974338173
H           -3.83463511751729        1.16948796120123       -0.71662811385008
H           -2.80607737684633        1.88950880949328        1.18878967756257
H           -1.05486717529145       -3.30073455050278        0.91239495691365
H           -1.03849723115099       -3.25648763436078       -0.86990329467516
H           -2.46912039984259       -2.70661487234843        0.02379507643746
H            1.50150352898507       -2.97499674454705       -0.00107457944054

 Bond Distances (Angstroems)
 ---------------------------
C1-N2=1.4387         C1-H15=1.0919        C1-H16=1.0897        C1-H17=1.0896        N2-C1=1.4387         N2-C3=1.3313         
N2-C6=1.3763         C3-N2=1.3313         C3-N4=1.3547         C3-H18=1.0726        N4-C3=1.3547         N4-C5=1.3693         
N4-H25=1.0100        C5-N4=1.3693         C5-C6=1.3851         C5-N13=1.3561        C6-N2=1.3763         C6-C5=1.3851         
C6-C7=1.4493         C7-C6=1.4493         C7-O8=1.2070         C7-N9=1.4110         O8-C7=1.2070         N9-C7=1.4110         
N9-C10=1.4865        N9-C11=1.3336        C10-N9=1.4865        C10-O12=1.3709       C10-H19=1.0927       C10-H21=1.1015       
C11-N9=1.3336        C11-N13=1.3453       O12-C10=1.3709       O12-H20=0.9660       N13-C5=1.3561        N13-C11=1.3453       
N13-C14=1.4492       C14-N13=1.4492       C14-H22=1.0913       C14-H23=1.0909       C14-H24=1.0872       H15-C1=1.0919        
H16-C1=1.0897        H17-C1=1.0896        H18-C3=1.0726        H19-C10=1.0927       H20-O12=0.9660       H21-C10=1.1015       
H22-C14=1.0913       H23-C14=1.0909       H24-C14=1.0872       H25-N4=1.0100        
 C  H  Rav=1.0897 sigma=0.0071  Rmin=1.0726  Rmax=1.1015     9
 C  C  Rav=1.4172 sigma=0.0321  Rmin=1.3851  Rmax=1.4493     2
 N  H  Rav=1.0100 sigma=0.0000  Rmin=1.0100  Rmax=1.0100     1
 N  C  Rav=1.3866 sigma=0.0497  Rmin=1.3313  Rmax=1.4865    11
 O  H  Rav=0.9660 sigma=0.0000  Rmin=0.9660  Rmax=0.9660     1
 O  C  Rav=1.2890 sigma=0.0819  Rmin=1.2070  Rmax=1.3709     2

 selected bond angles (degree)
 --------------------
H15-C1-N2=110.34               H16-C1-N2=110.28               H16-C1-H15=108.77              H17-C1-N2=108.73               
H17-C1-H15=108.78              H17-C1-H16=109.93              C3-N2-C1=126.62                C6-N2-C1=125.34                
C6-N2-C3=108.04                N4-C3-N2=109.66                H18-C3-N2=125.66               H18-C3-N4=124.67               
C5-N4-C3=107.95                H25-N4-C3=125.52               H25-N4-C5=126.52               C6-C5-N4=106.96                
N13-C5-N4=131.10               N13-C5-C6=121.91               C5-C6-N2=107.38                C7-C6-N2=131.07                
C7-C6-C5=121.54                O8-C7-C6=126.29                N9-C7-C6=110.00                N9-C7-O8=123.71                
C10-N9-C7=116.46               C11-N9-C7=127.87               C11-N9-C10=115.58              O12-C10-N9=111.25              
H19-C10-N9=106.69              H19-C10-O12=107.07             H21-C10-N9=107.02              H21-C10-O12=114.22             
H21-C10-H19=110.37             

 selected dihedral angles (degree)
 ---------------------------------
C3-N2-C1-H15=287.25           C3-N2-C1-H16= 47.44           C3-N2-C1-H17=168.03           C6-N2-C1-H15=106.30           
C6-N2-C1-H16=226.49           C6-N2-C1-H17=347.09           N4-C3-N2-C1=179.34            N4-C3-N2-C6=  0.15            
H18-C3-N2-C1=359.28           H18-C3-N2-C6=180.09           C5-N4-C3-N2=  0.14            C5-N4-C3-H18=180.20           
H25-N4-C3-N2=179.08           H25-N4-C3-H18=359.14          C6-C5-N4-C3=359.62            C6-C5-N4-H25=180.70           
N13-C5-N4-C3=181.22           N13-C5-N4-H25=  2.30          C5-C6-N2-C1=180.41            C5-C6-N2-C3=359.61            
C7-C6-N2-C1=359.16            C7-C6-N2-C3=178.37            N2-C6-C5-N4=  0.47            N2-C6-C5-N13=179.05           
C7-C6-C5-N4=181.57            C7-C6-C5-N13=  0.15           O8-C7-C6-N2=  3.46            O8-C7-C6-C5=182.07            
N9-C7-C6-N2=184.15            N9-C7-C6-C5=  2.76            C10-N9-C7-C6=180.01           C10-N9-C7-O8=  0.68           
C11-N9-C7-C6=356.23           C11-N9-C7-O8=176.90           O12-C10-N9-C7=117.95          O12-C10-N9-C11=301.26         
H19-C10-N9-C7=  1.51          H19-C10-N9-C11=184.82         H21-C10-N9-C7=243.36          H21-C10-N9-C11= 66.66         
           -------------------------------------------------
          |                Final Singlepoint                |
           -------------------------------------------------

          ...................................................
          :                      SETUP                      :
          :.................................................:
          :  # basis functions                  67          :
          :  # atomic orbitals                  67          :
          :  # shells                           39          :
          :  # electrons                        74          :
          :  max. iterations                   250          :
          :  Hamiltonian                  GFN2-xTB          :
          :  restarted?                      false          :
          :  GBSA solvation                  false          :
          :  PC potential                    false          :
          :  electronic temp.         5000.0000000     K    :
          :  accuracy                    1.0000000          :
          :  -> integral cutoff          0.2500000E+02      :
          :  -> integral neglect         0.1000000E-07      :
          :  -> SCF convergence          0.1000000E-05 Eh   :
          :  -> wf. convergence          0.1000000E-03 e    :
          :  Broyden damping             0.4000000          :
          ...................................................

 iter      E             dE          RMSdq      gap      omega  full diag
   1    -42.6719412 -0.426719E+02  0.188E-04    2.20       0.0  T
   2    -42.6719412 -0.214087E-09  0.129E-04    2.20     155.3  T
   3    -42.6719412 -0.300403E-09  0.655E-05    2.20     305.5  T

   *** convergence criteria satisfied after 3 iterations ***

         #    Occupation            Energy/Eh            Energy/eV
      -------------------------------------------------------------
         1        2.0000           -0.9089896             -24.7349
       ...           ...                  ...                  ...
        31        1.9997           -0.6154585             -16.7475
        32        1.9996           -0.6084786             -16.5575
        33        1.9974           -0.5792153             -15.7613
        34        1.9944           -0.5671917             -15.4341
        35        1.9892           -0.5566543             -15.1473
        36        1.9867           -0.5533116             -15.0564
        37        1.8534           -0.5142439             -13.9933 (HOMO)
        38        0.1430           -0.4334780             -11.7955 (LUMO)
        39        0.0299           -0.4077454             -11.0953
        40        0.0072           -0.3849266             -10.4744
        41        0.0000           -0.2857538              -7.7758
        42                         -0.1979209              -5.3857
       ...                                ...                  ...
        67                          0.5400228              14.6948
      -------------------------------------------------------------
                  HL-Gap            0.0807659 Eh            2.1978 eV
             Fermi-level           -0.4740737 Eh          -12.9002 eV

 SCC (total)                   0 d,  0 h,  0 min,  0.023 sec
 SCC setup                      ...        0 min,  0.000 sec (  0.845%)
 Dispersion                     ...        0 min,  0.000 sec (  0.768%)
 classical contributions        ...        0 min,  0.000 sec (  0.314%)
 integral evaluation            ...        0 min,  0.005 sec ( 19.697%)
 iterations                     ...        0 min,  0.005 sec ( 20.172%)
 molecular gradient             ...        0 min,  0.013 sec ( 57.678%)
 printout                       ...        0 min,  0.000 sec (  0.479%)

         :::::::::::::::::::::::::::::::::::::::::::::::::::::
         ::                     SUMMARY                     ::
         :::::::::::::::::::::::::::::::::::::::::::::::::::::
         :: total energy             -42.168012754458 Eh    ::
         :: gradient norm              0.007926491390 Eh/a0 ::
         :: HOMO-LUMO gap              2.197752091197 eV    ::
         ::.................................................::
         :: SCC energy               -42.671941188010 Eh    ::
         :: -> isotropic ES            0.128748061155 Eh    ::
         :: -> anisotropic ES         -0.006251526478 Eh    ::
         :: -> anisotropic XC          0.011895183357 Eh    ::
         :: -> dispersion             -0.022281426536 Eh    ::
         :: repulsion energy           0.503826671357 Eh    ::
         :: add. restraining           0.000000000000 Eh    ::
         :: total charge               1.000000000000 e     ::
         :::::::::::::::::::::::::::::::::::::::::::::::::::::

           -------------------------------------------------
          |                Property Printout                |
           -------------------------------------------------

    * Orbital Energies and Occupations

         #    Occupation            Energy/Eh            Energy/eV
      -------------------------------------------------------------
         1        2.0000           -0.9089896             -24.7349
       ...           ...                  ...                  ...
        25        2.0000           -0.6736175             -18.3301
        26        2.0000           -0.6540336             -17.7972
        27        2.0000           -0.6462812             -17.5862
        28        1.9999           -0.6318657             -17.1939
        29        1.9999           -0.6281547             -17.0930
        30        1.9999           -0.6257126             -17.0265
        31        1.9997           -0.6154585             -16.7475
        32        1.9996           -0.6084786             -16.5575
        33        1.9974           -0.5792153             -15.7613
        34        1.9944           -0.5671917             -15.4341
        35        1.9892           -0.5566543             -15.1473
        36        1.9867           -0.5533116             -15.0564
        37        1.8534           -0.5142439             -13.9933 (HOMO)
        38        0.1430           -0.4334780             -11.7955 (LUMO)
        39        0.0299           -0.4077454             -11.0953
        40        0.0072           -0.3849266             -10.4744
        41        0.0000           -0.2857538              -7.7758
        42                         -0.1979209              -5.3857
        43                         -0.1895335              -5.1575
        44                         -0.1362069              -3.7064
        45                         -0.1317250              -3.5844
        46                         -0.0713417              -1.9413
        47                         -0.0435635              -1.1854
        48                         -0.0295348              -0.8037
       ...                                ...                  ...
        67                          0.5400228              14.6948
      -------------------------------------------------------------
                  HL-Gap            0.0807659 Eh            2.1978 eV
             Fermi-level           -0.4740737 Eh          -12.9002 eV

     #   Z          covCN         q      C6AA      α(0)
     1   6 C        3.691    -0.091    22.425     6.777
     2   7 N        2.831     0.074    19.955     6.635
     3   6 C        3.042     0.051    26.811     8.493
     4   7 N        2.791    -0.065    22.506     7.046
     5   6 C        3.052     0.105    25.624     8.302
     6   6 C        3.113    -0.007    28.047     8.675
     7   6 C        2.763     0.266    22.508     7.769
     8   8 O        0.857    -0.368    21.054     6.152
     9   7 N        2.748    -0.043    22.068     6.977
    10   6 C        3.631     0.129    18.847     6.250
    11   6 C        1.899    -0.080    33.313     9.322
    12   8 O        1.658    -0.388    20.609     6.128
    13   7 N        2.744     0.028    20.759     6.767
    14   6 C        3.703    -0.078    22.152     6.729
    15   1 H        0.924     0.107     1.724     2.053
    16   1 H        0.925     0.103     1.756     2.072
    17   1 H        0.925     0.134     1.503     1.917
    18   1 H        0.926     0.122     1.600     1.978
    19   1 H        0.924     0.112     1.681     2.027
    20   1 H        0.805     0.322     0.660     1.276
    21   1 H        0.923     0.064     2.154     2.295
    22   1 H        0.924     0.081     1.972     2.196
    23   1 H        0.924     0.080     1.977     2.199
    24   1 H        0.925     0.116     1.647     2.007
    25   1 H        0.860     0.226     0.982     1.552

 Mol. C6AA /au·bohr⁶  :       6567.622197
 Mol. C8AA /au·bohr⁸  :     151399.184782
 Mol. α(0) /au        :        123.594120


Wiberg/Mayer (AO) data.
largest (>0.10) Wiberg bond orders for each atom

 ---------------------------------------------------------------------------
     #   Z sym  total        # sym  WBO       # sym  WBO       # sym  WBO
 ---------------------------------------------------------------------------
     1   6 C    3.917 --     2 N    0.986    16 H    0.965    17 H    0.962
                            15 H    0.956
     2   7 N    3.660 --     3 C    1.378     6 C    1.158     1 C    0.986
     3   6 C    3.826 --     2 N    1.378     4 N    1.271    18 H    0.953
     4   7 N    3.571 --     3 C    1.271     5 C    1.182    25 H    0.921
     5   6 C    3.935 --     6 C    1.370     4 N    1.182    13 N    1.179
     6   6 C    3.919 --     5 C    1.370     2 N    1.158     7 C    1.076
     7   6 C    3.927 --     8 O    1.700     6 C    1.076     9 N    1.053
     8   8 O    2.029 --     7 C    1.700     9 N    0.129
     9   7 N    3.617 --    11 C    1.380     7 C    1.053    10 C    0.916
                             8 O    0.129
    10   6 C    3.917 --    12 O    1.058    21 H    0.954    19 H    0.952
                             9 N    0.916
    11   6 C    2.864 --     9 N    1.380    13 N    1.280
    12   8 O    2.019 --    10 C    1.058    20 H    0.879
    13   7 N    3.634 --    11 C    1.280     5 C    1.179    14 C    0.982
    14   6 C    3.938 --    13 N    0.982    24 H    0.972    23 H    0.972
                            22 H    0.971
    15   1 H    0.984 --     1 C    0.956
    16   1 H    0.986 --     1 C    0.965
    17   1 H    0.982 --     1 C    0.962
    18   1 H    0.984 --     3 C    0.953
    19   1 H    0.985 --    10 C    0.952
    20   1 H    0.896 --    12 O    0.879
    21   1 H    0.990 --    10 C    0.954
    22   1 H    0.991 --    14 C    0.971
    23   1 H    0.991 --    14 C    0.972
    24   1 H    0.986 --    14 C    0.972
    25   1 H    0.948 --     4 N    0.921
 ---------------------------------------------------------------------------

Topologies differ in total number of bonds
Writing topology from bond orders to xtbtopo.mol

molecular dipole:
                 x           y           z       tot (Debye)
 q only:        1.730      -2.594       0.357
   full:        2.285      -3.167       0.493      10.004
molecular quadrupole (traceless):
                xx          xy          yy          xz          yz          zz
 q only:       23.019      -1.527      -1.533      -2.888       3.029     -21.487
  q+dip:       21.414      -4.087      -1.725      -4.672       4.194     -19.689
   full:       20.476      -3.663      -2.651      -4.061       4.280     -17.825

           -------------------------------------------------
          |                Geometry Summary                 |
           -------------------------------------------------

      molecular mass/u    :      195.1988581
   center of mass at/Å    :        0.0152104       0.1201394      -0.0371325
  moments of inertia/u·Å² :        0.4847486E+03   0.8018668E+03   0.1253598E+04
rotational constants/cm⁻¹ :        0.3477603E-01   0.2102298E-01   0.1344740E-01

 * 24 selected distances

     #   Z          #   Z                                           value/Å
     1   6 C        2   7 N                                       1.4386732
     2   7 N        3   6 C                                       1.3313119
     3   6 C        4   7 N                                       1.3547061
     4   7 N        5   6 C                                       1.3693168
     2   7 N        6   6 C                                       1.3763059
     5   6 C        6   6 C                                       1.3850961
     7   6 C        8   8 O                                       1.2070192
     7   6 C        9   7 N                                       1.4110153
     9   7 N       11   6 C                                       1.3335868
    10   6 C       12   8 O                                       1.3708851
     5   6 C       13   7 N                                       1.3560510
    11   6 C       13   7 N                                       1.3453293
    13   7 N       14   6 C                                       1.4492192 (max)
     1   6 C       15   1 H                                       1.0919061
     1   6 C       16   1 H                                       1.0896539
     1   6 C       17   1 H                                       1.0895702
     3   6 C       18   1 H                                       1.0726274
    10   6 C       19   1 H                                       1.0926748
    12   8 O       20   1 H                                       0.9659555 (min)
    10   6 C       21   1 H                                       1.1015495
    14   6 C       22   1 H                                       1.0912876
    14   6 C       23   1 H                                       1.0908809
    14   6 C       24   1 H                                       1.0872006
     4   7 N       25   1 H                                       1.0100039

 * 6 distinct bonds (by element types)

   Z      Z             #   av. dist./Å        max./Å        min./Å
   1 H    6 C           9     1.0897057     1.1015495     1.0726274
   6 C    6 C           1     1.3850961     1.3850961     1.3850961
   1 H    7 N           1     1.0100039     1.0100039     1.0100039
   6 C    7 N          10     1.3765516     1.4492192     1.3313119
   1 H    8 O           1     0.9659555     0.9659555     0.9659555
   6 C    8 O           2     1.2889522     1.3708851     1.2070192


optimized geometry written to: xtbopt.xyz


           -------------------------------------------------
          | TOTAL ENERGY              -42.168012754458 Eh   |
          | GRADIENT NORM               0.007926491390 Eh/α |
          | HOMO-LUMO GAP               2.197752091197 eV   |
           -------------------------------------------------

------------------------------------------------------------------------
 * finished run on 2024/06/05 at 19:59:13.070     
------------------------------------------------------------------------
 total:
 * wall-time:     0 d,  0 h,  0 min,  0.393 sec
 *  cpu-time:     0 d,  0 h,  0 min,  0.362 sec
 * ratio c/w:     0.920 speedup
 SCF:
 * wall-time:     0 d,  0 h,  0 min,  0.025 sec
 *  cpu-time:     0 d,  0 h,  0 min,  0.025 sec
 * ratio c/w:     1.000 speedup
 ANC optimizer:
 * wall-time:     0 d,  0 h,  0 min,  0.332 sec
 *  cpu-time:     0 d,  0 h,  0 min,  0.324 sec
 * ratio c/w:     0.976 speedup

