25
 energy: 154.108367369608 xtb: 6.6.1 (8d0f1dd)
C            3.16215551209179        0.90435691860752        0.72602503167304
N            2.37952243020107       -0.15276591099238        0.12449725306553
C            2.73773902530850       -1.07542010952152       -0.80264831788164
N            1.97288206226869       -1.74364781225533       -1.55803166059980
C            0.38776029356727       -1.53112989419727        0.26281151547292
C            1.00163741330229       -0.34497174360168        0.35564195602064
C            0.40320910818272        0.48950610228668       -0.66109808198764
O            0.36980685157267        1.67474818618320       -0.48762640684504
N           -1.98396091845838        1.52250621888541       -0.74411603632802
C           -2.36045498112334        2.82039305503468       -0.55683732568105
C           -2.27087757404888        0.41863568573170       -0.49022670189472
O           -2.29177275014606       -0.72502552012464       -0.33208627132707
N           -0.47662603156404       -2.33436527903610        0.27440994100245
C           -1.37555517491466       -3.01122680510561        1.03789539836241
H            3.74410893084954        0.46894919011415        1.53919492067426
H            3.86094489947148        1.37028749251255        0.02047280285842
H            2.54038661122719        1.69640504680314        1.14733119132611
H            3.77477411051416       -1.34162449935107       -0.81441465832010
H           -1.51242374945813        3.37968038187018       -0.17395554739106
H           -2.63553460261289        3.12808082954366       -1.54892535869739
H           -3.16995913497895        2.81315107569362        0.15720246692667
H           -0.86051368294973       -3.04998029894644        1.98218862453113
H           -1.43727311464500       -3.93100659375163        0.49593082282664
H           -2.34351251348173       -2.52946970099259        1.15582346837768
H            1.11130784243750       -1.28370451133599       -1.86904180993404
