25
 energy: 0.000000000000 xtb: 6.6.1 (8d0f1dd)
C            3.23720163006194        1.16630919979326        0.08434469647475
N            2.29877817382611        0.07527477071623        0.03981603040599
C            2.58028210190900       -1.21425402444508        0.03006176031096
N            1.43813958087363       -1.93419271955128        0.00098261760884
C            0.39035688448383       -1.05887472636071       -0.00790371836672
C            0.93510056364412        0.21347819449412        0.01709077491437
C            0.09450143893243        1.40504303904423       -0.00410947031874
O            0.49712751527797        2.54126714362870       -0.00342325688240
N           -1.25076640035757        1.06271879480407       -0.03085478223738
C           -2.21907211982101        2.15522099834493       -0.05001256985998
C           -1.81739487048744       -0.20012725993278       -0.04692818574614
O           -2.99983886758376       -0.37846417018721       -0.07008878229737
N           -0.92618586207120       -1.30210215599479       -0.03682761578324
C           -1.46982264913417       -2.64643102187190       -0.06029820460571
H            3.71247264356769        1.21471455160235        1.06488849150277
H            4.00791497605742        1.03430808813993       -0.67357694370751
H            2.69910007168542        2.09770118228144       -0.09130154882931
H            3.56654120610678       -1.63682992603973        0.04233140067262
H           -1.67107961066214        3.09322851271934       -0.02552706933167
H           -2.82428953597071        2.09428624779827       -0.95318082946668
H           -2.87644029173232        2.07745725625962        0.81450067533302
H           -1.17061996399332       -3.19584890659852        0.83242232437030
H           -1.14560257411436       -3.17511610292205       -0.95688275822323
H           -2.55549792440841       -2.55659984320617       -0.07459039797972
H            1.38130855184625       -2.94313852034425       -0.01389874181052
25
 energy: -5.396879280774 xtb: 6.6.1 (8d0f1dd)
C            3.24409672642706        1.17793046156786        0.08675579936336
N            2.30835281222185        0.09582945587345        0.03773517840348
C            2.60003236418640       -1.23226232365446        0.03007581043118
N            1.42801741642943       -1.94008376652557        0.00083622171773
C            0.39670585658586       -1.05624524438436       -0.00826215145020
C            0.93047581551205        0.22260006447003        0.01525900131023
C            0.10190472020251        1.39601367767737       -0.00525511748183
O            0.49843551836086        2.56191730362690       -0.00463311965041
N           -1.26005029075073        1.05048384254163       -0.03110937309673
C           -2.22035579889980        2.14652220341747       -0.04985627897740
C           -1.82325665153134       -0.20083944249502       -0.04730784572513
O           -3.01988607218351       -0.38323887909966       -0.07041577075035
N           -0.93396828464843       -1.30115903402154       -0.03705351887884
C           -1.47297697888592       -2.64294159797078       -0.06023746855658
H            3.72242988092494        1.22386673144406        1.06877212827544
H            4.01214577934203        1.04330720973833       -0.67630188539008
H            2.69726156247937        2.10255229495892       -0.08869359978212
H            3.57832240620868       -1.65840392380918        0.04272778310572
H           -1.65887060427250        3.07783277160772       -0.02537153202959
H           -2.82573416809760        2.09298287396815       -0.95426095804299
H           -2.87790766070634        2.07636015469657        0.81601980663382
H           -1.17052959099088       -3.19464018758772        0.83187517811486
H           -1.14547724002135       -3.17409906226638       -0.95607804746948
H           -2.55821121933864       -2.55146237093396       -0.07460615163107
H            1.36125836938222       -2.94379461066780       -0.01358019229574
25
 energy: -6.559779098285 xtb: 6.6.1 (8d0f1dd)
C            3.25049905749862        1.18473876192782        0.08896094978359
N            2.31467949126792        0.10736041686190        0.03419993414271
C            2.61003865099781       -1.24448311079973        0.03034385924103
N            1.41734101123864       -1.93865449072927        0.00121355703633
C            0.40049888269747       -1.05273102063313       -0.00884021087034
C            0.92703853342343        0.22994958257186        0.01271925181352
C            0.10819730700636        1.38425231743988       -0.00718235053458
O            0.48756248631988        2.56464056543356       -0.00720922063983
N           -1.26938857491102        1.03983726873805       -0.03165407432697
C           -2.22046070526427        2.13975430039998       -0.04966915328143
C           -1.82461036431040       -0.20232393167392       -0.04767619001093
O           -3.02511194658002       -0.39045392260655       -0.07053341703322
N           -0.93914126633963       -1.29867614176728       -0.03726326870786
C           -1.47474505620144       -2.63874109479875       -0.06008930732174
H            3.73553727343260        1.23347024044200        1.06956802438432
H            4.01799515847030        1.05812588808527       -0.67791341103870
H            2.69892217212690        2.10745851577003       -0.08210076089624
H            3.58197785505917       -1.67561974416215        0.04342636459699
H           -1.64332241844922        3.06225136761558       -0.02522666550156
H           -2.82686855827291        2.09311487893108       -0.95428259168026
H           -2.87848997050401        2.07666408792032        0.81689773036247
H           -1.17192618809739       -3.19289923054964        0.83153233570595
H           -1.14671124651447       -3.17272612937723       -0.95523788760984
H           -2.55987083788358       -2.54496147822262       -0.07460293786605
H            1.34257392172543       -2.94031929464502       -0.01234666360005
25
 energy: -6.666071797631 xtb: 6.6.1 (8d0f1dd)
C            3.25300289321381        1.18630097071842        0.08997647764606
N            2.31733387751949        0.10834969324812        0.03134982481068
C            2.61097403076008       -1.24897114415152        0.03056908000074
N            1.41401664977804       -1.93692662628870        0.00191985507794
C            0.40148020374093       -1.05195417374565       -0.00929080224604
C            0.92713220856254        0.23219303112373        0.01086202464058
C            0.11037234631869        1.38156022051390       -0.00902643179044
O            0.47757610103109        2.56458045984801       -0.00980509061171
N           -1.27390248075354        1.03682558148222       -0.03236450792415
C           -2.22035251208855        2.13830945711306       -0.04963293531756
C           -1.82470716721244       -0.20420255046297       -0.04800325007941
O           -3.02466834933706       -0.39662665931592       -0.07060007468353
N           -0.93947840440718       -1.29792438190889       -0.03734820251411
C           -1.47470269185580       -2.63740298473500       -0.05984565195157
H            3.74276112117224        1.23520629414167        1.06871053906725
H            4.02013174658603        1.06888953884724       -0.67923786215847
H            2.70048281753177        2.11022682688374       -0.07502530174994
H            3.58090804254317       -1.68372690116027        0.04381980726336
H           -1.63544397741004        3.05579078292407       -0.02534495155800
H           -2.82750858372575        2.09467993499618       -0.95386025819054
H           -2.87811274198156        2.07820340364335        0.81731629350386
H           -1.17329573804491       -3.19195984201697        0.83202157579971
H           -1.14782601386008       -3.17223357752502       -0.95494074782451
H           -2.55988927352006       -2.54138762305590       -0.07451870696545
H            1.33593056337529       -2.93877112894488       -0.01066680609748
25
 energy: -6.704464468548 xtb: 6.6.1 (8d0f1dd)
C            3.25470623639890        1.18691987745148        0.09127641391816
N            2.32023798746869        0.10711010647256        0.02731328822114
C            2.61044864880364       -1.25214333548213        0.03077684518746
N            1.41264789271337       -1.93518646369397        0.00313297152168
C            0.40196832084736       -1.05153301699538       -0.00997732134693
C            0.92848327473293        0.23371114718257        0.00813155490520
C            0.11259420484337        1.38124058036427       -0.01203461917347
O            0.46708389574486        2.56530943757959       -0.01384848881426
N           -1.27756142612339        1.03489746120063       -0.03368626938550
C           -2.22011531466371        2.13785418434883       -0.04970360601546
C           -1.82501513873701       -0.20646026289823       -0.04859835264969
O           -3.02391847883089       -0.40325456707396       -0.07067143690770
N           -0.93864312284058       -1.29763732018355       -0.03744201867933
C           -1.47415373968151       -2.63686764379017       -0.05933719512974
H            3.75018003172023        1.23185018020393        1.06754502846353
H            4.01994330720098        1.08184623075590       -0.68205499337267
H            2.70053001151504        2.11232311272698       -0.06353127924439
H            3.57875646441296       -1.69097819975858        0.04408767317782
H           -1.62899599745935        3.05106682902911       -0.02581687285638
H           -2.82852293228301        2.09746403490785       -0.95316111721562
H           -2.87714611315414        2.08078665034855        0.81793230338311
H           -1.17471686694068       -3.19119876550201        0.83311454393588
H           -1.14878002763100       -3.17232317142281       -0.95439714540256
H           -2.55940650270414       -2.53834322587958       -0.07430130888512
H            1.33161005258329       -2.93742525771982       -0.00771470148787
25
 energy: -6.713769418112 xtb: 6.6.1 (8d0f1dd)
C            3.25516636180469        1.18695592284054        0.09294950601507
N            2.32254917953777        0.10536998464680        0.02274947201823
C            2.60959973576324       -1.25333356226649        0.03076149113429
N            1.41280794648224       -1.93405641831019        0.00453192395997
C            0.40191265293871       -1.05112917004146       -0.01087768223821
C            0.93001412065825        0.23456736649554        0.00476767711637
C            0.11476885937193        1.38215259245594       -0.01589570579635
O            0.46085524049934        2.56671392909798       -0.01886286681485
N           -1.27919939114572        1.03376946160191       -0.03555541527818
C           -2.21968533365746        2.13788641229929       -0.04993962792829
C           -1.82556838185955       -0.20793732913993       -0.04940571569522
O           -3.02373343787246       -0.40734190918991       -0.07069637993218
N           -0.93767318143008       -1.29773977127547       -0.03756031516800
C           -1.47349343316053       -2.63711935850320       -0.05855314294690
H            3.75677779583345        1.22313460076207        1.06652515072875
H            4.01655211194125        1.09443067121817       -0.68617431805650
H            2.69816283117689        2.11315483453514       -0.04873561919151
H            3.57680310606171       -1.69532254411978        0.04396827724040
H           -1.62576426244745        3.04909903064812       -0.02673136976764
H           -2.82972112679318        2.10013279051654       -0.95238891945115
H           -2.87550975465954        2.08309606156450        0.81874873780556
H           -1.17547584446697       -3.19075936542150        0.83459484959372
H           -1.14891939101364       -3.17317345020045       -0.95334286939713
H           -2.55875460187542       -2.53705209011944       -0.07391707749998
H            1.32974286624870       -2.93647008792267       -0.00392616430296
25
 energy: -6.700669622074 xtb: 6.6.1 (8d0f1dd)
C            3.25487465677430        1.18691496508168        0.09669006459376
N            2.32553779016518        0.10296584080325        0.01403586155456
C            2.60841429037380       -1.25400398775390        0.03028506505777
N            1.41342372379969       -1.93280174437376        0.00695811806812
C            0.40146323734129       -1.05035981654623       -0.01284328795156
C            0.93204443680148        0.23562760664632       -0.00211445904033
C            0.11832080798444        1.38375843995705       -0.02385735556533
O            0.45524362442423        2.56918393363947       -0.02909344465403
N           -1.28028685483006        1.03233948674912       -0.03962761372671
C           -2.21870867057215        2.13806193371318       -0.05063664449046
C           -1.82655323298624       -0.20926821890299       -0.05108938072199
O           -3.02394445995299       -0.41124883922183       -0.07061825087326
N           -0.93655870669108       -1.29812487461317       -0.03784959951341
C           -1.47247016344484       -2.63797847349851       -0.05673245177991
H            3.76891735789113        1.20253606401060        1.06469380702607
H            4.00703895235203        1.11738232012709       -0.69477310593884
H            2.69180134421600        2.11396470313325       -0.01769244576714
H            3.57415390076630       -1.70017773414489        0.04311128534257
H           -1.62256411633976        3.04775711725049       -0.02905158074642
H           -2.83204354350954        2.10373585152155       -0.95098967715242
H           -2.87164750366341        2.08599688308025        0.82044166874119
H           -1.17598948098399       -3.18997207521563        0.83773953944372
H           -1.14815762380868       -3.17541219619241       -0.95058568934330
H           -2.55769744176897       -2.53662247836041       -0.07294463067707
H            1.32760234359798       -2.93522610471752        0.00357810426166
25
 energy: -6.444387378773 xtb: 6.6.1 (8d0f1dd)
C            3.25284410531623        1.18692399114372        0.10927162048814
N            2.33235036360090        0.09750202336525       -0.01245647721624
C            2.60567352581852       -1.25502185231513        0.02804118597824
N            1.41458161643056       -1.93015777223598        0.01354932709262
C            0.40006300616372       -1.04831231891667       -0.01941332206035
C            0.93654139508415        0.23807830960040       -0.02390871898456
C            0.12754256845910        1.38752836556576       -0.04907094908519
O            0.44538928481690        2.57519966574682       -0.06138117220290
N           -1.28178865019093        1.02910185452731       -0.05290380449471
C           -2.21570619930370        2.13868200354216       -0.05323217958481
C           -1.82899003448845       -0.21139414864100       -0.05643584938118
O           -3.02477430313709       -0.41860339642932       -0.07007681959277
N           -0.93441970250192       -1.29925616155099       -0.03894771964597
C           -1.46982458670994       -2.64046376382931       -0.05054987611994
H            3.80695155240013        1.13592413978831        1.05839828733815
H            3.97420083688214        1.18766008131857       -0.72099298797283
H            2.67178693384666        2.11603128014306        0.08197239242653
H            3.56783724196222       -1.71119770131705        0.03936132046792
H           -1.61519625154728        3.04562605748849       -0.03724758874499
H           -2.83946970710353        2.11208567259665       -0.94677288366792
H           -2.85886045177979        2.09244206748617        0.82569547948525
H           -1.17653928233486       -3.18690765417264        0.84807473759571
H           -1.14477921958066       -3.18276082085595       -0.94087227945183
H           -2.55495343703890       -2.53733524705461       -0.06942189740697
H            1.32175406287189       -2.93234607282198        0.02635407088789
25
 energy: -5.703255486334 xtb: 6.6.1 (8d0f1dd)
C            3.24912072085796        1.18653474939162        0.12619882464532
N            2.33821745210687        0.09275316655967       -0.04483263368604
C            2.60299079058384       -1.25488766770874        0.02500000231265
N            1.41547630876137       -1.92790670911710        0.02041342037248
C            0.39834390756409       -1.04614599707338       -0.02866029598192
C            0.94042850913708        0.24016169653371       -0.05218423729342
C            0.13664092027896        1.39128937120528       -0.08129292934344
O            0.43993912438003        2.58075493487796       -0.10218387807734
N           -1.28200150985213        1.02658343963376       -0.07014193626431
C           -2.21228140816693        2.13969620495592       -0.05630330609865
C           -1.83139748898482       -0.21224758238308       -0.06327391785291
O           -3.02588900142880       -0.42333761493076       -0.06875220028844
N           -0.93289963481558       -1.30048003039693       -0.04093773762425
C           -1.46696029520616       -2.64325291371286       -0.04247402249486
H            3.85213317589753        1.05388904598531        1.04778603913368
H            3.93055559448994        1.27224599340738       -0.74708320305615
H            2.65052231737716        2.11482529992214        0.20526644138505
H            3.56182168282930       -1.72024742152627        0.03345150590820
H           -1.60896793962383        3.04508176476510       -0.04805811576017
H           -2.84967778177437        2.11985615813766       -0.94062130763131
H           -2.84195666719452        2.09784514119333        0.83304652863546
H           -1.17610574009520       -3.18211582875538        0.86144359274606
H           -1.13968193408418       -3.19221188208204       -0.92776195531303
H           -2.55200314524718       -2.54016934442143       -0.06456123581375
H            1.31584671014562       -2.92948537228877        0.05355045358836
25
 energy: -5.840727732133 xtb: 6.6.1 (8d0f1dd)
C            3.24560543732953        1.18541148479036        0.13456028479546
N            2.33663500124766        0.09374633475253       -0.05666668719607
C            2.60276199540393       -1.25183680860460        0.02438637609501
N            1.41563452546335       -1.92852392387539        0.02118611479204
C            0.39744461488896       -1.04566838036770       -0.03423683293117
C            0.93955916334281        0.23950394069140       -0.06557935921660
C            0.13672714152350        1.39198166493210       -0.09549731188581
O            0.44874165486815        2.58062765416176       -0.11916418050854
N           -1.27903527787727        1.02793395461720       -0.07783919918102
C           -2.21137899949892        2.14054117186656       -0.05637668870695
C           -1.83163719797422       -0.20978082575970       -0.06620771766811
O           -3.02671327141527       -0.41800795176655       -0.06698213253010
N           -0.93386049388317       -1.30081866459413       -0.04299183857679
C           -1.46631458635878       -2.64422434862453       -0.03919781364988
H            3.86210915005496        1.02614055309244        1.04034587871331
H            3.91135065258637        1.29661418507977       -0.74375559363216
H            2.64834916605008        2.10676877360623        0.24608063614462
H            3.56207110940760       -1.71590389920734        0.02934498691840
H           -1.61204375846006        3.04888641291436       -0.05221960341673
H           -2.85544422052238        2.11940243656214       -0.93573597412067
H           -2.83346147555011        2.09582164817730        0.83827144594519
H           -1.17386521232372       -3.17912796603982        0.86686163452333
H           -1.13609674753606       -3.19645776420748       -0.92163520118530
H           -2.55135093825173       -2.54474688320930       -0.06228513186270
H            1.31642723542082       -2.92925419681551        0.06236780448851
25
 energy: -5.833211475392 xtb: 6.6.1 (8d0f1dd)
C            3.23384574988971        1.18048486986360        0.17386591543402
N            2.32873320326475        0.10236311237057       -0.11146355323034
C            2.60440156590216       -1.24386602146068        0.02557222794171
N            1.41151854232945       -1.93121959292073        0.02125892768333
C            0.39665622994143       -1.04481178913810       -0.06330314243468
C            0.93333646063907        0.23603170839976       -0.12905863073727
C            0.13012432992801        1.38886579807872       -0.16171011391892
O            0.48046530025908        2.57446237886288       -0.19853519515538
N           -1.26932835959363        1.03377994495417       -0.11475023419559
C           -2.20756389783861        2.14367760586456       -0.05666852385427
C           -1.82954413114435       -0.19973171931230       -0.07971937050319
O           -3.02739303261520       -0.39673692145529       -0.05701366246187
N           -0.93892347684547       -1.30009560249296       -0.05556670707667
C           -1.46419734222031       -2.64428642817637       -0.02336410425666
H            3.90486589140948        0.90908274821188        1.00369606047312
H            3.83293238555906        1.41525256541606       -0.71945772260976
H            2.64375638936448        2.06708375883695        0.43603145212252
H            3.56628530610850       -1.69980747745418        0.00571253429549
H           -1.61745020012940        3.05973085601626       -0.07398882376197
H           -2.88600929809219        2.11467820816160       -0.91012257881077
H           -2.79234084450205        2.08644149033583        0.86358309755665
H           -1.16516687848923       -3.15906378558487        0.89407038488627
H           -1.12207049494922       -3.21464299671419       -0.89130568466729
H           -2.54951692433278       -2.56017657179049       -0.05042874996983
H            1.31479819409313       -2.92846753670051        0.09970009339863
25
 energy: -3.263722796560 xtb: 6.6.1 (8d0f1dd)
C            3.21980130454845        1.17316212208110        0.22776016175369
N            2.32304118057005        0.11093918484803       -0.18360381204768
C            2.60591439930892       -1.23708247424995        0.03098138374686
N            1.40635470805310       -1.93250863522538        0.02026715370573
C            0.39754626552855       -1.04431924101743       -0.10331368083221
C            0.92864541323502        0.23158924362786       -0.21278500899731
C            0.12095303752225        1.38408657580096       -0.25220064353925
O            0.50494167369484        2.56478437260912       -0.30642919330630
N           -1.26084852997811        1.04024620741702       -0.16572464785274
C           -2.20207382584530        2.14791098349327       -0.05863831717361
C           -1.82571268363425       -0.19108837406916       -0.09809449657855
O           -3.02562664036596       -0.37812688720721       -0.04287655885684
N           -0.94253437990053       -1.29763943923255       -0.07514720430482
C           -1.46051335449284       -2.64211292458664       -0.00089051810889
H            3.96822031790804        0.75051534437600        0.95165208106116
H            3.72956568062046        1.58898713112717       -0.68690270021087
H            2.63501411667622        2.01084189667238        0.70357794193016
H            3.56978924523154       -1.68619784040474       -0.03550783958914
H           -1.61800973583284        3.06835538102957       -0.10701193145831
H           -2.92821803743877        2.11089766340299       -0.87480552777130
H           -2.73570036774392        2.08070431046121        0.89541877123573
H           -1.15685203919573       -3.12736715254046        0.93361224270013
H           -1.10684349783308       -3.23872497966486       -0.84850450674090
H           -2.54621159231552       -2.57318176570893       -0.03302210453653
H            1.31157200961512       -2.92564210086719        0.14922285191906
25
 energy: -1.372985615451 xtb: 6.6.1 (8d0f1dd)
C            3.21746232141246        1.16230640989364        0.26293319966544
N            2.31025212258706        0.13502429266882       -0.20198835004363
C            2.61667297295616       -1.24390224031283        0.06656555883930
N            1.39049539676836       -1.93411666183622       -0.00227324213921
C            0.41264897230730       -1.05247077435213       -0.14089178713238
C            0.91781976364968        0.21931164122639       -0.25739217739382
C            0.07236476590435        1.35817535640659       -0.30202383279122
O            0.50182261538727        2.52502649685319       -0.35952159670517
N           -1.26249392844312        1.05407729262435       -0.19895471463239
C           -2.20145635395065        2.15178870782585       -0.05852784918601
C           -1.80615711970691       -0.18934724485437       -0.10630640431026
O           -3.00861714718073       -0.36487760690345       -0.02366361471748
N           -0.94494908345735       -1.28409457076434       -0.10732302744128
C           -1.46033025671696       -2.62125690704082        0.01340192467027
H            3.96160045165965        0.73336778375021        0.88168858758137
H            3.69592102938168        1.67225535951909       -0.57146857872497
H            2.67387750790142        1.91705061696028        0.81725289477342
H            3.58852295420148       -1.66633970290741       -0.10817670182405
H           -1.60894487773866        3.06137918718086       -0.13724325938957
H           -2.96515646281725        2.08986820481706       -0.83655121791240
H           -2.69358138665500        2.07509145031230        0.91379195250097
H           -1.15568589748168       -3.07800026748787        0.96340914915027
H           -1.10730387930208       -3.24496649100945       -0.81448632726158
H           -2.54730936254030       -2.56193850596367       -0.01731567715088
H            1.31473954980947       -2.92438322443382        0.15209898772252
25
 energy: -1.969206427615 xtb: 6.6.1 (8d0f1dd)
C            3.20579332290053        1.16229854021995        0.29109008554942
N            2.31593753166849        0.13138535002828       -0.22176999930910
C            2.61325016997347       -1.23622030813526        0.06535050845678
N            1.39643535130186       -1.93234273015116        0.00208723448983
C            0.40923423628718       -1.04922623861364       -0.15491176647625
C            0.92335401708576        0.22225889624352       -0.28713142746605
C            0.08646228912903        1.36524548803551       -0.34559723911308
O            0.50244214466416        2.53321034722402       -0.41519948794298
N           -1.26145091241048        1.05101387209647       -0.21962967061574
C           -2.19863030181080        2.15189752368129       -0.06012633020413
C           -1.81117531421952       -0.19077108385428       -0.11491035577526
O           -3.01219358881920       -0.36704299585126       -0.01745392982127
N           -0.94320224088804       -1.28557960068828       -0.11672189587871
C           -1.45734047690661       -2.62441538653798        0.02274689954867
H            4.00890967858179        0.65447999071213        0.86712410032931
H            3.64045282335657        1.74096524359704       -0.56169757000058
H            2.65747517508515        1.89675281237774        0.93493837258716
H            3.57899951606575       -1.66563994435809       -0.13979216652056
H           -1.61193482534482        3.06541870756973       -0.15272665605864
H           -2.98049890202180        2.09450931182746       -0.82300232863984
H           -2.66914869449119        2.08026079147035        0.92659522600325
H           -1.15269399937744       -3.06546181849997        0.98064078168521
H           -1.10077256511973       -3.25816812491657       -0.79631910775859
H           -2.54392734276418       -2.56540580632740       -0.01075845460436
H            1.31643757600965       -2.92039423497735        0.17420907368277
25
 energy: -4.407848065940 xtb: 6.6.1 (8d0f1dd)
C            3.19885909049697        1.16566843038003        0.29721541069163
N            2.33328586481604        0.11522819844509       -0.18062057267661
C            2.60578802827304       -1.23023034992819        0.05939378357194
N            1.41214973145442       -1.92848153302734        0.00693279096735
C            0.40309519207657       -1.04438443399498       -0.14609960527764
C            0.94017048141716        0.23127878756507       -0.26134054758418
C            0.12277050004865        1.38288998519241       -0.34331380050804
O            0.48047874945591        2.55702648244230       -0.42787969368993
N           -1.26622370430064        1.03994581603154       -0.21048924793617
C           -2.19655971416062        2.14840515036426       -0.05945425402700
C           -1.82220056336388       -0.20205636819389       -0.11359446671804
O           -3.01821052741854       -0.38771124891211       -0.01606232707065
N           -0.93553309097917       -1.29020881569057       -0.12051536397769
C           -1.45411973085448       -2.63167025472201        0.01891037828581
H            4.01748858410321        0.68316500464336        0.89093520929945
H            3.63463195183084        1.69804623192282       -0.56272156078516
H            2.63520174066739        1.89690181056755        0.89711148948185
H            3.55252514837155       -1.67827498056132       -0.17368821302291
H           -1.61794001709772        3.06575154935822       -0.15050913782179
H           -2.96891312975456        2.10722874007725       -0.82574985240933
H           -2.67154362843552        2.09613734181910        0.92263727659604
H           -1.15346409954757       -3.06846528403922        0.97555110268022
H           -1.10257546414093       -3.26144104048375       -0.80068181798931
H           -2.53983926958111       -2.55943164679148       -0.01450200216979
H            1.32289254455858       -2.91628897029185        0.16556891823720
25