25
 energy: -43.834217837393 gnorm: 0.108389779130 xtb: 6.6.1 (8d0f1dd)
C            3.24047558886194        1.17015118540275        0.08181142557522
N            2.30284920042187        0.08205710822245        0.03824850146424
C            2.58828199658712       -1.22100174654561        0.02832473835748
N            1.43746822871175       -1.94046505287919        0.00115679216715
C            0.39550809737260       -1.06294493329101       -0.00464955393593
C            0.92858878156121        0.21341193956907        0.02141180349100
C            0.09336105462460        1.39602012138595        0.00159040488029
O            0.49235314433039        2.54854696373588        0.00508003137258
N           -1.26785035666709        1.04948304641424       -0.03960559816854
C           -2.23426229766564        2.16610871171985       -0.07693441090029
C           -1.82267417100137       -0.21023735735274       -0.04244945849189
O           -3.01041219051581       -0.39216263290090       -0.06067369215226
N           -0.92777239229164       -1.30893586021543       -0.03010210577300
C           -1.46486837463839       -2.65255171174974       -0.05437107541373
H            3.71790620425470        1.21684648314572        1.06260893187887
H            4.00904884658860        1.03434031661272       -0.67861151975130
H            2.69801145185888        2.09675812601996       -0.09627544726200
H            3.57311670272597       -1.64370839443263        0.03782349677677
H           -1.65911289837046        3.08089202307244        0.03353268429799
H           -2.83055085824645        2.22450070566563       -0.98238643135288
H           -2.91883576561778        2.05022020219228        0.76684641887419
H           -1.16300243011725       -3.20197714099640        0.83815420581134
H           -1.13745072584209       -3.18152647721140       -0.95049553549275
H           -2.55033088479899       -2.56662923730512       -0.06906597848024
H            1.37771877230332       -2.95070305188749       -0.01445700515393
25
 energy: -43.838192843316 gnorm: 0.039361073105 xtb: 6.6.1 (8d0f1dd)
C            3.24447086538859        1.17866098078123        0.08399712425405
N            2.30719225571758        0.09832660029785        0.03604859711473
C            2.59971734014006       -1.23458781559751        0.02867452737381
N            1.42519019344725       -1.94098893761536        0.00097159714352
C            0.39637039320952       -1.05775633248005       -0.00655451462847
C            0.92348040282871        0.22366997042132        0.01642891004364
C            0.09725254891733        1.39046874171757       -0.00726667940925
O            0.48746311179649        2.56087312398117        0.00195631345965
N           -1.27540549318131        1.04482791371778       -0.04553862720373
C           -2.22765650960795        2.15657751356516       -0.06076449625951
C           -1.82939406249871       -0.20645192213296       -0.04938077906665
O           -3.02597544176034       -0.39468685160143       -0.06258819519575
N           -0.93707479322671       -1.30386365002198       -0.03229060442222
C           -1.46781513815308       -2.64757278530656       -0.05394493217301
H            3.72546117934543        1.22572630808928        1.06514917863370
H            4.01171162666232        1.04298755080426       -0.68019075860424
H            2.69703470988921        2.10227932362205       -0.09235241084973
H            3.57760699216136       -1.66141985617753        0.03911543834678
H           -1.64537388095639        3.07026827998247        0.03930384668839
H           -2.80210994657716        2.18455703313646       -0.98566672492659
H           -2.92066619646415        2.04913833163177        0.77477497040484
H           -1.16192297083359       -3.19819298198712        0.83820204913392
H           -1.13611325018002       -3.17876793177380       -0.94883980789782
H           -2.55336919176974       -2.56222399381604       -0.06899704869490
H            1.35748998013530       -2.94535527684674       -0.01373535064677
25
 energy: -43.838979787289 gnorm: 0.018438958973 xtb: 6.6.1 (8d0f1dd)
C            3.24263369460057        1.17447892669393        0.08251752473760
N            2.30447802793338        0.10551150583385        0.03592503823562
C            2.60911841398945       -1.24088237857041        0.02988441984301
N            1.42624130585588       -1.94507648012283        0.00261912827706
C            0.40191490155073       -1.06367962745106       -0.00147611664120
C            0.91660209599246        0.22390011741557        0.02235456851046
C            0.10191815552320        1.38105757122769        0.00029627282348
O            0.48980664603043        2.55838923727496        0.00989122308878
N           -1.28313341352363        1.04863045946265       -0.05179635697049
C           -2.23185969325914        2.16460051919370       -0.06718516302716
C           -1.82389933155364       -0.20291443354325       -0.04475959775797
O           -3.02284632777407       -0.39903988576758       -0.06106056349429
N           -0.93764991102006       -1.30551391570500       -0.02710757120521
C           -1.46411117249272       -2.65044788579622       -0.05386175171468
H            3.72128396310239        1.21715732241427        1.06528785665258
H            4.01021219164501        1.02985901651180       -0.68076048813052
H            2.69749756478403        2.09785548858281       -0.09808088783611
H            3.58563760615317       -1.65348981209813        0.03541678198003
H           -1.65867052841172        3.08438661936392        0.03364455541312
H           -2.82438004802887        2.21806872641245       -0.98331176100590
H           -2.92232777842519        2.05742708784624        0.76612501905125
H           -1.15877094725711       -3.20674908018333        0.83611460360241
H           -1.13313983641913       -3.18162306377340       -0.95043956512629
H           -2.54937793409795       -2.56778609731284       -0.06872944775617
H            1.37038707953251       -2.94762660151853       -0.01499609893100
25
 energy: -43.839224357304 gnorm: 0.008656259674 xtb: 6.6.1 (8d0f1dd)
C            3.24109225791342        1.17479746444591        0.08427061476595
N            2.30254030865682        0.10435180469036        0.03345045177537
C            2.60443924206070       -1.23919390012562        0.02920393954633
N            1.42441935156466       -1.94342124172242       -0.00028524812185
C            0.40127685114357       -1.06470746513850       -0.00657630966523
C            0.91647196145674        0.22295519445606        0.01816272920000
C            0.10550688922366        1.38080724358893       -0.00355439363496
O            0.48941549412510        2.55620768230227        0.00069358356457
N           -1.27967906064286        1.04756512802372       -0.04954962070345
C           -2.22887708130590        2.15826102582990       -0.06568131255563
C           -1.81980235975490       -0.20264533416748       -0.04424127040560
O           -3.01731932376206       -0.39732999338092       -0.05876251113335
N           -0.93709754545920       -1.30534718688056       -0.03126523041589
C           -1.46891049904254       -2.64735410283968       -0.05404246103627
H            3.72104321766272        1.21993412487664        1.06592559309318
H            4.01072880548184        1.04087381234778       -0.67833599378785
H            2.69727681041674        2.10014129858088       -0.09151288247163
H            3.58041415403016       -1.64941583879766        0.03971066199911
H           -1.65150821655845        3.07482938470282        0.03583428157196
H           -2.81907635143435        2.20668904543095       -0.98353220671202
H           -2.91703191229350        2.04609534218877        0.77014143612001
H           -1.16596405264461       -3.19813357022469        0.83962634866679
H           -1.14060460654227       -3.18163894817837       -0.94931848182288
H           -2.55408199699349       -2.56036397657370       -0.06885957676654
H            1.37289238712800       -2.94746365704411       -0.01499051845170
25
 energy: -43.839193113625 gnorm: 0.007737597545 xtb: 6.6.1 (8d0f1dd)
C            3.24313440048144        1.17169031054703        0.08126787009678
N            2.30163671035372        0.10191638691894        0.03519694930293
C            2.59881041222246       -1.23954793350717        0.03090487401585
N            1.41942479809833       -1.94066394738112        0.00308872253708
C            0.39812292865466       -1.06216347671040       -0.00361466002424
C            0.91583351460677        0.22481704449601        0.02180357481673
C            0.10424893044608        1.38405599342342        0.00222406213511
O            0.48389923616643        2.55843797248048        0.00895790207293
N           -1.28189680419042        1.04906306571582       -0.04372103091391
C           -2.22962143210955        2.15941913064778       -0.06449057744918
C           -1.82247095373619       -0.20169843765822       -0.04492712813550
O           -3.01941293112396       -0.39599031773274       -0.06345083500092
N           -0.93882697197580       -1.30345406413912       -0.03027954899176
C           -1.46405786082604       -2.64835466425371       -0.05532986582503
H            3.72610328469458        1.22235506162125        1.06131627716027
H            4.01118974609277        1.03513248528303       -0.68239615608308
H            2.70161967735310        2.09854994281626       -0.09748792079720
H            3.57481049287980       -1.65294422881783        0.03736272966268
H           -1.65024646360802        3.07485519601551        0.03627399330257
H           -2.81139396403642        2.20070000889930       -0.98749054205455
H           -2.92355749151644        2.05329573558316        0.76897627538921
H           -1.15685892033192       -3.20020407296327        0.83612139962168
H           -1.13033984257374       -3.17736913921905       -0.95129863824735
H           -2.54987849615225       -2.56966339564007       -0.07053156040173
H            1.36729272456059       -2.94574132003403       -0.01196454357100
25
 energy: -43.839306041231 gnorm: 0.003325423725 xtb: 6.6.1 (8d0f1dd)
C            3.24234211862892        1.17305487064400        0.08449932795302
N            2.30386143164530        0.10178277462489        0.03486996418228
C            2.60296058988237       -1.24042012142386        0.02970664460813
N            1.42274585081524       -1.94171005770272        0.00073044828946
C            0.40029915784392       -1.06374372619508       -0.00518301748497
C            0.91727954178655        0.22393128678264        0.01857766400197
C            0.10581606668799        1.38300913870537       -0.00429312641426
O            0.48591546087748        2.55793951648069        0.00350156871713
N           -1.28209929095891        1.04878374287392       -0.04899185425956
C           -2.22987661756149        2.16067129689854       -0.06444305715776
C           -1.82228193692221       -0.20252710123413       -0.04710423316280
O           -3.01989219931487       -0.39773259340591       -0.06194415727888
N           -0.93786407061069       -1.30445827850058       -0.03055127876360
C           -1.46572993498626       -2.64872931642580       -0.05311813278094
H            3.72175971278035        1.22119540984445        1.06660469369515
H            4.01171833601485        1.03696088192652       -0.67809581051814
H            2.69799289237351        2.09862391880801       -0.09431757311031
H            3.58021030914662       -1.65324631069228        0.03618291095225
H           -1.65309066264827        3.07805499583835        0.03552563008350
H           -2.81760405931100        2.20575354862678       -0.98331513825977
H           -2.92068937453968        2.05411843081411        0.77103959474736
H           -1.16051213477293       -3.20206446151519        0.83824376928801
H           -1.13562027142465       -3.18066282580686       -0.94877153463072
H           -2.55123229304735       -2.56541861794204       -0.06745250877787
H            1.37115610204517       -2.94667306563257       -0.01538917130029
25
 energy: -43.839283305616 gnorm: 0.004087362604 xtb: 6.6.1 (8d0f1dd)
C            3.24178878035800        1.17438102726712        0.08167028018044
N            2.30426608462768        0.10273007637832        0.03481563738099
C            2.60441049742097       -1.24008583434333        0.03123243038881
N            1.42403029498380       -1.94208279646980        0.00256643355538
C            0.40114055303488       -1.06470132506238       -0.00333613085740
C            0.91727435754779        0.22363535388360        0.02136787126214
C            0.10741068257217        1.38207159783785        0.00003607277395
O            0.48772375847997        2.55739436862999        0.00686581038755
N           -1.28149035978279        1.04789847647994       -0.04765310515186
C           -2.22928651171916        2.15903053236994       -0.06649781240254
C           -1.82147246327550       -0.20286465926362       -0.04373751812495
O           -3.01930057984129       -0.39811057790587       -0.05929448936265
N           -0.93760124085682       -1.30490253921946       -0.02927093060487
C           -1.46804176932570       -2.64783006825667       -0.05531561919431
H            3.72382524575352        1.22044298596307        1.06246226554065
H            4.00893602143637        1.03824219004228       -0.68323436803444
H            2.69696531642821        2.10004975231538       -0.09478753778429
H            3.58196636068457       -1.65111200921686        0.03923066764389
H           -1.65327522722391        3.07650775955642        0.03635613922328
H           -2.81694644783780        2.20708577673278       -0.98568937587472
H           -2.92066021796567        2.04841210397989        0.76740705758133
H           -1.16577695112965       -3.20146268650868        0.83678044770462
H           -1.13822661995002       -3.17993983839778       -0.95124491511535
H           -2.55334352770036       -2.56132040196303       -0.07155704327273
H            1.37324868771072       -2.94697592843783       -0.01266064522453
25
 energy: -43.839320282644 gnorm: 0.001539807513 xtb: 6.6.1 (8d0f1dd)
C            3.24210515516538        1.17333037095993        0.08339668984550
N            2.30342191426744        0.10240558038838        0.03421516484075
C            2.60238895050584       -1.24010696724402        0.02993508906777
N            1.42224584270819       -1.94152833518319        0.00068901622964
C            0.39997284086373       -1.06392516473619       -0.00515129268025
C            0.91651707716936        0.22424918654684        0.01955277900979
C            0.10685843293457        1.38283545877881       -0.00182013665548
O            0.48642707985348        2.55799462025261        0.00472842652180
N           -1.28216421621688        1.04832896102959       -0.04817052999815
C           -2.22948178509682        2.15960635722849       -0.06574230504910
C           -1.82214221418892       -0.20242549488864       -0.04493204881062
O           -3.01977396602577       -0.39743807612575       -0.06045078955538
N           -0.93825738597637       -1.30438352219808       -0.03040498736101
C           -1.46614652273930       -2.64837948989992       -0.05410901676457
H            3.72220949940337        1.21975263171200        1.06509655793681
H            4.01122439065157        1.03700302224069       -0.67940754656248
H            2.69892077820742        2.09958938223736       -0.09432468846337
H            3.57955376381273       -1.65167453938534        0.03788227645186
H           -1.65205735155979        3.07636962218805        0.03553574217224
H           -2.81758860313414        2.20666858727450       -0.98459285718645
H           -2.91991421109217        2.05063150579864        0.76942720939364
H           -1.16066647008008       -3.19989454755981        0.83820508481088
H           -1.13545641215107       -3.18051181472529       -0.94964467358405
H           -2.55169976981757       -2.56545933984821       -0.06880313121083
H            1.37106790696576       -2.94654465845019       -0.01459840978057
25
 energy: -43.839304726771 gnorm: 0.002945439857 xtb: 6.6.1 (8d0f1dd)
C            3.24216201024003        1.17332847311699        0.08343384214861
N            2.30424109093619        0.10124885874765        0.03542631473180
C            2.60278530015637       -1.24059920262833        0.03066407545833
N            1.42312459005944       -1.94187116165933        0.00246227003556
C            0.40052317157466       -1.06448986939315       -0.00390860840108
C            0.91726131152635        0.22370688997497        0.01992461617851
C            0.10729753512298        1.38290048671230       -0.00288660655526
O            0.48614599992608        2.55773557591456        0.00424480019691
N           -1.28211439406002        1.04848654289161       -0.04795891449330
C           -2.22970348318851        2.16023007112595       -0.06387849710775
C           -1.82162925422132       -0.20268622517594       -0.04704263426561
O           -3.01900171267649       -0.39791358701495       -0.06354458971157
N           -0.93753549481397       -1.30469228759768       -0.03007108732018
C           -1.46640717851211       -2.64858739658109       -0.05402335679832
H            3.72292494645102        1.22365034923642        1.06475757351371
H            4.01086462491542        1.03756800049937       -0.67985920091042
H            2.69683548727722        2.09802421037858       -0.09582291303381
H            3.58022442078049       -1.65281334763031        0.03618692773510
H           -1.65333221767008        3.07791211924784        0.03596583277866
H           -2.81657215047214        2.20453919515781       -0.98337082363118
H           -2.92152380536531        2.05477187793487        0.77116701589116
H           -1.16273797758850       -3.20332862563829        0.83698836814171
H           -1.13647235272980       -3.17968123148445       -0.95018616441216
H           -2.55178470459850       -2.56387395066602       -0.06898518285307
H            1.37198896136047       -2.94707242907809       -0.01317143469797
25
 energy: -43.839321542100 gnorm: 0.001154204124 xtb: 6.6.1 (8d0f1dd)
C            3.24228911312767        1.17332519358052        0.08346430552342
N            2.30408661845840        0.10171815963728        0.03491716821837
C            2.60275657152695       -1.24035244596747        0.03024231776571
N            1.42296527992963       -1.94164347317337        0.00140550800133
C            0.40038170393163       -1.06425436237228       -0.00445726348666
C            0.91698590937837        0.22402942410682        0.01983383119414
C            0.10725050392418        1.38294618709019       -0.00229399032458
O            0.48609389716859        2.55796717400021        0.00487130290944
N           -1.28228015383874        1.04838694510909       -0.04804454842895
C           -2.22973189641154        2.15992870437628       -0.06501579898233
C           -1.82188721788753       -0.20259666193075       -0.04595392935833
O           -3.01937709632795       -0.39782504376947       -0.06151229226924
N           -0.93777168615471       -1.30452619973675       -0.03006744774547
C           -1.46639313492703       -2.64842853432569       -0.05387590920959
H            3.72308402696926        1.22132414909654        1.06483130919033
H            4.01080016546479        1.03743888263357       -0.68003554240345
H            2.69786423293174        2.09879502261421       -0.09452800648680
H            3.58017568096146       -1.65231550967038        0.03689510688155
H           -1.65316685509957        3.07734773635577        0.03587237795616
H           -2.81672895463688        2.20550733203643       -0.98450480318094
H           -2.92137620234690        2.05268903881989        0.76969513418878
H           -1.16216559968629       -3.20192412296291        0.83768132889394
H           -1.13622516942949       -3.18007355776999       -0.94972500806604
H           -2.55182711663873       -2.56421015002974       -0.06885013665365
H            1.37176210404268       -2.94676055135675       -0.01433339150875
25
 energy: -43.833970156545 gnorm: 0.078875983129 xtb: 6.6.1 (8d0f1dd)
C            3.24359992835797        1.17176043431779        0.07880419655001
N            2.30630024930204        0.08886883427825        0.03636314724633
C            2.59619302335367       -1.22779150902355        0.02646521858615
N            1.43666950053533       -1.94670934110048        0.00126151581921
C            0.40034335706774       -1.06717014315444       -0.00123919682732
C            0.92147517978602        0.21302230457413        0.02483913555194
C            0.09208377950519        1.38671873040329        0.00582662728835
O            0.48559364458167        2.54804045758545        0.01301201234987
N           -1.28509065210901        1.04020814514135       -0.05089767976241
C           -2.24783036637921        2.18409210507196       -0.10109825570880
C           -1.82700432879202       -0.22000019877614       -0.03682383520836
O           -3.01855249025332       -0.40593612876022       -0.05049225984393
N           -0.92913118684550       -1.31519599225390       -0.02296791334476
C           -1.45985135784903       -2.65858239938291       -0.04841566627593
H            3.72321320855429        1.21856378173994        1.06003441793459
H            4.01015628171925        1.03435829125494       -0.68362614294745
H            2.69832443230582        2.09528270712515       -0.10124176828450
H            3.57956854747191       -1.65022795885804        0.03297270419861
H           -1.64770394904287        3.07158607397268        0.09331796656697
H           -2.83339397418941        2.35485120067605       -1.01083510362180
H           -2.96055484660165        2.02161991987249        0.71937514445777
H           -1.15540692588301       -3.20809428611136        0.84392526296600
H           -1.12927813082050       -3.18786683015569       -0.94407081433327
H           -2.54517068350723       -2.57668197289678       -0.06357924691446
H            1.37945286060026       -2.95858168164815       -0.01538849469435
25
 energy: -43.836243208008 gnorm: 0.033962009335 xtb: 6.6.1 (8d0f1dd)
C            3.24491100416844        1.17829908494264        0.08082583803560
N            2.30617435415280        0.10090205706549        0.03403941330463
C            2.60058786384467       -1.23684896922149        0.02720976254221
N            1.42351082083511       -1.94277990388200        0.00113196633046
C            0.39684153647096       -1.06032309647691       -0.00509695170142
C            0.91677969729251        0.22355645692832        0.01674066160555
C            0.09363261311203        1.38525017485476       -0.01015565068215
O            0.47793453137916        2.55801284243069        0.00849286163793
N           -1.28936641781782        1.04141794689890       -0.06257274807126
C           -2.23457476675427        2.16973926233747       -0.06904095670712
C           -1.83391624535602       -0.21187419064007       -0.05177168586009
O           -3.03055581910179       -0.40567696335317       -0.05406169155785
N           -0.93927275973930       -1.30662800464599       -0.02762301667216
C           -1.46386712543206       -2.65200568952956       -0.04759664390347
H            3.72846958057940        1.22696816267173        1.06129595418354
H            4.01156899950126        1.04207135708428       -0.68416047956320
H            2.69830441663989        2.10201563789734       -0.09642019058957
H            3.57831138585014       -1.66297795593894        0.03516203957316
H           -1.63722493259774        3.06344526983008        0.10502202409516
H           -2.77661805641643        2.27628283719823       -1.01330049822511
H           -2.96298203852219        2.02336536044165        0.73179932790186
H           -1.15576689697717       -3.20208682821831        0.84461144265258
H           -1.12907298467711       -3.18376826194787       -0.94154997656222
H           -2.54964317526148       -2.57219771884194       -0.06344352607455
H            1.35983951569542       -2.94802432399350       -0.01401630394407
25
 energy: -43.837648240574 gnorm: 0.012189622592 xtb: 6.6.1 (8d0f1dd)
C            3.24438915191170        1.17448248205258        0.07996743202358
N            2.30497840988515        0.10246139729420        0.03564993296076
C            2.60750550414937       -1.24198409660790        0.02805246256457
N            1.42628580171523       -1.94655382190935        0.00289252799523
C            0.40065305856157       -1.06575638743303        0.00128158719079
C            0.91398646689039        0.22206948299547        0.02450619672800
C            0.09391866183743        1.37872417615217       -0.00201643774021
O            0.47806943904123        2.55414630194653        0.01569668316639
N           -1.29644945394508        1.04632787017259       -0.07195369811576
C           -2.23938285485870        2.17634340641487       -0.07991862952238
C           -1.83194587547620       -0.20945534865679       -0.04510987581460
O           -3.02883190564049       -0.41200309674609       -0.05096477874460
N           -0.93877953561196       -1.30781126132316       -0.02058639485948
C           -1.45956799969075       -2.65530736003583       -0.04729382696527
H            3.72799375563029        1.22161732666243        1.06066817618373
H            4.01075511077394        1.03394228844879       -0.68553249187365
H            2.69821387374784        2.09786045802657       -0.09970050760194
H            3.58535326705606       -1.65961622067206        0.03044083765794
H           -1.64612783518990        3.07130059405534        0.09642647356353
H           -2.80291074445266        2.32008919716814       -1.00604212323370
H           -2.96230876528138        2.02932709502358        0.71901549273559
H           -1.15130765698965       -3.21094409935654        0.84205836405886
H           -1.12517113339276       -3.18505331885397       -0.94360295648291
H           -2.54522849184739       -2.57754878110637       -0.06274266356606
H            1.36991485204512       -2.95052373982035       -0.01567081055997
25
 energy: -43.837655668185 gnorm: 0.008120791734 xtb: 6.6.1 (8d0f1dd)
C            3.24283775469269        1.17511739265021        0.08084506054756
N            2.30416091443163        0.10297139483038        0.03114206709186
C            2.60708008607970       -1.24131571039090        0.02695184847855
N            1.42715416060703       -1.94699209895123       -0.00145101250937
C            0.40264156001616       -1.06882024997563       -0.00499653323706
C            0.91450937836714        0.22056067428504        0.02041988443426
C            0.09934760370678        1.37693458691192       -0.00126055721158
O            0.48256436973047        2.55189300663840        0.00968776981520
N           -1.29357368976157        1.04652432761169       -0.06705434138120
C           -2.23930441111934        2.17107925631810       -0.08218999386212
C           -1.82632454197570       -0.20859978322552       -0.04029773578707
O           -3.02252214439043       -0.41102440130499       -0.04716015555494
N           -0.93696928127774       -1.30869938242867       -0.02485221837643
C           -1.46490256049341       -2.65278552154420       -0.04825433417154
H            3.72298002456791        1.22241537560584        1.06302375194413
H            4.01283921725957        1.04081184897661       -0.68179328113048
H            2.69773675696707        2.09935095199104       -0.09811016042616
H            3.58456450717363       -1.65370518785600        0.03673286780580
H           -1.64497025099653        3.06537028475863        0.09736746226884
H           -2.80868379188704        2.31926348693951       -1.00842012289198
H           -2.95756326137037        2.01718237852405        0.72162618731317
H           -1.16085728629127       -3.20222147329446        0.84590671002204
H           -1.13454602071994       -3.18820763671205       -0.94253711056104
H           -2.55023116927698       -2.56851836130837       -0.06389912896788
H            1.37603717682897       -2.95245061515756       -0.01590595190409
25
 energy: -43.837765312887 gnorm: 0.004489835794 xtb: 6.6.1 (8d0f1dd)
C            3.24348482922591        1.17295564188836        0.07914144289377
N            2.30227292952629        0.10284295299731        0.03293492650051
C            2.60332729096407       -1.24152309193240        0.02810448989621
N            1.42308660771374       -1.94544670331457        0.00202964580499
C            0.40027072267516       -1.06746180463849       -0.00181127470037
C            0.91258940549513        0.22208859190108        0.02371439516164
C            0.09796954779617        1.37812967827168        0.00231839210004
O            0.47846097443630        2.55353069552718        0.01396986032284
N           -1.29607305931858        1.04720347715430       -0.06341096569621
C           -2.23886530270018        2.17319556029524       -0.08121315270539
C           -1.82832397146933       -0.20813897675315       -0.04157658527818
O           -3.02448260397782       -0.41056129859363       -0.05196868221072
N           -0.93865591625994       -1.30812955886934       -0.02371779244102
C           -1.46049110160611       -2.65470435945454       -0.04887393038238
H            3.72789783654003        1.22152793352200        1.05923945031816
H            4.01038343158674        1.03609734483573       -0.68606901853218
H            2.70017279666538        2.09845487883662       -0.09951705270567
H            3.58036683158230       -1.65460671521344        0.03338010965245
H           -1.64276369144070        3.06715327207308        0.09791612025178
H           -2.80308881110794        2.31836938942730       -1.01216665400503