25
 energy: 0.000000000000 xtb: 6.6.1 (8d0f1dd)
C            3.23720163006194        1.16630919979326        0.08434469647475
N            2.29877817382611        0.07527477071623        0.03981603040599
C            2.58028210190900       -1.21425402444508        0.03006176031096
N            1.43813958087363       -1.93419271955128        0.00098261760884
C            0.39035688448383       -1.05887472636071       -0.00790371836672
C            0.93510056364412        0.21347819449412        0.01709077491437
C            0.09450143893243        1.40504303904423       -0.00410947031874
O            0.49712751527797        2.54126714362870       -0.00342325688240
N           -1.25076640035757        1.06271879480407       -0.03085478223738
C           -2.21907211982101        2.15522099834493       -0.05001256985998
C           -1.81739487048744       -0.20012725993278       -0.04692818574614
O           -2.99983886758376       -0.37846417018721       -0.07008878229737
N           -0.92618586207120       -1.30210215599479       -0.03682761578324
C           -1.46982264913417       -2.64643102187190       -0.06029820460571
H            3.71247264356769        1.21471455160235        1.06488849150277
H            4.00791497605742        1.03430808813993       -0.67357694370751
H            2.69910007168542        2.09770118228144       -0.09130154882931
H            3.56654120610678       -1.63682992603973        0.04233140067262
H           -1.67107961066214        3.09322851271934       -0.02552706933167
H           -2.82428953597071        2.09428624779827       -0.95318082946668
H           -2.87644029173232        2.07745725625962        0.81450067533302
H           -1.17061996399332       -3.19584890659852        0.83242232437030
H           -1.14560257411436       -3.17511610292205       -0.95688275822323
H           -2.55549792440841       -2.55659984320617       -0.07459039797972
H            1.38130855184625       -2.94313852034425       -0.01389874181052
25
 energy: -2.537531784037 xtb: 6.6.1 (8d0f1dd)
C            3.24335981903480        1.17175480026741        0.07907545239377
N            2.30700277248012        0.09060384885418        0.03579676462479
C            2.60406010268849       -1.23478727582512        0.02432071045919
N            1.43652014341287       -1.94771289492052        0.00126721967643
C            0.40071284055945       -1.06752515334477       -0.00095041302817
C            0.92777847689767        0.21339722514247        0.02187271067592
C            0.09178623913719        1.38470998054534        0.00639184432996
O            0.49046675240968        2.54922284855236        0.00779561635625
N           -1.27503433478686        1.04530431264550       -0.04392344880938
C           -2.23158695501700        2.16355863555120       -0.07216822821545
C           -1.82512562291925       -0.21543938551655       -0.03964531901113
O           -3.01954346967391       -0.40835371777930       -0.04857949384245
N           -0.92906293343795       -1.31486467801212       -0.02339061183863
C           -1.45644256349297       -2.66250645101156       -0.04441773431117
H            3.72384806799730        1.21872540372474        1.05968489025727
H            4.01037221014702        1.03435899739343       -0.68462331953756
H            2.69793872114235        2.09643042953375       -0.09757885208355
H            3.58446402712905       -1.65485902311940        0.02870351800593
H           -1.65523433195192        3.07721324709693        0.05486435333310
H           -2.83339423940119        2.35474439171986       -1.01081237496302
H           -2.94265838775019        2.03427946977019        0.73972445738579
H           -1.15022764630260       -3.21227273145785        0.84792161672996
H           -1.12315991023655       -3.19250599415451       -0.93923469641498
H           -2.54223093881419       -2.58243961251808       -0.06047875996729
H            1.37760582868482       -2.95200807096558       -0.01458200605829
25
 energy: 10.811917787555 xtb: 6.6.1 (8d0f1dd)
C            3.24923787938283        1.17183153090591        0.07041642914060
N            2.31095983427825        0.10413177570422        0.02928150091982
C            2.62646495068978       -1.25630008628435        0.01571169906668
N            1.43397383085332       -1.95989181278532        0.00129272015242
C            0.41231123370452       -1.08049401733476        0.00976458364827
C            0.91385506671831        0.21193738754850        0.02850063425182
C            0.08663644461794        1.35521057055318        0.01098047996520
O            0.47455717547443        2.54216569851735        0.02388639507655
N           -1.31525621260840        1.03029112906317       -0.07600751337981
C           -2.24833658326732        2.18494834208064       -0.10197753642161
C           -1.83250211320917       -0.23409971388481       -0.02517304327560
O           -3.03180613869626       -0.45505461602184       -0.00635474186503
N           -0.93194609751047       -1.33007592206657       -0.00019148265764
C           -1.43530740208620       -2.68479520455988       -0.02024161357167
H            3.73869085790566        1.22155917451951        1.04917904164399
H            4.01335314174592        1.03174833346823       -0.69891806515721
H            2.70006601025733        2.09275052115536       -0.10665659762670
H            3.60171844131005       -1.66922646513552        0.00779779101479
H           -1.63458271627732        3.05983759330839        0.18870988297550
H           -2.81629682159236        2.73376326472689       -1.08879119866554
H           -3.05173860580618        1.95569130272795        0.61264064923141
H           -1.12103600986660       -3.23589957194582        0.87116334496535
H           -1.09005843531365       -3.21645400981241       -0.91277014431288
H           -2.52175186042611       -2.62295994580778       -0.03922544077701
H            1.38100879765799       -2.96158665646826       -0.01598387819443
25
 energy: 30.385736695270 xtb: 6.6.1 (8d0f1dd)
C            3.25391395154009        1.16450782437571        0.06360687051059
N            2.31132160221323        0.10343053824281        0.02418730274192
C            2.63603578351744       -1.27195751686884        0.00675263333475
N            1.43556634400655       -1.97043503816157       -0.00176031167738
C            0.41916030701989       -1.09388720378823        0.01892894417589
C            0.90537477103139        0.20601217918998        0.03510376140845
C            0.08180562079570        1.33981595019720        0.01295881503645
O            0.46300646561967        2.53254217225938        0.04414159094989
N           -1.34642371674897        1.03389329264628       -0.10741324800521
C           -2.26367636793481        2.22066812230704       -0.12805264133847
C           -1.83785901283688       -0.24401875070333       -0.00757915217479
O           -3.03535080259452       -0.49291406473755        0.03964116176997
N           -0.93123994558967       -1.33986851874474        0.02281562782281
C           -1.41343426390590       -2.70440935655489        0.00169981939976
H            3.75100987887464        1.21627775099445        1.03971976903882
H            4.01575697155242        1.02450914895101       -0.70929912915592
H            2.70687720158701        2.08725883474821       -0.11169771421397
H            3.61255915096698       -1.67926152802302       -0.01697259592394
H           -1.64914789007783        3.04717998042878        0.30682977269847
H           -2.79118907321015        3.04290306656788       -1.13246877750199
H           -3.15488654293567        1.89767779157160        0.46601066191748
H           -1.09201818986992       -3.25692264764854        0.89127347351099
H           -1.05571058092378       -3.23448932645080       -0.88889682682954
H           -2.50093174075900       -2.66635881005493       -0.02060025114003
H            1.39169474659838       -2.97312528857189       -0.02189566020770
25
 energy: 48.565245187646 xtb: 6.6.1 (8d0f1dd)
C            3.25724354040790        1.15324192941056        0.06048696719342
N            2.31084564510214        0.09254028195239        0.02113383528026
C            2.63638458380892       -1.27984662269907        0.00168094829154
N            1.44183620390161       -1.97807054570975       -0.00571172861970
C            0.42295178498492       -1.10633675648537        0.02433360726901
C            0.90424042776250        0.19627037133269        0.03989811239486
C            0.08056515855650        1.33315964474397        0.01203931265305
O            0.45496780969626        2.51887845865473        0.06393332517411
N           -1.36221521850370        1.04128228918529       -0.12895571592004
C           -2.27825106062629        2.24269085899705       -0.13990890678061
C           -1.83891124404466       -0.24974988506829        0.01105938472562
O           -3.02828841933581       -0.51788621933501        0.08295957265985
N           -0.92689530747115       -1.34589722853021        0.04002702508875
C           -1.39512326815001       -2.71899848475526        0.01679985392084
H            3.75761306879884        1.20610574607677        1.03469540640693
H            4.01802596734895        1.01491880865929       -0.71332911224694
H            2.71479591963541        2.08022707092680       -0.11269707085306
H            3.61724872463117       -1.68218686231090       -0.03859954432137
H           -1.70323039328534        3.01512957787295        0.37060196063420
H           -2.79027750032614        3.30034302444663       -1.14370465065167
H           -3.21178310624623        1.87556421172055        0.33382185150276
H           -1.06880031699221       -3.27076430849784        0.90552468806752
H           -1.02608767701200       -3.24473831407134       -0.87243111296907
H           -2.48295646082582       -2.70336564305284       -0.00872364888225
H            1.40831580612053       -2.98348280129187       -0.02790046387076
25
 energy: 61.275564927647 xtb: 6.6.1 (8d0f1dd)
C            3.25797253362717        1.14564499533328        0.05379004640796
N            2.31158902061139        0.08015880504995        0.01615031494770
C            2.63105381974868       -1.27629665529295        0.00259053893980
N            1.45041616762284       -1.97992377930113       -0.00507407249853
C            0.42333878014102       -1.11346895671217        0.02330069277210
C            0.90961432720140        0.18800727162365        0.03916335652927
C            0.08459948886995        1.33358030361619        0.01478354523311
O            0.45208040251026        2.50911077041344        0.07756077928809
N           -1.35688185984292        1.04104264646464       -0.13070353323477
C           -2.28209695355045        2.23400557310957       -0.13968913144016
C           -1.83646677579501       -0.25411322697299        0.01526638530114
O           -3.01714588396070       -0.52410345311188        0.10562425099297
N           -0.92156264082408       -1.34907447933055        0.04410586414735
C           -1.38906821206292       -2.72477017107903        0.02720106255730
H            3.75665851863587        1.20027482618580        1.02761473330726
H            4.01811654122014        1.00664842744974       -0.71917889576698
H            2.71775376551135        2.07441673717708       -0.12057091176460
H            3.61558966940393       -1.67566933762230       -0.04823229682643
H           -1.75442744914886        2.97117648399286        0.43912947962684
H           -2.78725942724639        3.48359651862576       -1.15429674504943
H           -3.24208326719309        1.84275583745665        0.22189183185320
H           -1.06136303183081       -3.27009109457399        0.91886130289206
H           -1.01626084903514       -3.24935823596282       -0.85989891705127
H           -2.47576631400981       -2.71724519466412        0.00089532555964
H            1.42381429733251       -2.98727600970270       -0.02325111057633
25
 energy: 74.966878407493 xtb: 6.6.1 (8d0f1dd)
C            3.25706194635255        1.14005388174848        0.04664386189867
N            2.31390327250569        0.06522044413542        0.01036180070421
C            2.62362200022252       -1.26636241262258        0.00681091156625
N            1.46210805029510       -1.97970653110919       -0.00284420062809
C            0.42289103261780       -1.12032737944825        0.01977506118981
C            0.91785801317236        0.17900205057692        0.03388374036141
C            0.09089579294015        1.33294133355145        0.01689869478839
O            0.45125725873895        2.49665945559409        0.08912012964299
N           -1.34000463422886        1.03235472658149       -0.11319762430537
C           -2.27385173563088        2.19937974458449       -0.12928371315893
C           -1.83108130008753       -0.26478613831299        0.02463691949172
O           -3.00217813240044       -0.53155809321076        0.12824220227116
N           -0.91346399817223       -1.35590922805395        0.04425654829581
C           -1.38609581644377       -2.73201221127913        0.03500295818069
H            3.75243729210319        1.19875596423876        1.02034834918019
H            4.01750475413815        1.00180740073594       -0.72431441991249
H            2.71627601630988        2.06861003853672       -0.12999533620745
H            3.61151819220618       -1.66500427821933       -0.05077080348074
H           -1.81807280211197        2.91354844016358        0.48729635042809
H           -2.80412287221015        3.70915855813384       -1.16257295764319
H           -3.25028410554340        1.80713435083426        0.10277089242657
H           -1.05922196952230       -3.27109383636590        0.92964292577170
H           -1.01489345462816       -3.25670219198941       -0.85064521602670
H           -2.47173595368221       -2.72337916460860        0.01002431040408
H            1.43988782099572       -2.98875632202341       -0.01505748909151
25
 energy: 87.704389357480 xtb: 6.6.1 (8d0f1dd)
C            3.25407192488836        1.13613553702995        0.03580727468218
N            2.31774569465934        0.04565725579000        0.00501121209883
C            2.61468713003869       -1.25052627849016        0.01166826597437
N            1.47884392043893       -1.98002386448851        0.00288422009532
C            0.42198013927633       -1.12834977014033        0.01815462144303
C            0.93004442788943        0.16676376703768        0.02890504323609
C            0.09549137891058        1.33173564418202        0.02328799836038
O            0.45207672666862        2.48031351818943        0.09563971454746
N           -1.30935458934522        1.01246326008340       -0.07110397265953
C           -2.24970904612626        2.12967870678741       -0.11211563383361
C           -1.82151458094465       -0.28375479774524        0.03781657566419
O           -2.98359558271496       -0.54242028837229        0.14962779132684
N           -0.89942323398526       -1.36917213101826        0.04332497172702
C           -1.38317924990517       -2.74297985076362        0.04442201352499
H            3.74590476937884        1.20024687765308        1.00863616288077
H            4.01410127820230        0.99878231829650       -0.73336017571228
H            2.71026976810373        2.06308568221362       -0.14328914301369
H            3.60639871630021       -1.65163363389716       -0.05090070342008
H           -1.89323765367130        2.85054370597656        0.55084447118606
H           -2.84590830607441        4.02753515679232       -1.18902996846464
H           -3.25473744741019        1.75123402586581       -0.05077043573434
H           -1.05954740237093       -3.27351560256556        0.94345288470042
H           -1.01769463196690       -3.26861718421976       -0.84001107665371
H           -2.46829185419788       -2.72382520829090        0.02194081111679
H            1.45679237189411       -2.99032824373404       -0.00380902692559
25
 energy: 92.606097191680 xtb: 6.6.1 (8d0f1dd)
C            3.25067134467285        1.13768604805298        0.03678160073040
N            2.31836285386875        0.03785455973721        0.00930615141887
C            2.61115139134666       -1.24036840048157        0.01030962932161
N            1.48766751174914       -1.98083500700015        0.00496603919623
C            0.42023776829538       -1.12948862166908        0.02093758384291
C            0.93558382045036        0.16249591223219        0.03188227518870
C            0.08886897335231        1.33149882143893        0.02903393265283
O            0.45193162117919        2.47514309270365        0.09208608733155
N           -1.28898385872612        0.99403654941339       -0.02713354954940
C           -2.22245013485546        2.06746560957165       -0.09316651869037
C           -1.81683182634440       -0.29977682286807        0.05062398246305
O           -2.98004040799673       -0.55080565482932        0.15374920585064
N           -0.89050309364044       -1.38094278683272        0.04156682300627
C           -1.38074328561849       -2.75176332164886        0.04203502345557
H            3.74161149647898        1.20112659721223        1.00884837905476
H            4.01079170520865        1.00160480242006       -0.73172256476735
H            2.70454980879688        2.06345804607241       -0.14089592686324
H            3.60372434157979       -1.64819409508267       -0.04817094438069
H           -1.92460408397686        2.84208142617441        0.49945833655303
H           -2.92005055189188        4.16686925344427       -1.19707851405784
H           -3.19993631061825        1.75800678500322       -0.07974966094134
H           -1.06012650715439       -3.28034658884073        0.94172958043543
H           -1.01902296299712       -3.27575620550943       -0.84350281945429
H           -2.46716065467674       -2.72145123001305        0.02023758907093
H            1.45751570945428       -2.99057016652901       -0.00509782472099
25
 energy: 92.041816589315 xtb: 6.6.1 (8d0f1dd)
C            3.25055278997601        1.14437119868039        0.03393804847685
N            2.32289951405882        0.03815030348642        0.01545540837296
C            2.61750806464737       -1.23522902603616       -0.00247606582591
N            1.49744049617022       -1.98588389623676        0.00598720959338
C            0.42173437299699       -1.12488535390418        0.02789515388155
C            0.94440018066101        0.16431969672041        0.04264260997705
C            0.08225964275190        1.33244717217102        0.05305408351762
O            0.46867675244026        2.48463855448839        0.08474407240423
N           -1.25295707849865        0.96730575656835        0.06522410469387
C           -2.16104192894997        1.96458126691522       -0.03835350521861
C           -1.80627653966645       -0.31895209268384        0.06919829310955
O           -2.98538594064848       -0.55075983644612        0.14278034200402
N           -0.88030658461815       -1.39614902300424        0.03887178123563
C           -1.38274451386382       -2.75765366075441        0.03775708838224
H            3.74158269389036        1.20375331491435        1.00553524360270
H            4.00905600349080        1.00507378216764       -0.73596191117131
H            2.69850208364921        2.06557807266535       -0.14223232414982
H            3.60649123581627       -1.65705238469745       -0.04391626654262
H           -1.94570953521251        2.90522839457539        0.41786272467299
H           -3.00602217305672        4.27018254862627       -1.23635055945470
H           -3.20548418191967        1.73398995143787       -0.11042015720113
H           -1.06569758588321       -3.28479719660380        0.93769460762249
H           -1.02970065512833       -3.28159440237495       -0.85016469920773
H           -2.47221350841613       -2.70599176610540        0.01881152835113
H            1.44465106324917       -2.99164277239784       -0.01054291497921
25
 energy: 89.737628665856 xtb: 6.6.1 (8d0f1dd)
C            3.25207456097407        1.15093079012646        0.04083553507985
N            2.32323454452447        0.05530520344013        0.02520754734941
C            2.63557865856650       -1.24833326827714       -0.01393923324140
N            1.49968481947389       -1.99196458217618        0.00469486574287
C            0.43063294030435       -1.12490667484945        0.03658852109681
C            0.93841801071767        0.17268347213888        0.05798513501526
C            0.07659719599358        1.32041171514776        0.06197947608993
O            0.48076469134173        2.49335808426638        0.06813301829074
N           -1.26761443070227        0.95948869638058        0.08913820904418
C           -2.15442198219762        1.94409634403242        0.01409437416428
C           -1.80344502302501       -0.33535401810789        0.07729738766081
O           -2.99931854985476       -0.56618810691570        0.11922380313494
N           -0.88286243121414       -1.40781996644096        0.04220105632937
C           -1.38112930697803       -2.76419852837905        0.03035890470262
H            3.74281712760532        1.20918565356542        1.01441039310084
H            4.01172260025505        1.00964998554122       -0.72949132467915
H            2.69493965724394        2.06794087632538       -0.13642666612981
H            3.61932675905488       -1.66915045553263       -0.03685248052859
H           -1.86584231908881        2.97297723630791        0.27637123638370
H           -3.11321789959988        4.28978400133258       -1.26127141794774
H           -3.19670652404065        1.73779008873454       -0.01361633904440
H           -1.06662925624983       -3.29679393117951        0.92864341992680
H           -1.02851550512636       -3.28769456087454       -0.85992249747527
H           -2.47169277178539       -2.70769417188247        0.00874766708768
H            1.43781910174358       -2.99447528055222       -0.01735669500648
25
 energy: 87.807228542384 xtb: 6.6.1 (8d0f1dd)
C            3.25430910739365        1.15014400866614        0.04146690163320
N            2.32543585778132        0.06244370271072        0.02621954296777
C            2.64783359395161       -1.26222879300439       -0.01680314805834
N            1.50213864792346       -1.99447869298767        0.00230481452450
C            0.44360215226554       -1.13648084142462        0.04398302931360
C            0.93483998905388        0.17067097076109        0.06915584102864
C            0.09058186115983        1.29936468526529        0.07545561602600
O            0.48642981059518        2.48417418657376        0.07110343680108
N           -1.28836022579351        0.95802495291317        0.09301100940929
C           -2.18466587230016        1.95912725608378        0.06120461832646
C           -1.79330456568243       -0.35144991687683        0.09202884391703
O           -2.99251782783481       -0.58382852165908        0.11636288905856
N           -0.88264758042209       -1.41715918360667        0.05347019139603
C           -1.37664557853489       -2.77175127884063        0.02948825976055
H            3.74580534425150        1.21605784108329        1.01576272507577
H            4.01424127297415        1.01327312789490       -0.72952522740221
H            2.69333605331210        2.06622956882051       -0.13724174404419
H            3.63079903319600       -1.66910510190803       -0.03542530558721
H           -1.78888842172729        2.96449302426146        0.18088881602204
H           -3.19951277948585        4.42446188625021       -1.31085101345304
H           -3.24421787739568        1.72728106127952        0.03762424093241
H           -1.06455863195410       -3.31184614622637        0.92560526638759
H           -1.02435866465775       -3.29359431386651       -0.86326612092673
H           -2.46534968080250       -2.71718266056377        0.00602083982857
H            1.44788965066916       -2.99761221942734       -0.02101042679010
25
 energy: 87.593584161063 xtb: 6.6.1 (8d0f1dd)
C            3.25475301279670        1.14770477682257        0.04307127347843
N            2.32562887607043        0.05948453825875        0.02436993387018
C            2.64296396602350       -1.26381013380363       -0.01246222484616
N            1.49890748858426       -1.99063654987217        0.00234902523866
C            0.44435769838617       -1.14058281658005        0.04341091301223
C            0.93535486559893        0.16829117254820        0.06513809710404
C            0.10088675415869        1.29781477027283        0.07699822003913
O            0.47934579686095        2.48363809705447        0.06874396719294
N           -1.28787930076427        0.95772633419654        0.09192591073670
C           -2.19323019525638        1.95440629853445        0.08548039702153
C           -1.78879175978508       -0.35435498637906        0.08658458348750
O           -2.98709660036001       -0.57703739000088        0.10662417405363
N           -0.88362754344034       -1.41549590826290        0.05370819240183
C           -1.37735280643084       -2.77120244682697        0.03009770534556
H            3.74581645128903        1.21698226112388        1.01748383169387
H            4.01517938282975        1.01298678137641       -0.72693219126418
H            2.69613357632793        2.06650128931096       -0.13600207032768
H            3.62925241835008       -1.66469544417493       -0.03198592850699
H           -1.77303349734249        2.96966287473394        0.15159904115393
H           -3.23617830591224        4.44237995621966       -1.36206064488861
H           -3.22686844075958        1.70902014900463        0.09862109652393
H           -1.06468367845948       -3.31166661625846        0.92621824368381
H           -1.02255765311891       -3.29199583679307       -0.86189719907773
H           -2.46538480958801       -2.72021059722859        0.00514484097777
H            1.45031897187753       -2.99588197110471       -0.01919529195704
25
 energy: 87.142235754495 xtb: 6.6.1 (8d0f1dd)
C            3.25342070862543        1.14432260982051        0.04402767113318
N            2.32681847379741        0.05029174362758        0.01937334512344
C            2.63457693631956       -1.26238195735032       -0.00925883837024
N            1.49781452451130       -1.98656089344661       -0.00054188942838
C            0.44253442589117       -1.14689305570590        0.04314476170720
C            0.93739983894569        0.16285858222108        0.05915273284715
C            0.11288131857332        1.30095728502001        0.08424482096168
O            0.46319854793681        2.48209844699511        0.07295282062883
N           -1.28442610506290        0.95638515370804        0.10821821028139
C           -2.19065441179256        1.95444726842898        0.11109561444568
C           -1.78865474428580       -0.35723238766509        0.09739218417463
O           -2.98259717947943       -0.57245764631326        0.11900569857603
N           -0.88412403872751       -1.41225945908689        0.05837995421595
C           -1.37760164006622       -2.77162150555232        0.02945087391245
H            3.74454109220103        1.21425830044565        1.01778411894269
H            4.01338282936030        1.01474742557668       -0.72635596257248
H            2.69612846154801        2.06581683729749       -0.13266225111755
H            3.62731760226209       -1.65657737329072       -0.03906545265599
H           -1.77356811478895        2.95275800149100        0.13691162838663
H           -3.24057186063266        4.46208365777050       -1.44973585553620
H           -3.22638964795168        1.71460460065909        0.13896805696790
H           -1.06314903896620       -3.31401462572270        0.92365635923893
H           -1.02105505819234       -3.28769741154575       -0.86389787518235
H           -2.46478584450780       -2.72376237439253        0.00493317594853
H            1.45977759241823       -2.99514262081771       -0.02014000648185
25
 energy: 86.969986067134 xtb: 6.6.1 (8d0f1dd)
C            3.25385901771235        1.14323603989892        0.04533776517656
N            2.32878569361791        0.04680445791485        0.01829971305904
C            2.63232582149051       -1.26139583289070       -0.00642512570628
N            1.49724400954899       -1.98605203437189       -0.00028640232780
C            0.43980958637169       -1.14646747499807        0.04002899306423
C            0.93838489276631        0.16348649255675        0.05231462466428
C            0.11933899949699        1.30636443544073        0.07757883783084
O            0.45962022196756        2.48521272542758        0.07037472417043
N           -1.28137410914584        0.95706777134293        0.10979022056938
C           -2.18251976669151        1.95944295587085        0.13456356737225
C           -1.79253863407331       -0.35506922404301        0.09444051000118
O           -2.98625898169601       -0.57024278553272        0.12046629942335
N           -0.88529989222691       -1.40801795380842        0.05577900539584
C           -1.37854088532704       -2.76944780195396        0.02798291386518
H            3.74341125166540        1.21145206499270        1.01956225910759
H            4.01470165051681        1.01385178956936       -0.72449914864773
H            2.69671750677107        2.06417083160851       -0.13217119897312
H            3.62608400403002       -1.65547376009883       -0.04008937589517
H           -1.78194269567593        2.95751814498825        0.14415199453351
H           -3.23980972285173        4.42554774349239       -1.50754756487637
H           -3.22176503396164        1.71941522180063        0.18214154017433
H           -1.06426410952438       -3.30919216542092        0.92358496196649
H           -1.02063603332354       -3.28641146969907       -0.86406176298171
H           -2.46575661454338       -2.72166447844668        0.00285597691181
H            1.46263849102193       -2.99510709146824       -0.01713943173086
25