25
 energy: 0.000000000000 xtb: 6.6.1 (8d0f1dd)
C            3.23720132972391        1.16630909158653        0.08434468864950
N            2.29877796055224        0.07527476373246        0.03981602671198
C            2.58028186251803       -1.21425391179017        0.03006175752192
N            1.43813944744728       -1.93419254010258        0.00098261751768
C            0.39035684826767       -1.05887462812143       -0.00790371763344
C            0.93510047688824        0.21347817468824        0.01709077332874
C            0.09450143016486        1.40504290868848       -0.00410946993748
O            0.49712746915594        2.54126690785742       -0.00342325656480
N           -1.25076628431515        1.06271869620815       -0.03085477937476
C           -2.21907191394203        2.15522079838987       -0.05001256521996
C           -1.81739470187490       -0.20012724136556       -0.04692818139228
O           -2.99983858926755       -0.37846413507442       -0.07008877579474
N           -0.92618577614240       -1.30210203518959       -0.03682761236648
C           -1.46982251276835       -2.64643077634382       -0.06029819901142
H            3.71247229913541        1.21471443890471        1.06488839270555
H            4.00791460421487        1.03430799217987       -0.67357688121503
H            2.69909982127087        2.09770098766290       -0.09130154035862
H            3.56654087521359       -1.63682977417947        0.04233139674524
H           -1.67107945562430        3.09322822573871       -0.02552706696334
H           -2.82428927394145        2.09428605349656       -0.95318074103337
H           -2.87644002486466        2.07745706351925        0.81450059976605
H           -1.17061985538665       -3.19584861009707        0.83242224714061
H           -1.14560246782873       -3.17511580834413       -0.95688266944647
H           -2.55549768731684       -2.55659960601237       -0.07459039105944
H            1.38130842369251       -2.94313824728853       -0.01389874052104
25
 energy: -5.637163637473 xtb: 6.6.1 (8d0f1dd)
C            3.23776804764555        1.17211716669458        0.08636004926174
N            2.30211110778752        0.09535973613558        0.03443331978468
C            2.60120698257754       -1.25052219573399        0.03199924183457
N            1.42659470193034       -1.97158782402602        0.00077090457463
C            0.40462140046653       -1.08005001919778       -0.00858096712651
C            0.91655790262521        0.21330475061546        0.01403612632176
C            0.11388737843986        1.38096846403590       -0.00546876225913
O            0.49314479707103        2.55711794126913       -0.00452392047669
N           -1.27075629553148        1.05400677778035       -0.03121707172840
C           -2.22346476983406        2.15327231225571       -0.04959428048333
C           -1.81615212053538       -0.19287291863698       -0.04716821934815
O           -3.01502897925525       -0.38137202021429       -0.07018881436848
N           -0.93818687158389       -1.29840475903482       -0.03706478642196
C           -1.47238873278181       -2.63823514328282       -0.06033150859480
H            3.71721453134291        1.22147166847332        1.06813118544041
H            4.00931135046509        1.03978005209262       -0.67445944730948
H            2.69944079549400        2.10254227555279       -0.09026098202900
H            3.58165885059452       -1.65255460377778        0.04426938912755
H           -1.66833291955742        3.08928209385354       -0.02531628776122
H           -2.82967262071505        2.09826337195515       -0.95346223187124
H           -2.88116577538213        2.08141278424795        0.81605652093134
H           -1.16464434883053       -3.18838990164141        0.83195913667613
H           -1.13963557356943       -3.16789053669958       -0.95619386121613
H           -2.55729606538677       -2.55155790973141       -0.07476678036047
H            1.41771215960918       -2.99797047793133       -0.01366958761004
25
 energy: -3.707379613000 xtb: 6.6.1 (8d0f1dd)
C            3.23510587397405        1.17223573682343        0.08669886343207
N            2.30068438434536        0.09000010868730        0.03277594675530
C            2.60160145082498       -1.26094984534361        0.03119775033081
N            1.43373307460502       -2.00352962970109        0.00031205658784
C            0.41045494868883       -1.09874219960550       -0.00977739346464
C            0.91403182949818        0.20105813669998        0.01214049190606
C            0.11292026227161        1.37494483022112       -0.00565768372758
O            0.49254120451629        2.55313514489236       -0.00393114191696
N           -1.27363439878468        1.05653387206851       -0.03107423683845
C           -2.22753424950850        2.15564243188640       -0.04953646621663
C           -1.81685514285106       -0.19022508853282       -0.04717315250809
O           -3.01610351485493       -0.37940203386278       -0.06990779676735
N           -0.93755721420121       -1.29607988286625       -0.03723970098829
C           -1.47325565485392       -2.63386558717693       -0.06029146808416
H            3.71561428092980        1.22459772957697        1.06839455341873
H            4.00849555214596        1.04350785815821       -0.67337208832943
H            2.69884177876963        2.10483002243046       -0.08990609826625
H            3.58818610787949       -1.64607004491362        0.04428855914698
H           -1.67450270519703        3.09287268269420       -0.02530879131205
H           -2.83423285839195        2.10041072678095       -0.95320915108396
H           -2.88599633765277        2.08367138197026        0.81567436286044
H           -1.16115879309806       -3.18184959706528        0.83179723231674
H           -1.13663825703676       -3.16135916836998       -0.95595906802278
H           -2.55765510028088       -2.54711251245376       -0.07445901689922
H            1.46953798395183       -3.05223199324846       -0.01127497823818
25
 energy: -0.380015877106 xtb: 6.6.1 (8d0f1dd)
C            3.23242524211494        1.17171722061737        0.08587249073326
N            2.29676119811669        0.08616090438542        0.03143606094473
C            2.59968184935079       -1.26896385553879        0.03377320349168
N            1.44089815223821       -2.03337406249257        0.00074661122481
C            0.41439204145388       -1.11634055073298       -0.00893396420039
C            0.90914870492146        0.18996017808390        0.01269114233776
C            0.10921126863356        1.37188572337203       -0.00385238674921
O            0.48844564902109        2.55002954414704       -0.00210377009562
N           -1.27840851692041        1.05904078012621       -0.03029703492554
C           -2.23097118853571        2.15995627237558       -0.05000298321020
C           -1.81924607426023       -0.18831180281565       -0.04687936298392
O           -3.01892189680265       -0.37831355748139       -0.07093743462991
N           -0.93844427497827       -1.29442359342337       -0.03637633291296
C           -1.47467416179094       -2.63104488673170       -0.06035449081560
H            3.71761684680108        1.22420343426750        1.06592005555483
H            4.00485386610640        1.04309551314332       -0.67586199029872
H            2.70112474660986        2.10841314183084       -0.08890089992687
H            3.59002780401437       -1.63824497167192        0.04236396738982
H           -1.67623432878253        3.09630944751463       -0.02515063351198
H           -2.83701896646129        2.10711768755511       -0.95433580370195
H           -2.89101186793601        2.09052371072441        0.81428470091665
H           -1.15846622865165       -3.17733203511175        0.83133810234269
H           -1.13301375725206       -3.15592221894628       -0.95566196337278
H           -2.55883041158663       -2.54669927015978       -0.07509569850406
H            1.52719054482915       -3.10662197490258       -0.01313765706260
25
 energy: 4.518283907140 xtb: 6.6.1 (8d0f1dd)
C            3.22872927656465        1.17132812487664        0.08683735075134
N            2.29539646369990        0.08090122503561        0.02782109954106
C            2.59358036039781       -1.27895829390017        0.03800933977102
N            1.44369874951476       -2.06436624429895       -0.00000203837994
C            0.41773009448362       -1.13129581711019       -0.01041075920336
C            0.90700027954254        0.18206855201548        0.01109486195367
C            0.10740400451850        1.37013383336757       -0.00439925694539
O            0.48518290268090        2.54774695416139       -0.00248097770826
N           -1.28196584694973        1.06333331502156       -0.03062120281088
C           -2.23452209234731        2.16472163498669       -0.05006265853990
C           -1.82089721905404       -0.18381925538446       -0.04705936290333
O           -3.02108169767495       -0.37366633389090       -0.07072030473650
N           -0.93905383729369       -1.29044284628953       -0.03660633575872
C           -1.47384544010732       -2.62667124077061       -0.05964330964112
H            3.71428190633825        1.22610617835361        1.06714173936985
H            4.00271525302727        1.04615724287729       -0.67447992139324
H            2.69891329227511        2.11002348762568       -0.08705404889137
H            3.58731444190305       -1.63563914559252        0.03877508568635
H           -1.68145893752062        3.10218763287623       -0.02554722325495
H           -2.84143940571092        2.11167864853142       -0.95383493286853
H           -2.89455328171262        2.09516676292062        0.81423320933352
H           -1.15130768600483       -3.16999802792610        0.83179678528693
H           -1.12709008732287       -3.14912829320675       -0.95458134187905
H           -2.55780887176265       -2.54598747131357       -0.07359319113444
H            1.56320195257914       -3.17069581086401       -0.01506258132123
25
 energy: 21.436166309955 xtb: 6.6.1 (8d0f1dd)
C            3.22998566351816        1.18245153943848        0.08589813611109
N            2.28511915999738        0.09272223325804        0.03178942187733
C            2.53709304553041       -1.23441899651851        0.03539278224046
N            1.43270069860920       -1.96365837806508        0.00530460457855
C            0.40651776264560       -1.07382427840391       -0.00997972297021
C            0.91221212792778        0.22298312057452        0.01149985407575
C            0.08834860445097        1.40509106582866       -0.00462157314589
O            0.47145240426913        2.56132658456282       -0.00188507095531
N           -1.27169601703191        1.08084236368785       -0.03058990853837
C           -2.23782228775272        2.17100916611833       -0.04974020729383
C           -1.81858640148838       -0.19072368432894       -0.04756827827592
O           -3.01800358997880       -0.35582151228524       -0.07177791323137
N           -0.94027216391496       -1.27008230491361       -0.03689370117219
C           -1.47333588628086       -2.61526607255227       -0.05983786500271
H            3.71316937518201        1.23009381406551        1.06480788629839
H            4.00005383864200        1.05142259053599       -0.67525811984531
H            2.70331938253273        2.12279405745983       -0.08553553760567
H            3.54152861795651       -1.61482025624148        0.03985570677003
H           -1.69016208753323        3.11077583248946       -0.02437777250403
H           -2.84367610817826        2.11241516919816       -0.95346554125308
H           -2.89693301938470        2.09443224281223        0.81427337167259
H           -1.14542063527445       -3.15797246241638        0.82748650421442
H           -1.12184437298669       -3.13652883611347       -0.95106182240239
H           -2.55794504751022       -2.53680466542779       -0.07348629959086
H            1.69716518501927       -3.65353408177787       -0.01935075443698
25
 energy: 19.731810091259 xtb: 6.6.1 (8d0f1dd)
C            3.22928488995547        1.18406997745944        0.08473033895037
N            2.28081378601274        0.09443943661878        0.03224767442920
C            2.52474420050215       -1.23583854532410        0.03778346017909
N            1.42464930915690       -1.97480054121259        0.00646648843633
C            0.40384812962720       -1.06971371218643       -0.00949015085403
C            0.90923703094678        0.22821016515930        0.01219640408280
C            0.08407665822703        1.41119593427191       -0.00354385066342
O            0.46478737558757        2.56692394064247       -0.00011709134087
N           -1.27564500649926        1.08700080266172       -0.02984803414429
C           -2.24202291199284        2.17701218569958       -0.05000739812156
C           -1.82165232456113       -0.18552980485809       -0.04747492852349
O           -3.02117404854881       -0.35264555327832       -0.07140279914744
N           -0.94247088645160       -1.26274315361530       -0.03656795192487
C           -1.47129200544422       -2.60959102955305       -0.05963361906717
H            3.71166598749276        1.23404603896897        1.06395775493672
H            3.99915708561422        1.05307151697904       -0.67635553677232
H            2.70502951911819        2.12598924671234       -0.08883955800255
H            3.53165317340830       -1.61094518720520        0.04306708690950
H           -1.69518481430091        3.11728692640490       -0.02475359825205
H           -2.84729918068360        2.11823691420314       -0.95393528244979
H           -2.90243455601816        2.10132123581008        0.81294474789792
H           -1.13957128656918       -3.14989874294328        0.82780132686573
H           -1.11544307178466       -3.12977922515312       -0.94990163422019
H           -2.55603289788356       -2.53497238828908       -0.07384026542346
H            1.74184804238021       -3.74482494962279       -0.02742922426412
25
 energy: 18.590474093196 xtb: 6.6.1 (8d0f1dd)
C            3.22882085981745        1.18792601153860        0.08529866012305
N            2.27594226377301        0.09987969290906        0.03372430515853
C            2.51346332632011       -1.23228768265015        0.03916366263005
N            1.41349480148377       -1.97238936731892        0.00818618679460
C            0.39913324511427       -1.06037217338689       -0.00918081044357
C            0.90579867272083        0.23733400011417        0.01195148905064
C            0.07990329867027        1.41889715415289       -0.00414043732323
O            0.45700503086515        2.57536043097377       -0.00080429681530
N           -1.27969413794850        1.09328822554104       -0.02992063210429
C           -2.24620624829224        2.18256629763005       -0.04996514554708
C           -1.82435459645703       -0.17928654181764       -0.04725048916840
O           -3.02360093276056       -0.34689525764352       -0.07134318955930
N           -0.94593784540061       -1.25494347824917       -0.03642055464507
C           -1.47108330556353       -2.60296769146215       -0.05919262103336
H            3.71102529387164        1.23839644116942        1.06444779884153
H            3.99836454067164        1.05576519524603       -0.67549584167832
H            2.71022812936265        2.13303107101798       -0.08926164441067
H            3.52135473627306       -1.60521668504606        0.04284921152760
H           -1.69935298342942        3.12282269187458       -0.02488567800880
H           -2.85176233895710        2.12379048507884       -0.95363656729462
H           -2.90643523935783        2.10699671972944        0.81305924821491
H           -1.13649190998646       -3.14220569311623        0.82785801295379
H           -1.11363829129954       -3.12163135386745       -0.94977878122919
H           -2.55567067742583       -2.53075565980426       -0.07219827932916
H            1.79232388995868       -3.84246195586538       -0.02838631364443
25
 energy: 18.129318740870 xtb: 6.6.1 (8d0f1dd)
C            3.22766476645796        1.19205073736388        0.08614920981356
N            2.27101736149159        0.10712441090669        0.03497234154929
C            2.50293016939297       -1.22600041213863        0.03882646268623
N            1.40266335214375       -1.96489206787592        0.01150594291066
C            0.39439014375420       -1.04813182379022       -0.00845576326429
C            0.90231439307680        0.24877596855379        0.01136492367591
C            0.07522372530533        1.42814901377948       -0.00578423428578
O            0.44877555763672        2.58544798568828       -0.00306699739513
N           -1.28357141695172        1.09994566971447       -0.03047387101547
C           -2.25011929775608        2.18815137603888       -0.04967359524485
C           -1.82759555092515       -0.17296369045504       -0.04743674331368
O           -3.02664751622455       -0.34101650745574       -0.07153711903962
N           -0.94930563674219       -1.24652897611736       -0.03623842466167
C           -1.46761060642400       -2.59709536171549       -0.05902743149339
H            3.70901058578748        1.23926641741895        1.06567665073392
H            3.99662479181836        1.05832031870726       -0.67513429186347
H            2.71442730409457        2.13980089704185       -0.08757103364318
H            3.51093465308121       -1.59890395517459        0.04059976978455
H           -1.70169726300336        3.12740778164427       -0.02430380195779
H           -2.85588836035558        2.12967992666921       -0.95316705079995
H           -2.90967832950696        2.11215528734148        0.81378491027518
H           -1.12951755670578       -3.13476448233200        0.82768613657746
H           -1.10680008770723       -3.11311203645270       -0.94980712059689
H           -2.55219949760701       -2.53330984756293       -0.07207794625551
H            1.83362736540824       -3.94934802701596       -0.02715076314474
25
 energy: 18.158853321775 xtb: 6.6.1 (8d0f1dd)
C            3.22772952174602        1.19736470207133        0.08605350029128
N            2.26800451854839        0.11545854492836        0.03632150934328
C            2.49398390644434       -1.21867649723695        0.03962883769344
N            1.39286258787423       -1.95422098020520        0.01205658944988
C            0.39008334857704       -1.03450689439071       -0.00699844982069
C            0.90007672444352        0.26080200923509        0.01206667614785
C            0.07216333590381        1.43800850286936       -0.00569565720246
O            0.44511382041193        2.59556113193656       -0.00281043572846
N           -1.28643755985400        1.10729655843501       -0.03024641325444
C           -2.25375431464960        2.19396433012765       -0.05021578576202
C           -1.83071971972892       -0.16619279882561       -0.04701100368642
O           -3.02958044541600       -0.33414868104569       -0.07151025517925
N           -0.95236849566492       -1.23759091222909       -0.03543457279585
C           -1.46496681733227       -2.59040350267452       -0.05820130771110
H            3.70871362479325        1.24429682659989        1.06575878323312
H            3.99616082331196        1.06216796943482       -0.67553969396916
H            2.71750834222648        2.14619077675083       -0.08786700228288
H            3.50039041193216       -1.59623256636754        0.04129062738132
H           -1.70539486954616        3.13306451915832       -0.02461863883678
H           -2.85894569975819        2.13481548196969       -0.95402598514476
H           -2.91391272914638        2.11759438265223        0.81272912920925
H           -1.12553993975344       -3.12665102839425        0.82886055019984
H           -1.10144697860225       -3.10524079926069       -0.94854107119133
H           -2.54940757780142       -2.53223966635738       -0.07221942389857
H            1.88221600043628       -4.06625609182091       -0.03194598093733
25
 energy: 18.443308752490 xtb: 6.6.1 (8d0f1dd)
C            3.22945956254693        1.20266710718389        0.08536202253156
N            2.26576204020104        0.12554907281215        0.03691116010972
C            2.48623989607221       -1.20906046139597        0.03738039477170
N            1.38464928975242       -1.94050297933608        0.01127190681239
C            0.38611041053149       -1.01908562003605       -0.00577767179747
C            0.89828356168713        0.27448869872698        0.01288492612924
C            0.06928048918314        1.44946346823863       -0.00553063294888
O            0.44209443672744        2.60729225231194       -0.00209855929304
N           -1.28944775002967        1.11572820424017       -0.03014730150417
C           -2.25865399731416        2.19988193077671       -0.05048693093589
C           -1.83399285997793       -0.15851015772371       -0.04699946583160
O           -3.03276011781974       -0.32617995173784       -0.07175870304128
N           -0.95518892906327       -1.22769588849148       -0.03517338786180
C           -1.46206914294912       -2.58321920720896       -0.05818198973360
H            3.70962290206345        1.24608083778395        1.06529255417492
H            3.99769380916866        1.06526632258515       -0.67623772739465
H            2.72061878784077        2.15178798971111       -0.08900262081657
H            3.48999770386687       -1.59425457281995        0.04135054360802
H           -1.71201923141173        3.13963781377673       -0.02486370293559
H           -2.86368108000554        2.13928140956075       -0.95426018529496
H           -2.91894517466042        2.12210729590697        0.81217254445274
H           -1.11980700058159       -3.11816063681627        0.82855080827180
H           -1.09596565285847       -3.09713708605507       -0.94796867374018
H           -2.54663483469508       -2.53237202716015       -0.07222223104222
H            1.92782241842492       -4.19489014235020       -0.03317121223271
25
 energy: 18.803920530954 xtb: 6.6.1 (8d0f1dd)
C            3.23144461362875        1.20850144015418        0.08552149172571
N            2.26393236977367        0.13665826047367        0.03728671161207
C            2.48020156904507       -1.19770865649833        0.03417707726767
N            1.37824695032452       -1.92482150920553        0.00919811435892
C            0.38285304233470       -1.00309120240032       -0.00533428082658
C            0.89686506340493        0.28866233976423        0.01332364120867
C            0.06643016631587        1.46104707185404       -0.00546505382758
O            0.43848051450677        2.61928589024826       -0.00212285738691
N           -1.29196109822270        1.12398605811661       -0.03021015935156
C           -2.26352605049089        2.20517501825496       -0.05057936037272
C           -1.83675340672737       -0.15080150196638       -0.04698974804096
O           -3.03545343516081       -0.31888732066899       -0.07187735042782
N           -0.95716895137703       -1.21724115950918       -0.03491225646099
C           -1.46001832313378       -2.57493032215055       -0.05806513151863
H            3.71156256599940        1.24781514459243        1.06550503630550
H            3.99849248144394        1.06599106728646       -0.67585292697698
H            2.72532664346610        2.15861959444744       -0.08999186307518
H            3.48034818283169       -1.59177295756401        0.04165885635576
H           -1.71863494000698        3.14551390647026       -0.02498966683050
H           -2.86867399260071        2.14297632443591       -0.95417488434597
H           -2.92382844286517        2.12570919040197        0.81194290476583
H           -1.11565630310937       -3.10911502284466        0.82843923553435
H           -1.09202293652264       -3.08815166351567       -0.94763772076911
H           -2.54485495909563       -2.52711793418771       -0.07208422084921
H            1.96745118148233       -4.32742193544763       -0.03350722208646
25
 energy: 19.141333497692 xtb: 6.6.1 (8d0f1dd)
C            3.23297409164716        1.21492513389684        0.08582040584447
N            2.26195123474958        0.14833129005363        0.03825046723675
C            2.47544400644244       -1.18498331119339        0.03272902223880
N            1.37264717232002       -1.90802177515350        0.00714580498627
C            0.37952171873304       -0.98710951082377       -0.00560401211578
C            0.89527517721544        0.30281326339371        0.01408439391950
C            0.06336738150303        1.47256842128860       -0.00455901910450
O            0.43495283555848        2.63114775113469       -0.00153852109056
N           -1.29416661505315        1.13280506109181       -0.03012375290088
C           -2.26753633964665        2.21148042131322       -0.05065544703881
C           -1.83951691972823       -0.14280548913692       -0.04701427961620
O           -3.03819058620408       -0.31119979160314       -0.07189311775678
N           -0.95918239071426       -1.20682181245935       -0.03492973476126
C           -1.45740933492835       -2.56685596871727       -0.05799199402852
H            3.71416092314579        1.25236253878181        1.06538392831080
H            3.99787447929426        1.06402176667726       -0.67592486830730
H            2.72923955642075        2.16604800288131       -0.08993260531664
H            3.47096615363602       -1.58912118563318        0.04454589461324
H           -1.72326530962752        3.15193550062159       -0.02500521121437
H           -2.87278101643974        2.14784409651770       -0.95427653871690
H           -2.92823907800289        2.13046884316098        0.81162994787287
H           -1.11016998580335       -3.10042924410438        0.82772759408750
H           -1.08749695948151       -3.07957809858857       -0.94704613720102
H           -2.54267283878492       -2.52352926820777       -0.07168326868102
H            1.99927462573874       -4.46435844946358       -0.03314254649566
25
 energy: 19.419869726550 xtb: 6.6.1 (8d0f1dd)
C            3.23413170531281        1.22217411318732        0.08604008726942
N            2.26006968567671        0.15984225288525        0.03851486746569
C            2.47157699095506       -1.17217992532898        0.03176334762929
N            1.36740491471490       -1.89116416156179        0.00614607374059
C            0.37614816266938       -0.97189541955755       -0.00554315410988
C            0.89359196337719        0.31636419820913        0.01475446001031
C            0.06034108948787        1.48334197526426       -0.00387090233860
O            0.43142202192499        2.64239707480291       -0.00095620488202
N           -1.29584225015260        1.14002207362414       -0.03005632927512
C           -2.27068319947922        2.21738664019007       -0.05077152899972
C           -1.84151500434303       -0.13640190485068       -0.04690119015527
O           -3.04029996413400       -0.30402116691448       -0.07181030460310
N           -0.96083169436301       -1.19888022013470       -0.03453225325257
C           -1.45460987642529       -2.56023776525396       -0.05780301304606
H            3.71565774856199        1.25716971869600        1.06566033378756
H            3.99843205076032        1.06681433990211       -0.67603669130659
H            2.73326768816616        2.17481875712683       -0.08905071663464
H            3.46123710748041       -1.58741608041738        0.04668892487187
H           -1.72629508548846        3.15759210439349       -0.02517612419188
H           -2.87626719735894        2.15285331742690       -0.95447085931591
H           -2.93190557395776        2.13559113761803        0.81147211874831
H           -1.10528655283887       -3.09287801208497        0.82732189853027
H           -1.08310278081007       -3.07210424919197       -0.94641716379103
H           -2.54024646395828       -2.51900131450393       -0.07163518049603
H            2.02569499319225       -4.60265325245860       -0.03249621805663
25
 energy: 19.621980026620 xtb: 6.6.1 (8d0f1dd)
C            3.23626218996571        1.22920986211348        0.08604472435718
N            2.25965388900157        0.17123415872987        0.03880927825897
C            2.47178991995174       -1.15922228444023        0.03133729384005
N            1.36552616855375       -1.87450513586578        0.00509483366875
C            0.37451409148226       -0.95792179237762       -0.00531493312133
C            0.89337831983356        0.32902899891770        0.01545162240061
C            0.05850135706654        1.49355038316361       -0.00406957437585
O            0.42889363795952        2.65297637775267       -0.00161879253860
N           -1.29543578603407        1.14474625429781       -0.03055201462854
C           -2.27304168491666        2.22150492113029       -0.05096458349680
C           -1.84119112769796       -0.13390073746965       -0.04672610215381
O           -3.04067144639661       -0.29785546011641       -0.07148249645727
N           -0.96138956689714       -1.19440607254052       -0.03356447157679
C           -1.45177888205050       -2.55602951723550       -0.05763316412720
H            3.71809163992580        1.26179708989476        1.06564206620540
H            4.00006450568744        1.07120885020726       -0.67595862710581
H            2.73603145661704        2.18145933642645       -0.08970224406640
H            3.45651512627286       -1.58267153664261        0.04581832845920
H           -1.73165612166187        3.16338258784565       -0.02515433927547
H           -2.87952463239929        2.15709405547104       -0.95436893711308
H           -2.93498057089270        2.13943631488876        0.81103935952225
H           -1.09937503082052       -3.08537343197461        0.82699968499396
H           -1.07809008532670       -3.06410592673295       -0.94629607936880
H           -2.53801144869472       -2.51680354531191       -0.07114935926735
H            2.02944145740287       -4.74384003711199       -0.03271597064125
25