25
 energy: -41.955985614399 gnorm: 0.003891416275 xtb: 6.6.1 (8d0f1dd)
C            3.85165539782717        0.69181021869564       -0.32893076542582
N            3.28821026719113       -0.61389518600100       -0.04146966865280
C            3.59864518831952       -1.82330238467472        0.32784500913703
N            2.58934373479294       -2.78844302550832        0.50134550587884
C            1.34547862148170       -2.61936213856304        0.27236418849664
C            2.44283096623405        0.28023354910746       -0.45533522366295
C           -1.45624979296788        1.69721018416092        0.10140947803395
O           -0.55263417865018        0.95967981488004        0.05373091171365
N           -2.48319958821166        2.26093023212880        0.22936778684719
C           -3.33121527422895        3.38171964194763        0.11936842034049
C           -3.52809550926800       -0.13084071569089       -0.01391566408179
O           -4.59789614502554        0.22246563310805        0.03806970563917
N            0.19307638827795       -2.37408305377796        0.36177436367999
C           -1.03321450997904       -2.29305408829859       -0.30309524580753
H            4.20987417740250        1.26146759700013        0.52430779701953
H            4.46753420314869        0.78408237711768       -1.21726747062170
H            1.42562036463862        0.54858515403485       -0.33533177348442
H            4.61287641396958       -2.13227868786724        0.47968987218425
H           -2.78277000663813        4.30668886516099        0.30126093673922
H           -3.77903004970765        3.41133968926670       -0.87586712294801
H           -4.12095280245122        3.27607472697102        0.86386196479536
H           -1.74948353366738       -2.91181097999815        0.23911447383213
H           -0.97575691230147       -2.60398779558725       -1.34764438919475
H           -1.37908238879816       -1.25692229754811       -0.23394697303982
H            2.90486648273547       -3.71606878880140        0.77046550052997
25
 energy: -41.956253282776 gnorm: 0.004053946466 xtb: 6.6.1 (8d0f1dd)
C            3.86298351828491        0.69110088462549       -0.32837278139654
N            3.29657389449775       -0.61363753827401       -0.04182210448349
C            3.60368274175256       -1.82345579863634        0.32881833250662
N            2.59345172296146       -2.78804509907874        0.50180084352266
C            1.34971204293874       -2.61837167345788        0.27170127917753
C            2.45522159435956        0.28154654163938       -0.45944854361324
C           -1.45597510390839        1.70075920660758        0.09904375320350
O           -0.55231913888411        0.96344929446850        0.05542389829938
N           -2.47988406412391        2.26723366441348        0.23407603576258
C           -3.32923056997454        3.38646307118702        0.12091481921165
C           -3.59025013608107       -0.15543046436416       -0.01554452088663
O           -4.64779380162344        0.23453560274022        0.04051725710639
N            0.19613399138411       -2.37838950234336        0.36154591160495
C           -1.03054005889649       -2.29802199124637       -0.30343281496395
H            4.21674559165046        1.26265562736589        0.52511949873568
H            4.47968516740396        0.78356872854668       -1.21577141990630
H            1.43775291612134        0.55170844976757       -0.34235349993453
H            4.61716326951816       -2.13375395047618        0.48133873700947
H           -2.78254078425235        4.31211986399876        0.30337800961220
H           -3.77394256525778        3.41460359811499       -0.87538888198247
H           -4.12054685372232        3.28091147144813        0.86317830318380
H           -1.74694091259253       -2.91436631053440        0.24022981754614
H           -0.97393838404558       -2.61140275655141       -1.34684582209658
H           -1.37454368471580       -1.26180755727737       -0.23717752285911
H            2.90977112132937       -3.71573482142024        0.77024303358810
