25
 energy: -42.165903717891 gnorm: 0.006267588124 xtb: 6.6.1 (8d0f1dd)
C            3.47815500944369        1.33095938867253        0.03395838930996
N            3.00237877970718       -0.01723683140336        0.06259917969036
C            3.57350778325162       -1.23616060657282        0.08134810134422
N            2.38441335800115       -1.88660884818055        0.07928780611857
C            1.74146770713246       -0.64010468212590        0.06265268723385
C            0.44342601985865       -0.25530552160019        0.03004067630884
C           -0.11072359383780        1.13280673984628        0.00773309163585
O            0.45647521769124        2.19562218333660        0.00703727516879
N           -1.47921276098675        0.91876974004458       -0.02042654934272
C           -2.49024384771769        1.94398048683292       -0.04003786928680
C           -1.68966287452362       -0.43259232958791       -0.02042025481853
O           -2.88947461981151       -0.91869550346213       -0.05746490397314
N           -0.58427332170564       -1.14156312114316        0.01112497570236
C           -2.95828534391557       -2.34252755280844       -0.08415509693386
H            4.00389550086934        1.56917401021381        0.96084593714685
H            4.16413524882401        1.47035027382283       -0.80324793722306
H            2.62796008932398        2.00340702610889       -0.07480659270768
H            4.59045026614048       -1.56980113285893        0.09072451617204
H           -1.98539240070703        2.90673358635697       -0.10396909459341
H           -3.14416673877478        1.80814373893319       -0.90142501316139
H           -3.08840700560309        1.90133274249303        0.87095507689623
H           -2.46970406047564       -2.76482030263791        0.79462127817393
H           -2.47220301383050       -2.72736499819935       -0.98252866555133
H           -4.01613582793540       -2.59035563639643       -0.09127304978484
H            2.07205194367960       -2.83990430808664        0.11799765437528
