      -----------------------------------------------------------      
     |                   =====================                   |     
     |                           x T B                           |     
     |                   =====================                   |     
     |                         S. Grimme                         |     
     |          Mulliken Center for Theoretical Chemistry        |     
     |                    University of Bonn                     |     
      -----------------------------------------------------------      

   * xtb version 6.6.1 (8d0f1dd) compiled by 'conda@1efc2f54142f' on 2023-08-01

   xtb is free software: you can redistribute it and/or modify it under
   the terms of the GNU Lesser General Public License as published by
   the Free Software Foundation, either version 3 of the License, or
   (at your option) any later version.
   
   xtb is distributed in the hope that it will be useful,
   but WITHOUT ANY WARRANTY; without even the implied warranty of
   MERCHANTABILITY or FITNESS FOR A PARTICULAR PURPOSE.  See the
   GNU Lesser General Public License for more details.
   
   Cite this work as:
   * C. Bannwarth, E. Caldeweyher, S. Ehlert, A. Hansen, P. Pracht,
     J. Seibert, S. Spicher, S. Grimme, WIREs Comput. Mol. Sci., 2020, 11,
     e01493. DOI: 10.1002/wcms.1493
   
   for GFN2-xTB:
   * C. Bannwarth, S. Ehlert and S. Grimme., J. Chem. Theory Comput., 2019,
     15, 1652-1671. DOI: 10.1021/acs.jctc.8b01176
   for GFN1-xTB:
   * S. Grimme, C. Bannwarth, P. Shushkov, J. Chem. Theory Comput., 2017,
     13, 1989-2009. DOI: 10.1021/acs.jctc.7b00118
   for GFN0-xTB:
   * P. Pracht, E. Caldeweyher, S. Ehlert, S. Grimme, ChemRxiv, 2019, preprint.
     DOI: 10.26434/chemrxiv.8326202.v1
   for GFN-FF:
   * S. Spicher and S. Grimme, Angew. Chem. Int. Ed., 2020, 59, 15665-15673.
     DOI: 10.1002/anie.202004239
   
   for ALPB and GBSA implicit solvation:
   * S. Ehlert, M. Stahn, S. Spicher, S. Grimme, J. Chem. Theory Comput.,
     2021, 17, 4250-4261. DOI: 10.1021/acs.jctc.1c00471
   
   for DFT-D4:
   * E. Caldeweyher, C. Bannwarth and S. Grimme, J. Chem. Phys., 2017,
     147, 034112. DOI: 10.1063/1.4993215
   * E. Caldeweyher, S. Ehlert, A. Hansen, H. Neugebauer, S. Spicher,
     C. Bannwarth and S. Grimme, J. Chem. Phys., 2019, 150, 154122.
     DOI: 10.1063/1.5090222
   * E. Caldeweyher, J.-M. Mewes, S. Ehlert and S. Grimme, Phys. Chem. Chem. Phys.
     2020, 22, 8499-8512. DOI: 10.1039/D0CP00502A
   
   for sTDA-xTB:
   * S. Grimme and C. Bannwarth, J. Chem. Phys., 2016, 145, 054103.
     DOI: 10.1063/1.4959605
   
   in the mass-spec context:
   * V. Asgeirsson, C. Bauer and S. Grimme, Chem. Sci., 2017, 8, 4879.
     DOI: 10.1039/c7sc00601b
   * J. Koopman and S. Grimme, ACS Omega 2019, 4, 12, 15120-15133.
     DOI: 10.1021/acsomega.9b02011
   
   for metadynamics refer to:
   * S. Grimme, J. Chem. Theory Comput., 2019, 155, 2847-2862
     DOI: 10.1021/acs.jctc.9b00143
   
   for SPH calculations refer to:
   * S. Spicher and S. Grimme, J. Chem. Theory Comput., 2021, 17, 1701-1714
     DOI: 10.1021/acs.jctc.0c01306
   
   with help from (in alphabetical order)
   P. Atkinson, C. Bannwarth, F. Bohle, G. Brandenburg, E. Caldeweyher
   M. Checinski, S. Dohm, S. Ehlert, S. Ehrlich, I. Gerasimov, C. Hölzer
   A. Katbashev, J. Koopman, C. Lavigne, S. Lehtola, F. März, M. Müller,
   F. Musil, H. Neugebauer, J. Pisarek, C. Plett, P. Pracht, F. Pultar,
   J. Seibert, P. Shushkov, S. Spicher, M. Stahn, M. Steiner, T. Strunk,
   J. Stückrath, T. Rose, and J. Unsleber
   
 * started run on 2024/04/06 at 11:12:07.825     

           -------------------------------------------------
          |                Calculation Setup                |
           -------------------------------------------------

          program call               : xtb struc.xyz --opt loose --input .xc1 --gfn2
          hostname                   : n-62-30-23
          coordinate file            : struc.xyz
          omp threads                :                     1

   ID    Z sym.   atoms
    1    7 N      1, 17
    2    6 C      2-6, 8, 9, 11-16, 18-23, 25, 26, 28-33
    3    8 O      7, 10, 24, 27
    4    1 H      34-72
constraining bond 4 14 to    5.0000000 Å, actual value:    2.5096760 Å

           -------------------------------------------------
          |                 G F N 2 - x T B                 |
           -------------------------------------------------

        Reference                      10.1021/acs.jctc.8b01176
      * Hamiltonian:
        H0-scaling (s, p, d)           1.850000    2.230000    2.230000
        zeta-weighting                 0.500000
      * Dispersion:
        s8                             2.700000
        a1                             0.520000
        a2                             5.000000
        s9                             5.000000
      * Repulsion:
        kExp                           1.500000    1.000000
        rExp                           1.000000
      * Coulomb:
        alpha                          2.000000
        third order                    shell-resolved
        anisotropic                    true
        a3                             3.000000
        a5                             4.000000
        cn-shift                       1.200000
        cn-exp                         4.000000
        max-rad                        5.000000


          ...................................................
          :                      SETUP                      :
          :.................................................:
          :  # basis functions                 171          :
          :  # atomic orbitals                 171          :
          :  # shells                          105          :
          :  # electrons                       180          :
          :  max. iterations                   250          :
          :  Hamiltonian                  GFN2-xTB          :
          :  restarted?                      false          :
          :  GBSA solvation                  false          :
          :  PC potential                    false          :
          :  electronic temp.         5000.0000000     K    :
          :  accuracy                    1.0000000          :
          :  -> integral cutoff          0.2500000E+02      :
          :  -> integral neglect         0.1000000E-07      :
          :  -> SCF convergence          0.1000000E-05 Eh   :
          :  -> wf. convergence          0.1000000E-03 e    :
          :  Broyden damping             0.4000000          :
          ...................................................

 iter      E             dE          RMSdq      gap      omega  full diag
   1   -100.5973919 -0.100597E+03  0.374E+00    3.20       0.0  T
   2   -100.7362642 -0.138872E+00  0.221E+00    1.08       1.0  T
   3   -100.7049001  0.313641E-01  0.141E+00    3.29       1.0  T
   4   -100.7721690 -0.672689E-01  0.526E-01    1.50       1.0  T
   5   -100.7894292 -0.172602E-01  0.190E-01    1.98       1.0  T
   6   -100.7911978 -0.176856E-02  0.792E-02    1.77       1.0  T
   7   -100.7914750 -0.277198E-03  0.375E-02    1.83       1.0  T
   8   -100.7914914 -0.164582E-04  0.140E-02    1.83       1.0  T
   9   -100.7914976 -0.616739E-05  0.474E-03    1.82       2.5  T
  10   -100.7914988 -0.118227E-05  0.172E-03    1.82       6.8  T
  11   -100.7914989 -0.139928E-06  0.766E-04    1.82      15.4  T
  12   -100.7914989 -0.773143E-08  0.318E-04    1.82      37.0  T

   *** convergence criteria satisfied after 12 iterations ***

         #    Occupation            Energy/Eh            Energy/eV
      -------------------------------------------------------------
         1        2.0000           -0.8078051             -21.9815
       ...           ...                  ...                  ...
        84        1.9966           -0.5157491             -14.0342
        85        1.9959           -0.5128261             -13.9547
        86        1.9840           -0.4911498             -13.3649
        87        1.9795           -0.4872543             -13.2589
        88        1.9640           -0.4782114             -13.0128
        89        1.8920           -0.4602041             -12.5228
        90        1.8557           -0.4553147             -12.3897 (HOMO)
        91        0.3166           -0.3884132             -10.5693 (LUMO)
        92        0.0218           -0.3434697              -9.3463
        93        0.0041           -0.3169887              -8.6257
        94        0.0034           -0.3139726              -8.5436
        95        0.0029           -0.3112618              -8.4699
       ...           ...                  ...                  ...
       171                          0.5822580              15.8440
      -------------------------------------------------------------
                  HL-Gap            0.0669015 Eh            1.8205 eV
             Fermi-level           -0.4148687 Eh          -11.2892 eV

 SCC (total)                   0 d,  0 h,  0 min,  0.190 sec
 SCC setup                      ...        0 min,  0.002 sec (  0.791%)
 Dispersion                     ...        0 min,  0.003 sec (  1.321%)
 classical contributions        ...        0 min,  0.001 sec (  0.356%)
 integral evaluation            ...        0 min,  0.018 sec (  9.656%)
 iterations                     ...        0 min,  0.097 sec ( 50.955%)
 molecular gradient             ...        0 min,  0.069 sec ( 36.576%)
 printout                       ...        0 min,  0.001 sec (  0.336%)

         :::::::::::::::::::::::::::::::::::::::::::::::::::::
         ::                     SUMMARY                     ::
         :::::::::::::::::::::::::::::::::::::::::::::::::::::
         :: total energy             -98.296795020023 Eh    ::
         :: gradient norm              0.664017863254 Eh/a0 ::
         :: HOMO-LUMO gap              1.820481192090 eV    ::
         ::.................................................::
         :: SCC energy              -100.791498925389 Eh    ::
         :: -> isotropic ES            0.109302908418 Eh    ::
         :: -> anisotropic ES          0.005415138735 Eh    ::
         :: -> anisotropic XC          0.042392697176 Eh    ::
         :: -> dispersion             -0.075527661009 Eh    ::
         :: repulsion energy           1.386151658689 Eh    ::
         :: add. restraining           1.107335894171 Eh    ::
         :: total charge               1.000000000108 e     ::
         :::::::::::::::::::::::::::::::::::::::::::::::::::::

      ----------------------------------------------------------- 
     |                   =====================                   |
     |                        A N C O P T                        |
     |                   =====================                   |
     |               Approximate Normal Coordinate               |
     |                Rational Function Optimizer                |
      ----------------------------------------------------------- 

          ...................................................
          :                      SETUP                      :
          :.................................................:
          :   optimization level             loose          :
          :   max. optcycles                   200          :
          :   ANC micro-cycles                  20          :
          :   degrees of freedom               210          :
          :.................................................:
          :   RF solver                   davidson          :
          :   write xtbopt.log                true          :
          :   linear?                        false          :
          :   energy convergence         0.5000000E-04 Eh   :
          :   grad. convergence          0.4000000E-02 Eh/α :
          :   maxmium RF displ.          1.0000000          :
          :   Hlow (freq-cutoff)         0.1000000E-01      :
          :   Hmax (freq-cutoff)         5.0000000          :
          :   S6 in model hess.         20.0000000          :
          ...................................................

generating ANC from model Hessian ...
Using Lindh-Hessian (1995)
 Shifting diagonal of input Hessian by    4.5723385188694045E-002
 Lowest  eigenvalues of input Hessian
    0.010000    0.026237    0.000000    0.000000    0.000000    0.000000
    0.000000    0.000000    0.045802    0.045914    0.045995    0.046029
    0.046198    0.046477    0.046638    0.046984    0.047217    0.047637
 Highest eigenvalues
    2.071618    2.079971    2.087305    2.214591    2.220222    2.222114


........................................................................
.............................. CYCLE    1 ..............................
........................................................................

 iter      E             dE          RMSdq      gap      omega  full diag
   1   -100.7914989 -0.100791E+03  0.114E-04    1.82       0.0  T
   2   -100.7914989 -0.678995E-10  0.713E-05    1.82     165.2  T
   3   -100.7914989  0.665210E-10  0.496E-05    1.82     237.5  T
     SCC iter.                  ...        0 min,  0.026 sec
     gradient                   ...        0 min,  0.069 sec
 * total energy  :   -98.2967950 Eh     change       -0.4035485E-08 Eh
   gradient norm :     0.6640181 Eh/α   predicted     0.0000000E+00 (-100.00%)
   displ. norm   :     0.6517724 α      lambda       -0.3829695E+00
   maximum displ.:     0.2446065 α      in ANC's #138, #128, #53, ...

........................................................................
.............................. CYCLE    2 ..............................
........................................................................

 iter      E             dE          RMSdq      gap      omega  full diag
   1   -100.7519055 -0.100752E+03  0.479E-01    1.74       0.0  T
   2   -100.7528090 -0.903554E-03  0.310E-01    1.89       1.0  T
   3   -100.7508964  0.191267E-02  0.191E-01    1.65       1.0  T
   4   -100.7530521 -0.215572E-02  0.798E-02    1.91       1.0  T
   5   -100.7537111 -0.658992E-03  0.100E-02    1.81       1.2  T
   6   -100.7537160 -0.489600E-05  0.498E-03    1.82       2.4  T
   7   -100.7537162 -0.249887E-06  0.222E-03    1.81       5.3  T
   8   -100.7537164 -0.194786E-06  0.579E-04    1.81      20.4  T
   9   -100.7537164 -0.961349E-08  0.267E-04    1.81      44.2  T
     SCC iter.                  ...        0 min,  0.073 sec
     gradient                   ...        0 min,  0.073 sec
 * total energy  :   -98.5989451 Eh     change       -0.3021500E+00 Eh
   gradient norm :     0.3757647 Eh/α   predicted    -0.2728424E+00 (  -9.70%)
   displ. norm   :     0.6778719 α      lambda       -0.2268713E+00
   maximum displ.:     0.2361511 α      in ANC's #128, #138, #53, ...

........................................................................
.............................. CYCLE    3 ..............................
........................................................................

 iter      E             dE          RMSdq      gap      omega  full diag
   1   -100.6488441 -0.100649E+03  0.420E-01    1.73       0.0  T
   2   -100.6489750 -0.130851E-03  0.276E-01    1.90       1.0  T
   3   -100.6480458  0.929115E-03  0.210E-01    1.68       1.0  T
   4   -100.6506670 -0.262119E-02  0.469E-02    1.85       1.0  T
   5   -100.6508393 -0.172254E-03  0.189E-02    1.79       1.0  T
   6   -100.6508711 -0.318337E-04  0.611E-03    1.81       1.9  T
   7   -100.6508717 -0.578563E-06  0.238E-03    1.81       5.0  T
   8   -100.6508718 -0.854670E-07  0.744E-04    1.81      15.8  T
   9   -100.6508718 -0.247944E-07  0.297E-04    1.81      39.7  T
     SCC iter.                  ...        0 min,  0.073 sec
     gradient                   ...        0 min,  0.069 sec
 * total energy  :   -98.7805571 Eh     change       -0.1816120E+00 Eh
   gradient norm :     0.2306204 Eh/α   predicted    -0.1655631E+00 (  -8.84%)
   displ. norm   :     0.7066873 α      lambda       -0.1459432E+00
   maximum displ.:     0.2282662 α      in ANC's #53, #128, #45, ...

........................................................................
.............................. CYCLE    4 ..............................
........................................................................

 iter      E             dE          RMSdq      gap      omega  full diag
   1   -100.5468875 -0.100547E+03  0.356E-01    1.74       0.0  T
   2   -100.5454607  0.142674E-02  0.254E-01    1.91       1.0  T
   3   -100.5453287  0.132006E-03  0.239E-01    1.74       1.0  T
   4   -100.5486994 -0.337067E-02  0.695E-02    1.77       1.0  T
   5   -100.5490911 -0.391658E-03  0.263E-02    1.83       1.0  T
   6   -100.5491399 -0.488610E-04  0.101E-02    1.81       1.2  T
   7   -100.5491436 -0.363435E-05  0.616E-03    1.82       1.9  T
   8   -100.5491451 -0.152801E-05  0.225E-03    1.82       5.2  T
   9   -100.5491454 -0.322528E-06  0.679E-04    1.82      17.4  T
  10   -100.5491454 -0.855836E-08  0.386E-04    1.82      30.5  T
     SCC iter.                  ...        0 min,  0.080 sec
     gradient                   ...        0 min,  0.069 sec
 * total energy  :   -98.8997186 Eh     change       -0.1191615E+00 Eh
   gradient norm :     0.1519804 Eh/α   predicted    -0.1094142E+00 (  -8.18%)
   displ. norm   :     0.7335889 α      lambda       -0.9951786E-01
   maximum displ.:     0.2385642 α      in ANC's #53, #45, #56, ...

........................................................................
.............................. CYCLE    5 ..............................
........................................................................

 iter      E             dE          RMSdq      gap      omega  full diag
   1   -100.4827369 -0.100483E+03  0.367E-01    1.76       0.0  T
   2   -100.4704164  0.123205E-01  0.442E-01    1.73       1.0  T
   3   -100.4876800 -0.172636E-01  0.169E-01    1.84       1.0  T
   4   -100.4871585  0.521505E-03  0.104E-01    1.80       1.0  T
   5   -100.4881312 -0.972715E-03  0.582E-02    1.81       1.0  T
   6   -100.4885485 -0.417307E-03  0.270E-02    1.85       1.0  T
   7   -100.4885973 -0.487938E-04  0.884E-03    1.85       1.3  T
   8   -100.4885992 -0.190713E-05  0.665E-03    1.84       1.8  T
   9   -100.4886013 -0.210544E-05  0.278E-03    1.84       4.2  T
  10   -100.4886020 -0.664893E-06  0.809E-04    1.84      14.6  T
  11   -100.4886020 -0.170744E-07  0.393E-04    1.84      30.0  T
     SCC iter.                  ...        0 min,  0.088 sec
     gradient                   ...        0 min,  0.069 sec
 * total energy  :   -98.9825089 Eh     change       -0.8279037E-01 Eh
   gradient norm :     0.1054962 Eh/α   predicted    -0.7653687E-01 (  -7.55%)
   displ. norm   :     0.7591698 α      lambda       -0.7051838E-01
   maximum displ.:     0.2338679 α      in ANC's #45, #53, #56, ...

........................................................................
.............................. CYCLE    6 ..............................
........................................................................

 iter      E             dE          RMSdq      gap      omega  full diag
   1   -100.4456425 -0.100446E+03  0.399E-01    1.23       0.0  T
   2   -100.3828944  0.627481E-01  0.870E-01    1.31       1.0  T
   3   -100.4528521 -0.699577E-01  0.171E-01    1.26       1.0  T
   4   -100.4416922  0.111599E-01  0.304E-01    1.32       1.0  T
   5   -100.4535012 -0.118090E-01  0.749E-02    1.27       1.0  T
   6   -100.4539279 -0.426680E-03  0.340E-02    1.28       1.0  T
   7   -100.4540405 -0.112581E-03  0.114E-02    1.28       1.0  T
   8   -100.4540456 -0.516060E-05  0.781E-03    1.28       1.5  T
   9   -100.4540497 -0.402751E-05  0.263E-03    1.28       4.5  T
  10   -100.4540500 -0.337884E-06  0.885E-04    1.28      13.3  T
  11   -100.4540500 -0.326385E-07  0.381E-04    1.28      30.9  T
     SCC iter.                  ...        0 min,  0.088 sec
     gradient                   ...        0 min,  0.069 sec
 * total energy  :   -99.0390798 Eh     change       -0.5657091E-01 Eh
   gradient norm :     0.0779992 Eh/α   predicted    -0.5558046E-01 (  -1.75%)
   displ. norm   :     0.7172595 α      lambda       -0.4348443E-01
   maximum displ.:     0.2471824 α      in ANC's #45, #56, #51, ...

........................................................................
.............................. CYCLE    7 ..............................
........................................................................

 iter      E             dE          RMSdq      gap      omega  full diag
   1   -100.4608074 -0.100461E+03  0.313E-01    0.88       0.0  T
   2   -100.3909891  0.698183E-01  0.860E-01    1.02       1.0  T
   3   -100.4652101 -0.742210E-01  0.147E-01    0.88       1.0  T
   4   -100.4609713  0.423877E-02  0.206E-01    0.90       1.0  T
   5   -100.4658200 -0.484875E-02  0.718E-02    0.88       1.0  T
   6   -100.4663164 -0.496415E-03  0.128E-02    0.89       1.0  T
   7   -100.4663269 -0.104768E-04  0.662E-03    0.89       1.8  T
   8   -100.4663289 -0.197129E-05  0.443E-03    0.89       2.7  T
   9   -100.4663292 -0.343751E-06  0.305E-03    0.89       3.9  T
  10   -100.4663303 -0.109628E-05  0.714E-04    0.89      16.5  T
  11   -100.4663304 -0.327856E-07  0.419E-04    0.89      28.2  T
  12   -100.4663304 -0.129379E-07  0.162E-04    0.89      72.6  T
     SCC iter.                  ...        0 min,  0.096 sec
     gradient                   ...        0 min,  0.068 sec
 * total energy  :   -99.0733449 Eh     change       -0.3426511E-01 Eh
   gradient norm :     0.0806846 Eh/α   predicted    -0.3292778E-01 (  -3.90%)
   displ. norm   :     0.6930725 α      lambda       -0.3066391E-01
   maximum displ.:     0.2529156 α      in ANC's #45, #56, #1, ...

........................................................................
.............................. CYCLE    8 ..............................
........................................................................

 iter      E             dE          RMSdq      gap      omega  full diag
   1   -100.4756069 -0.100476E+03  0.281E-01    0.67       0.0  T
   2   -100.4532876  0.223193E-01  0.482E-01    0.74       1.0  T
   3   -100.4742525 -0.209649E-01  0.231E-01    0.68       1.0  T
   4   -100.4667436  0.750889E-02  0.308E-01    0.68       1.0  T
   5   -100.4776732 -0.109296E-01  0.779E-02    0.68       1.0  T
   6   -100.4782845 -0.611336E-03  0.290E-02    0.68       1.0  T
   7   -100.4783808 -0.962780E-04  0.961E-03    0.68       1.2  T
   8   -100.4783855 -0.468835E-05  0.565E-03    0.68       2.1  T
   9   -100.4783873 -0.182659E-05  0.239E-03    0.68       4.9  T
  10   -100.4783877 -0.426409E-06  0.889E-04    0.68      13.2  T
  11   -100.4783878 -0.566417E-07  0.468E-04    0.68      25.2  T
     SCC iter.                  ...        0 min,  0.089 sec
     gradient                   ...        0 min,  0.069 sec
 * total energy  :   -99.0979369 Eh     change       -0.2459195E-01 Eh
   gradient norm :     0.0762487 Eh/α   predicted    -0.2269667E-01 (  -7.71%)
   displ. norm   :     0.7712558 α      lambda       -0.3075134E-01
   maximum displ.:     0.3053260 α      in ANC's #45, #56, #51, ...

........................................................................
.............................. CYCLE    9 ..............................
........................................................................

 iter      E             dE          RMSdq      gap      omega  full diag
   1   -100.5185080 -0.100519E+03  0.389E-01    0.51       0.0  T
   2   -100.5061758  0.123322E-01  0.384E-01    0.55       1.0  T
   3   -100.4912218  0.149540E-01  0.548E-01    0.61       1.0  T
   4   -100.5069051 -0.156832E-01  0.344E-01    0.53       1.0  T
   5   -100.5196690 -0.127640E-01  0.362E-02    0.51       1.0  T
   6   -100.5197444 -0.753995E-04  0.159E-02    0.51       1.0  T
   7   -100.5197661 -0.216632E-04  0.745E-03    0.51       1.6  T
   8   -100.5197697 -0.357258E-05  0.351E-03    0.51       3.4  T
   9   -100.5197698 -0.123494E-06  0.197E-03    0.51       6.0  T
  10   -100.5197702 -0.420534E-06  0.623E-04    0.51      18.9  T
  11   -100.5197702 -0.212559E-07  0.361E-04    0.51      32.6  T
     SCC iter.                  ...        0 min,  0.088 sec
     gradient                   ...        0 min,  0.069 sec
 * total energy  :   -99.1235271 Eh     change       -0.2559016E-01 Eh
   gradient norm :     0.0912277 Eh/α   predicted    -0.2452168E-01 (  -4.18%)
   displ. norm   :     0.7375525 α      lambda       -0.3297180E-01
   maximum displ.:     0.2981159 α      in ANC's #45, #56, #20, ...

........................................................................
.............................. CYCLE   10 ..............................
........................................................................

 iter      E             dE          RMSdq      gap      omega  full diag
   1   -100.5331946 -0.100533E+03  0.491E-01    0.40       0.0  T
   2   -100.5016965  0.314982E-01  0.591E-01    0.40       1.0  T
   3   -100.5269484 -0.252520E-01  0.387E-01    0.42       1.0  T
   4   -100.5243175  0.263100E-02  0.357E-01    0.45       1.0  T
   5   -100.5357051 -0.113877E-01  0.190E-01    0.41       1.0  T
   6   -100.5390262 -0.332102E-02  0.313E-02    0.40       1.0  T
   7   -100.5391072 -0.809796E-04  0.101E-02    0.40       1.2  T
   8   -100.5391062  0.928823E-06  0.840E-03    0.40       1.4  T
   9   -100.5391100 -0.380643E-05  0.415E-03    0.40       2.8  T
  10   -100.5391113 -0.126434E-05  0.120E-03    0.40       9.9  T
  11   -100.5391115 -0.171193E-06  0.442E-04    0.40      26.7  T
  12   -100.5391115 -0.111504E-07  0.205E-04    0.40      57.4  T
     SCC iter.                  ...        0 min,  0.098 sec
     gradient                   ...        0 min,  0.068 sec
 * total energy  :   -99.1507342 Eh     change       -0.2720716E-01 Eh
   gradient norm :     0.0838750 Eh/α   predicted    -0.2545397E-01 (  -6.44%)
   displ. norm   :     0.7285114 α      lambda       -0.3090683E-01
   maximum displ.:     0.3040440 α      in ANC's #45, #56, #43, ...

........................................................................
.............................. CYCLE   11 ..............................
........................................................................

 iter      E             dE          RMSdq      gap      omega  full diag
   1   -100.5489520 -0.100549E+03  0.482E-01    0.30       0.0  T
   2   -100.5099754  0.389766E-01  0.696E-01    0.53       1.0  T
   3   -100.5384600 -0.284846E-01  0.445E-01    0.38       1.0  T
   4   -100.5332077  0.525228E-02  0.446E-01    0.36       1.0  T
   5   -100.5526023 -0.193946E-01  0.704E-02    0.27       1.0  T
   6   -100.5531246 -0.522242E-03  0.192E-02    0.28       1.0  T
   7   -100.5531516 -0.270025E-04  0.828E-03    0.28       1.4  T
   8   -100.5531549 -0.335893E-05  0.410E-03    0.28       2.9  T
   9   -100.5531554 -0.435410E-06  0.224E-03    0.28       5.3  T
  10   -100.5531558 -0.445125E-06  0.770E-04    0.28      15.3  T
  11   -100.5531559 -0.477433E-07  0.339E-04    0.28      34.8  T
     SCC iter.                  ...        0 min,  0.089 sec
     gradient                   ...        0 min,  0.068 sec
 * total energy  :   -99.1765552 Eh     change       -0.2582098E-01 Eh
   gradient norm :     0.1150193 Eh/α   predicted    -0.2365500E-01 (  -8.39%)
   displ. norm   :     0.6691003 α      lambda       -0.3662373E-01
   maximum displ.:     0.2039568 α      in ANC's #45, #154, #56, ...

........................................................................
.............................. CYCLE   12 ..............................
........................................................................

 iter      E             dE          RMSdq      gap      omega  full diag
   1   -100.5696903 -0.100570E+03  0.418E-01    0.22       0.0  T
   2   -100.5266137  0.430766E-01  0.722E-01    0.49       1.0  T
   3   -100.5671878 -0.405741E-01  0.326E-01    0.27       1.0  T
   4   -100.5593801  0.780768E-02  0.392E-01    0.24       1.0  T
   5   -100.5738221 -0.144421E-01  0.444E-02    0.17       1.0  T
   6   -100.5740065 -0.184410E-03  0.147E-02    0.18       1.0  T
   7   -100.5740252 -0.186058E-04  0.676E-03    0.18       1.7  T
   8   -100.5740272 -0.200955E-05  0.331E-03    0.18       3.6  T
   9   -100.5740278 -0.635055E-06  0.913E-04    0.18      12.9  T
  10   -100.5740278 -0.385065E-07  0.408E-04    0.18      28.9  T
     SCC iter.                  ...        0 min,  0.081 sec
     gradient                   ...        0 min,  0.068 sec
 * total energy  :   -99.2072821 Eh     change       -0.3072693E-01 Eh
   gradient norm :     0.1349323 Eh/α   predicted    -0.2651000E-01 ( -13.72%)
   displ. norm   :     0.6241605 α      lambda       -0.4864157E-01
   maximum displ.:     0.2114979 α      in ANC's #154, #161, #56, ...

........................................................................
.............................. CYCLE   13 ..............................
........................................................................

 iter      E             dE          RMSdq      gap      omega  full diag
   1   -100.5925241 -0.100593E+03  0.361E-01    0.30       0.0  T
   2   -100.5136746  0.788495E-01  0.935E-01    0.59       1.0  T
   3   -100.5986148 -0.849402E-01  0.200E-01    0.16       1.0  T
   4   -100.5948145  0.380035E-02  0.243E-01    0.14       1.0  T
   5   -100.5996627 -0.484822E-02  0.617E-02    0.14       1.0  T
   6   -100.5999581 -0.295370E-03  0.184E-02    0.15       1.0  T
   7   -100.5999902 -0.321032E-04  0.808E-03    0.14       1.5  T
   8   -100.5999942 -0.400948E-05  0.379E-03    0.15       3.1  T
   9   -100.5999950 -0.760753E-06  0.118E-03    0.15       9.9  T
  10   -100.5999950 -0.504732E-07  0.438E-04    0.15      26.9  T
  11   -100.5999950 -0.105345E-07  0.184E-04    0.15      64.1  T
     SCC iter.                  ...        0 min,  0.089 sec
     gradient                   ...        0 min,  0.074 sec
 * total energy  :   -99.2368770 Eh     change       -0.2959493E-01 Eh
   gradient norm :     0.1273239 Eh/α   predicted    -0.3379560E-01 (  14.19%)
   displ. norm   :     0.3726833 α      lambda       -0.3226596E-01
   maximum displ.:     0.1055774 α      in ANC's #56, #2, #194, ...

........................................................................
.............................. CYCLE   14 ..............................
........................................................................

 iter      E             dE          RMSdq      gap      omega  full diag
   1   -100.6053730 -0.100605E+03  0.240E-01    0.22       0.0  T
   2   -100.5838609  0.215121E-01  0.481E-01    0.26       1.0  T
   3   -100.6047818 -0.209208E-01  0.187E-01    0.24       1.0  T
   4   -100.6064071 -0.162534E-02  0.723E-02    0.16       1.0  T
   5   -100.6067375 -0.330411E-03  0.385E-02    0.16       1.0  T
   6   -100.6069053 -0.167774E-03  0.638E-03    0.15       1.8  T
   7   -100.6069073 -0.205925E-05  0.368E-03    0.16       3.2  T
   8   -100.6069083 -0.917229E-06  0.133E-03    0.15       8.9  T
   9   -100.6069084 -0.953053E-07  0.492E-04    0.15      23.9  T
  10   -100.6069084 -0.169865E-07  0.209E-04    0.15      56.4  T
     SCC iter.                  ...        0 min,  0.081 sec
     gradient                   ...        0 min,  0.068 sec
 * total energy  :   -99.2552074 Eh     change       -0.1833039E-01 Eh
   gradient norm :     0.0571918 Eh/α   predicted    -0.1837378E-01 (   0.24%)
   displ. norm   :     0.5368115 α      lambda       -0.1738364E-01
   maximum displ.:     0.1855947 α      in ANC's #36, #37, #56, ...

........................................................................
.............................. CYCLE   15 ..............................
........................................................................

 iter      E             dE          RMSdq      gap      omega  full diag
   1   -100.6379612 -0.100638E+03  0.158E-01    0.15       0.0  T
   2   -100.6332732  0.468797E-02  0.267E-01    0.27       1.0  T
   3   -100.6382479 -0.497474E-02  0.103E-01    0.14       1.0  T
   4   -100.6363605  0.188749E-02  0.146E-01    0.24       1.0  T
   5   -100.6385227 -0.216221E-02  0.361E-02    0.16       1.0  T
   6   -100.6386307 -0.108056E-03  0.109E-02    0.17       1.1  T
   7   -100.6386364 -0.570170E-05  0.597E-03    0.17       2.0  T
   8   -100.6386383 -0.187114E-05  0.291E-03    0.17       4.0  T
   9   -100.6386391 -0.779492E-06  0.642E-04    0.16      18.4  T
  10   -100.6386391 -0.128108E-07  0.262E-04    0.16      44.9  T
     SCC iter.                  ...        0 min,  0.081 sec
     gradient                   ...        0 min,  0.068 sec
 * total energy  :   -99.2682933 Eh     change       -0.1308583E-01 Eh
   gradient norm :     0.0433531 Eh/α   predicted    -0.1119652E-01 ( -14.44%)
   displ. norm   :     0.5861736 α      lambda       -0.1336850E-01
   maximum displ.:     0.2540223 α      in ANC's #36, #37, #38, ...

........................................................................
.............................. CYCLE   16 ..............................
........................................................................

 iter      E             dE          RMSdq      gap      omega  full diag
   1   -100.6583822 -0.100658E+03  0.187E-01    0.15       0.0  T
   2   -100.6493168  0.906540E-02  0.332E-01    0.35       1.0  T
   3   -100.6581793 -0.886245E-02  0.138E-01    0.14       1.0  T
   4   -100.6589096 -0.730281E-03  0.661E-02    0.19       1.0  T
   5   -100.6591000 -0.190411E-03  0.421E-02    0.16       1.0  T
   6   -100.6592940 -0.194047E-03  0.655E-03    0.17       1.8  T
   7   -100.6592967 -0.267080E-05  0.310E-03    0.17       3.8  T
   8   -100.6592973 -0.629595E-06  0.176E-03    0.17       6.7  T
   9   -100.6592976 -0.225130E-06  0.569E-04    0.17      20.7  T
  10   -100.6592976 -0.134254E-07  0.213E-04    0.17      55.3  T
     SCC iter.                  ...        0 min,  0.080 sec
     gradient                   ...        0 min,  0.070 sec
 * total energy  :   -99.2783351 Eh     change       -0.1004187E-01 Eh
   gradient norm :     0.0316249 Eh/α   predicted    -0.8980952E-02 ( -10.56%)
   displ. norm   :     0.6239998 α      lambda       -0.9950885E-02
   maximum displ.:     0.2714888 α      in ANC's #36, #37, #38, ...

........................................................................
.............................. CYCLE   17 ..............................
........................................................................

 iter      E             dE          RMSdq      gap      omega  full diag
   1   -100.6746134 -0.100675E+03  0.175E-01    0.15       0.0  T
   2   -100.6727365  0.187684E-02  0.169E-01    0.25       1.0  T
   3   -100.6698837  0.285287E-02  0.238E-01    0.14       1.0  T
   4   -100.6746088 -0.472518E-02  0.741E-02    0.17       1.0  T
   5   -100.6748553 -0.246447E-03  0.423E-02    0.18       1.0  T
   6   -100.6750160 -0.160685E-03  0.798E-03    0.17       1.5  T
   7   -100.6750210 -0.506843E-05  0.381E-03    0.17       3.1  T
   8   -100.6750219 -0.808190E-06  0.222E-03    0.17       5.3  T
   9   -100.6750222 -0.395881E-06  0.494E-04    0.17      23.9  T
  10   -100.6750223 -0.719376E-08  0.184E-04    0.17      64.2  T
     SCC iter.                  ...        0 min,  0.081 sec
     gradient                   ...        0 min,  0.074 sec
 * total energy  :   -99.2856487 Eh     change       -0.7313541E-02 Eh
   gradient norm :     0.0330151 Eh/α   predicted    -0.6912760E-02 (  -5.48%)
   displ. norm   :     0.5911704 α      lambda       -0.7218844E-02
   maximum displ.:     0.2700761 α      in ANC's #36, #37, #2, ...

........................................................................
.............................. CYCLE   18 ..............................
........................................................................

 iter      E             dE          RMSdq      gap      omega  full diag
   1   -100.6762814 -0.100676E+03  0.180E-01    0.13       0.0  T
   2   -100.6693426  0.693874E-02  0.278E-01    0.33       1.0  T
   3   -100.6746264 -0.528374E-02  0.179E-01    0.12       1.0  T
   4   -100.6763473 -0.172093E-02  0.826E-02    0.14       1.0  T
   5   -100.6768400 -0.492734E-03  0.430E-02    0.17       1.0  T
   6   -100.6769985 -0.158449E-03  0.555E-03    0.16       2.1  T
   7   -100.6769999 -0.145678E-05  0.349E-03    0.16       3.4  T
   8   -100.6770005 -0.598560E-06  0.175E-03    0.16       6.7  T
   9   -100.6770008 -0.271486E-06  0.633E-04    0.16      18.6  T
  10   -100.6770008 -0.206904E-07  0.207E-04    0.16      56.8  T
     SCC iter.                  ...        0 min,  0.081 sec
     gradient                   ...        0 min,  0.068 sec
 * total energy  :   -99.2907064 Eh     change       -0.5057766E-02 Eh
   gradient norm :     0.0247703 Eh/α   predicted    -0.4870856E-02 (  -3.70%)
   displ. norm   :     0.5303038 α      lambda       -0.4739919E-02
   maximum displ.:     0.2271786 α      in ANC's #36, #37, #56, ...

........................................................................
.............................. CYCLE   19 ..............................
........................................................................

 iter      E             dE          RMSdq      gap      omega  full diag
   1   -100.6776282 -0.100678E+03  0.176E-01    0.10       0.0  T
   2   -100.6653409  0.122873E-01  0.366E-01    0.38       1.0  T
   3   -100.6778999 -0.125589E-01  0.118E-01    0.11       1.0  T
   4   -100.6777775  0.122336E-03  0.916E-02    0.12       1.0  T
   5   -100.6786159 -0.838350E-03  0.268E-02    0.14       1.0  T
   6   -100.6786718 -0.559062E-04  0.511E-03    0.14       2.3  T
   7   -100.6786718 -0.460540E-07  0.400E-03    0.14       2.9  T
   8   -100.6786730 -0.111943E-05  0.184E-03    0.14       6.4  T
   9   -100.6786732 -0.277160E-06  0.470E-04    0.14      25.1  T
  10   -100.6786732 -0.137415E-07  0.202E-04    0.14      58.3  T
     SCC iter.                  ...        0 min,  0.080 sec
     gradient                   ...        0 min,  0.068 sec
 * total energy  :   -99.2942794 Eh     change       -0.3572980E-02 Eh
   gradient norm :     0.0246394 Eh/α   predicted    -0.3036448E-02 ( -15.02%)
   displ. norm   :     0.5192730 α      lambda       -0.4005639E-02
   maximum displ.:     0.2245924 α      in ANC's #36, #37, #56, ...

........................................................................
.............................. CYCLE   20 ..............................
........................................................................

 iter      E             dE          RMSdq      gap      omega  full diag
   1   -100.6846654 -0.100685E+03  0.196E-01    0.08       0.0  T
   2   -100.6726323  0.120331E-01  0.363E-01    0.36       1.0  T
   3   -100.6842190 -0.115867E-01  0.150E-01    0.09       1.0  T
   4   -100.6840451  0.173861E-03  0.128E-01    0.10       1.0  T
   5   -100.6856744 -0.162931E-02  0.184E-02    0.12       1.0  T
   6   -100.6857006 -0.262054E-04  0.700E-03    0.12       1.7  T
   7   -100.6857003  0.335298E-06  0.551E-03    0.12       2.1  T
   8   -100.6857032 -0.289171E-05  0.177E-03    0.12       6.7  T
   9   -100.6857034 -0.251412E-06  0.497E-04    0.12      23.7  T
  10   -100.6857034 -0.784665E-08  0.239E-04    0.12      49.4  T
     SCC iter.                  ...        0 min,  0.081 sec
     gradient                   ...        0 min,  0.074 sec
 * total energy  :   -99.2973022 Eh     change       -0.3022836E-02 Eh
   gradient norm :     0.0213168 Eh/α   predicted    -0.2542871E-02 ( -15.88%)
   displ. norm   :     0.5265323 α      lambda       -0.3462613E-02
   maximum displ.:     0.1989816 α      in ANC's #36, #37, #56, ...
 * RMSD in coord.:     1.0314392 α      energy gain  -0.1000507E+01 Eh

generating ANC from model Hessian ...
Using Lindh-Hessian (1995)
 Shifting diagonal of input Hessian by    1.0018000447166536E-002
 Lowest  eigenvalues of input Hessian
    0.010000    0.000000    0.000000    0.000000    0.000000    0.000000
    0.000000    0.010041    0.010111    0.010162    0.010210    0.010276
    0.010404    0.010474    0.010744    0.010841    0.011335    0.011637
 Highest eigenvalues
    1.976225    2.020303    2.049316    2.055419    2.181097    2.184866


........................................................................
.............................. CYCLE   21 ..............................
........................................................................

 iter      E             dE          RMSdq      gap      omega  full diag
   1   -100.6822397 -0.100682E+03  0.216E-01    0.05       0.0  T
   2   -100.6686193  0.136204E-01  0.381E-01    0.36       1.0  T
   3   -100.6810917 -0.124724E-01  0.184E-01    0.07       1.0  T
   4   -100.6810727  0.189844E-04  0.152E-01    0.06       1.0  T
   5   -100.6834258 -0.235313E-02  0.224E-02    0.09       1.0  T
   6   -100.6834690 -0.432394E-04  0.851E-03    0.09       1.4  T
   7   -100.6834715 -0.244745E-05  0.595E-03    0.09       2.0  T
   8   -100.6834745 -0.301006E-05  0.202E-03    0.09       5.8  T
   9   -100.6834748 -0.319417E-06  0.573E-04    0.09      20.6  T
  10   -100.6834748 -0.130395E-07  0.248E-04    0.09      47.5  T
     SCC iter.                  ...        0 min,  0.081 sec
     gradient                   ...        0 min,  0.074 sec
 * total energy  :   -99.2998725 Eh     change       -0.2570295E-02 Eh
   gradient norm :     0.0194223 Eh/α   predicted     0.0000000E+00 (-100.00%)
   displ. norm   :     0.3507801 α      lambda       -0.3157898E-02
   maximum displ.:     0.1579747 α      in ANC's #32, #33, #11, ...

........................................................................
.............................. CYCLE   22 ..............................
........................................................................

 iter      E             dE          RMSdq      gap      omega  full diag
   1   -100.6884926 -0.100688E+03  0.194E-01    0.04       0.0  T
   2   -100.6847991  0.369356E-02  0.213E-01    0.22       1.0  T
   3   -100.6835442  0.125490E-02  0.242E-01    0.11       1.0  T
   4   -100.6872894 -0.374521E-02  0.130E-01    0.06       1.0  T
   5   -100.6888833 -0.159392E-02  0.130E-02    0.07       1.0  T
   6   -100.6888902 -0.695144E-05  0.700E-03    0.08       1.7  T
   7   -100.6888904 -0.189760E-06  0.421E-03    0.08       2.8  T
   8   -100.6888927 -0.224830E-05  0.115E-03    0.07      10.2  T
   9   -100.6888928 -0.123886E-06  0.404E-04    0.07      29.1  T
  10   -100.6888928 -0.947760E-08  0.193E-04    0.07      61.1  T
     SCC iter.                  ...        0 min,  0.081 sec
     gradient                   ...        0 min,  0.068 sec
 * total energy  :   -99.3026530 Eh     change       -0.2780484E-02 Eh
   gradient norm :     0.0122851 Eh/α   predicted    -0.1773246E-02 ( -36.23%)
   displ. norm   :     0.7403094 α      lambda       -0.5220911E-02
   maximum displ.:     0.3408875 α      in ANC's #32, #33, #31, ...

........................................................................
.............................. CYCLE   23 ..............................
........................................................................

 iter      E             dE          RMSdq      gap      omega  full diag
   1   -100.6844167 -0.100684E+03  0.385E-01    0.05       0.0  T
   2   -100.6677924  0.166243E-01  0.450E-01    0.36       1.0  T
   3   -100.6702045 -0.241206E-02  0.427E-01    0.25       1.0  T
   4   -100.6789987 -0.879423E-02  0.277E-01    0.03       1.0  T
   5   -100.6862697 -0.727101E-02  0.388E-02    0.03       1.0  T
   6   -100.6864020 -0.132324E-03  0.164E-02    0.04       1.0  T
   7   -100.6864013  0.705277E-06  0.113E-02    0.05       1.0  T
   8   -100.6864121 -0.108321E-04  0.388E-03    0.05       3.0  T
   9   -100.6864138 -0.161706E-05  0.146E-03    0.04       8.0  T
  10   -100.6864139 -0.190487E-06  0.526E-04    0.04      22.4  T
  11   -100.6864140 -0.162478E-07  0.187E-04    0.04      62.9  T
     SCC iter.                  ...        0 min,  0.088 sec
     gradient                   ...        0 min,  0.068 sec
 * total energy  :   -99.3061355 Eh     change       -0.3482509E-02 Eh
   gradient norm :     0.0290700 Eh/α   predicted    -0.4041137E-02 (  16.04%)
   displ. norm   :     0.3881461 α      lambda       -0.2545469E-02
   maximum displ.:     0.1797002 α      in ANC's #11, #14, #25, ...

........................................................................
.............................. CYCLE   24 ..............................
........................................................................

 iter      E             dE          RMSdq      gap      omega  full diag
   1   -100.6918666 -0.100692E+03  0.111E-01    0.03       0.0  T
   2   -100.6914591  0.407413E-03  0.853E-02    0.08       1.0  T
   3   -100.6898867  0.157242E-02  0.142E-01    0.07       1.0  T
   4   -100.6910434 -0.115668E-02  0.102E-01    0.08       1.0  T
   5   -100.6919473 -0.903866E-03  0.732E-03    0.04       1.6  T
   6   -100.6919497 -0.244952E-05  0.380E-03    0.04       3.1  T
   7   -100.6919501 -0.403694E-06  0.207E-03    0.04       5.7  T
   8   -100.6919505 -0.365353E-06  0.619E-04    0.04      19.1  T
   9   -100.6919505 -0.447746E-07  0.276E-04    0.04      42.7  T
     SCC iter.                  ...        0 min,  0.073 sec
     gradient                   ...        0 min,  0.068 sec
 * total energy  :   -99.3081003 Eh     change       -0.1964752E-02 Eh
   gradient norm :     0.0191979 Eh/α   predicted    -0.1464482E-02 ( -25.46%)
   displ. norm   :     0.5191463 α      lambda       -0.2578161E-02
   maximum displ.:     0.2528799 α      in ANC's #11, #19, #14, ...

........................................................................
.............................. CYCLE   25 ..............................
........................................................................

 iter      E             dE          RMSdq      gap      omega  full diag
   1   -100.6966189 -0.100697E+03  0.161E-01    0.03       0.0  T
   2   -100.6962910  0.327924E-03  0.106E-01    0.07       1.0  T
   3   -100.6916744  0.461659E-02  0.213E-01    0.14       1.0  T
   4   -100.6956308 -0.395639E-02  0.112E-01    0.07       1.0  T
   5   -100.6967198 -0.108905E-02  0.145E-02    0.03       1.0  T
   6   -100.6967306 -0.107803E-04  0.807E-03    0.04       1.5  T
   7   -100.6967334 -0.280429E-05  0.283E-03    0.04       4.2  T
   8   -100.6967342 -0.741615E-06  0.107E-03    0.04      11.0  T
   9   -100.6967343 -0.133563E-06  0.419E-04    0.04      28.1  T
  10   -100.6967343 -0.106065E-07  0.183E-04    0.04      64.4  T
     SCC iter.                  ...        0 min,  0.081 sec
     gradient                   ...        0 min,  0.068 sec
 * total energy  :   -99.3099860 Eh     change       -0.1885727E-02 Eh
   gradient norm :     0.0129484 Eh/α   predicted    -0.1636516E-02 ( -13.22%)
   displ. norm   :     0.5062050 α      lambda       -0.1753401E-02
   maximum displ.:     0.2639939 α      in ANC's #11, #19, #14, ...

........................................................................
.............................. CYCLE   26 ..............................
........................................................................

 iter      E             dE          RMSdq      gap      omega  full diag
   1   -100.6968795 -0.100697E+03  0.159E-01    0.04       0.0  T
   2   -100.6944629  0.241661E-02  0.175E-01    0.13       1.0  T
   3   -100.6941326  0.330328E-03  0.182E-01    0.12       1.0  T
   4   -100.6956263 -0.149376E-02  0.126E-01    0.04       1.0  T
   5   -100.6971739 -0.154759E-02  0.165E-02    0.04       1.0  T
   6   -100.6971968 -0.229083E-04  0.791E-03    0.04       1.5  T
   7   -100.6971996 -0.275679E-05  0.492E-03    0.04       2.4  T
   8   -100.6972017 -0.211355E-05  0.122E-03    0.04       9.7  T
   9   -100.6972018 -0.143283E-06  0.435E-04    0.04      27.1  T
  10   -100.6972018 -0.134319E-07  0.171E-04    0.04      68.8  T
     SCC iter.                  ...        0 min,  0.081 sec
     gradient                   ...        0 min,  0.068 sec
 * total energy  :   -99.3110730 Eh     change       -0.1087001E-02 Eh
   gradient norm :     0.0182360 Eh/α   predicted    -0.1101350E-02 (   1.32%)
   displ. norm   :     0.4481547 α      lambda       -0.1423944E-02
   maximum displ.:     0.2811159 α      in ANC's #11, #8, #14, ...

........................................................................
.............................. CYCLE   27 ..............................
........................................................................

 iter      E             dE          RMSdq      gap      omega  full diag
   1   -100.7010413 -0.100701E+03  0.130E-01    0.04       0.0  T
   2   -100.7009334  0.107917E-03  0.880E-02    0.04       1.0  T
   3   -100.6994322  0.150123E-02  0.143E-01    0.08       1.0  T
   4   -100.7003149 -0.882701E-03  0.911E-02    0.07       1.0  T
   5   -100.7010591 -0.744248E-03  0.287E-02    0.05       1.0  T
   6   -100.7011557 -0.965439E-04  0.695E-03    0.04       1.7  T
   7   -100.7011585 -0.281934E-05  0.256E-03    0.04       4.6  T
   8   -100.7011588 -0.303459E-06  0.519E-04    0.04      22.7  T
   9   -100.7011588 -0.177840E-07  0.229E-04    0.04      51.5  T
     SCC iter.                  ...        0 min,  0.073 sec
     gradient                   ...        0 min,  0.068 sec
 * total energy  :   -99.3118516 Eh     change       -0.7785645E-03 Eh
   gradient norm :     0.0105988 Eh/α   predicted    -0.8549703E-03 (   9.81%)
   displ. norm   :     0.3512837 α      lambda       -0.6487690E-03
   maximum displ.:     0.2099120 α      in ANC's #11, #8, #13, ...

........................................................................
.............................. CYCLE   28 ..............................
........................................................................

 iter      E             dE          RMSdq      gap      omega  full diag
   1   -100.6980267 -0.100698E+03  0.105E-01    0.05       0.0  T
   2   -100.6968730  0.115365E-02  0.122E-01    0.09       1.0  T
   3   -100.6970318 -0.158809E-03  0.114E-01    0.09       1.0  T
   4   -100.6975916 -0.559755E-03  0.749E-02    0.05       1.0  T
   5   -100.6981607 -0.569133E-03  0.126E-02    0.05       1.0  T
   6   -100.6981728 -0.120738E-04  0.602E-03    0.05       2.0  T
   7   -100.6981745 -0.169137E-05  0.328E-03    0.05       3.6  T
   8   -100.6981753 -0.836553E-06  0.900E-04    0.05      13.1  T
   9   -100.6981754 -0.903038E-07  0.265E-04    0.05      44.5  T
     SCC iter.                  ...        0 min,  0.073 sec
     gradient                   ...        0 min,  0.068 sec
 * total energy  :   -99.3123014 Eh     change       -0.4498452E-03 Eh
   gradient norm :     0.0116102 Eh/α   predicted    -0.3644163E-03 ( -18.99%)
   displ. norm   :     0.5724046 α      lambda       -0.1455241E-02
   maximum displ.:     0.3255689 α      in ANC's #11, #8, #13, ...

........................................................................
.............................. CYCLE   29 ..............................
........................................................................

 iter      E             dE          RMSdq      gap      omega  full diag
   1   -100.7076290 -0.100708E+03  0.122E-01    0.06       0.0  T
   2   -100.7071933  0.435685E-03  0.932E-02    0.06       1.0  T
   3   -100.7058106  0.138270E-02  0.137E-01    0.12       1.0  T
   4   -100.7065185 -0.707850E-03  0.117E-01    0.08       1.0  T
   5   -100.7077399 -0.122147E-02  0.988E-03    0.06       1.2  T
   6   -100.7077444 -0.445870E-05  0.450E-03    0.06       2.6  T
   7   -100.7077442  0.240998E-06  0.315E-03    0.06       3.7  T
   8   -100.7077453 -0.116228E-05  0.789E-04    0.06      14.9  T
   9   -100.7077454 -0.583253E-07  0.315E-04    0.06      37.4  T
  10   -100.7077454 -0.243286E-08  0.145E-04    0.06      81.0  T
     SCC iter.                  ...        0 min,  0.081 sec
     gradient                   ...        0 min,  0.069 sec
 * total energy  :   -99.3124067 Eh     change       -0.1052824E-03 Eh
   gradient norm :     0.0280347 Eh/α   predicted    -0.9660292E-03 ( 817.56%)
   displ. norm   :     0.2181021 α      lambda       -0.1432677E-02
   maximum displ.:     0.0920844 α      in ANC's #11, #8, #14, ...

........................................................................
.............................. CYCLE   30 ..............................
........................................................................

 iter      E             dE          RMSdq      gap      omega  full diag
   1   -100.7021332 -0.100702E+03  0.732E-02    0.07       0.0  T
   2   -100.7018095  0.323752E-03  0.691E-02    0.07       1.0  T
   3   -100.7011263  0.683126E-03  0.107E-01    0.10       1.0  T
   4   -100.7020993 -0.972952E-03  0.235E-02    0.07       1.0  T
   5   -100.7021630 -0.637158E-04  0.584E-03    0.06       2.0  T
   6   -100.7021634 -0.382245E-06  0.400E-03    0.06       2.9  T
   7   -100.7021650 -0.159113E-05  0.114E-03    0.06      10.4  T
   8   -100.7021651 -0.113987E-06  0.361E-04    0.06      32.7  T
   9   -100.7021651 -0.554880E-08  0.184E-04    0.06      64.1  T
     SCC iter.                  ...        0 min,  0.073 sec
     gradient                   ...        0 min,  0.068 sec
 * total energy  :   -99.3132571 Eh     change       -0.8503802E-03 Eh
   gradient norm :     0.0111649 Eh/α   predicted    -0.7504160E-03 ( -11.76%)
   displ. norm   :     0.2893458 α      lambda       -0.4598392E-03
   maximum displ.:     0.1308942 α      in ANC's #9, #8, #11, ...

........................................................................
.............................. CYCLE   31 ..............................
........................................................................

 iter      E             dE          RMSdq      gap      omega  full diag
   1   -100.7029078 -0.100703E+03  0.545E-02    0.07       0.0  T
   2   -100.7028551  0.527616E-04  0.379E-02    0.07       1.0  T
   3   -100.7024737  0.381358E-03  0.650E-02    0.09       1.0  T
   4   -100.7027366 -0.262872E-03  0.457E-02    0.07       1.0  T
   5   -100.7029224 -0.185808E-03  0.376E-03    0.07       3.1  T
   6   -100.7029229 -0.547596E-06  0.234E-03    0.07       5.0  T
   7   -100.7029232 -0.274336E-06  0.803E-04    0.07      14.7  T
   8   -100.7029233 -0.481089E-07  0.251E-04    0.07      46.9  T
     SCC iter.                  ...        0 min,  0.065 sec
     gradient                   ...        0 min,  0.069 sec
 * total energy  :   -99.3136148 Eh     change       -0.3576768E-03 Eh
   gradient norm :     0.0073910 Eh/α   predicted    -0.2491746E-03 ( -30.34%)
   displ. norm   :     0.5044228 α      lambda       -0.6550556E-03
   maximum displ.:     0.2588239 α      in ANC's #9, #8, #11, ...

........................................................................
.............................. CYCLE   32 ..............................
........................................................................

 iter      E             dE          RMSdq      gap      omega  full diag
   1   -100.7016680 -0.100702E+03  0.868E-02    0.09       0.0  T
   2   -100.7013837  0.284303E-03  0.690E-02    0.08       1.0  T
   3   -100.6998536  0.153011E-02  0.139E-01    0.15       1.0  T
   4   -100.7015385 -0.168484E-02  0.426E-02    0.09       1.0  T
   5   -100.7016989 -0.160463E-03  0.909E-03    0.08       1.3  T
   6   -100.7017054 -0.650799E-05  0.381E-03    0.09       3.1  T
   7   -100.7017063 -0.832287E-06  0.161E-03    0.09       7.3  T
   8   -100.7017065 -0.187343E-06  0.479E-04    0.09      24.6  T
   9   -100.7017065 -0.217327E-07  0.265E-04    0.09      44.5  T
     SCC iter.                  ...        0 min,  0.073 sec
     gradient                   ...        0 min,  0.068 sec
 * total energy  :   -99.3140412 Eh     change       -0.4264089E-03 Eh
   gradient norm :     0.0092306 Eh/α   predicted    -0.4108686E-03 (  -3.64%)
   displ. norm   :     0.4167529 α      lambda       -0.4771478E-03
   maximum displ.:     0.2261691 α      in ANC's #9, #8, #7, ...

........................................................................
.............................. CYCLE   33 ..............................
........................................................................

 iter      E             dE          RMSdq      gap      omega  full diag
   1   -100.7042949 -0.100704E+03  0.619E-02    0.10       0.0  T
   2   -100.7039593  0.335531E-03  0.678E-02    0.09       1.0  T
   3   -100.7039866 -0.272358E-04  0.617E-02    0.12       1.0  T
   4   -100.7040041 -0.175428E-04  0.636E-02    0.09       1.0  T
   5   -100.7043433 -0.339221E-03  0.539E-03    0.09       2.2  T
   6   -100.7043455 -0.215612E-05  0.306E-03    0.09       3.8  T
   7   -100.7043461 -0.575358E-06  0.120E-03    0.09       9.8  T
   8   -100.7043461 -0.974513E-07  0.470E-04    0.09      25.1  T
   9   -100.7043462 -0.151391E-07  0.189E-04    0.09      62.5  T
     SCC iter.                  ...        0 min,  0.073 sec
     gradient                   ...        0 min,  0.068 sec
 * total energy  :   -99.3143444 Eh     change       -0.3032111E-03 Eh
   gradient norm :     0.0078911 Eh/α   predicted    -0.2800160E-03 (  -7.65%)
   displ. norm   :     0.3811216 α      lambda       -0.3198239E-03
   maximum displ.:     0.1935194 α      in ANC's #9, #8, #7, ...

........................................................................
.............................. CYCLE   34 ..............................
........................................................................

 iter      E             dE          RMSdq      gap      omega  full diag
   1   -100.7017025 -0.100702E+03  0.636E-02    0.12       0.0  T
   2   -100.7011703  0.532238E-03  0.795E-02    0.10       1.0  T
   3   -100.7014089 -0.238599E-03  0.650E-02    0.13       1.0  T
   4   -100.7014955 -0.866136E-04  0.552E-02    0.11       1.0  T
   5   -100.7017666 -0.271147E-03  0.480E-03    0.11       2.5  T
   6   -100.7017675 -0.872236E-06  0.318E-03    0.11       3.7  T
   7   -100.7017682 -0.709731E-06  0.137E-03    0.11       8.6  T
   8   -100.7017684 -0.194743E-06  0.319E-04    0.11      37.0  T
   9   -100.7017684 -0.746573E-08  0.145E-04    0.11      81.4  T
     SCC iter.                  ...        0 min,  0.073 sec
     gradient                   ...        0 min,  0.068 sec
 * total energy  :   -99.3145774 Eh     change       -0.2329678E-03 Eh
   gradient norm :     0.0062750 Eh/α   predicted    -0.1831434E-03 ( -21.39%)
   displ. norm   :     0.3868505 α      lambda       -0.4635994E-03
   maximum displ.:     0.2279059 α      in ANC's #9, #7, #8, ...

........................................................................
.............................. CYCLE   35 ..............................
........................................................................

 iter      E             dE          RMSdq      gap      omega  full diag
   1   -100.7082905 -0.100708E+03  0.480E-02    0.12       0.0  T
   2   -100.7082064  0.841440E-04  0.408E-02    0.11       1.0  T
   3   -100.7080719  0.134439E-03  0.499E-02    0.14       1.0  T
   4   -100.7081041 -0.322253E-04  0.484E-02    0.11       1.0  T
   5   -100.7083089 -0.204800E-03  0.710E-03    0.12       1.7  T
   6   -100.7083137 -0.470682E-05  0.165E-03    0.12       7.1  T
   7   -100.7083138 -0.161996E-06  0.932E-04    0.12      12.6  T
   8   -100.7083138 -0.326763E-07  0.325E-04    0.12      36.3  T
     SCC iter.                  ...        0 min,  0.065 sec
     gradient                   ...        0 min,  0.068 sec
 * total energy  :   -99.3148297 Eh     change       -0.2523628E-03 Eh
   gradient norm :     0.0093962 Eh/α   predicted    -0.2664925E-03 (   5.60%)
   displ. norm   :     0.3666698 α      lambda       -0.3324317E-03
   maximum displ.:     0.2043302 α      in ANC's #9, #7, #8, ...

........................................................................
.............................. CYCLE   36 ..............................
........................................................................

 iter      E             dE          RMSdq      gap      omega  full diag
   1   -100.7056956 -0.100706E+03  0.609E-02    0.14       0.0  T
   2   -100.7050039  0.691655E-03  0.890E-02    0.12       1.0  T
   3   -100.7055587 -0.554750E-03  0.538E-02    0.14       1.0  T
   4   -100.7055619 -0.324193E-05  0.493E-02    0.13       1.0  T
   5   -100.7057739 -0.211967E-03  0.886E-03    0.13       1.3  T
   6   -100.7057817 -0.780986E-05  0.253E-03    0.13       4.7  T
   7   -100.7057819 -0.207153E-06  0.141E-03    0.13       8.4  T
   8   -100.7057820 -0.125167E-06  0.538E-04    0.13      21.9  T
   9   -100.7057821 -0.349000E-07  0.146E-04    0.13      81.0  T
     SCC iter.                  ...        0 min,  0.073 sec
     gradient                   ...        0 min,  0.068 sec
 * total energy  :   -99.3150489 Eh     change       -0.2192221E-03 Eh
   gradient norm :     0.0069669 Eh/α   predicted    -0.1885642E-03 ( -13.98%)
   displ. norm   :     0.3366886 α      lambda       -0.2847241E-03
   maximum displ.:     0.1961248 α      in ANC's #9, #7, #8, ...

........................................................................
.............................. CYCLE   37 ..............................
........................................................................

 iter      E             dE          RMSdq      gap      omega  full diag
   1   -100.7044657 -0.100704E+03  0.507E-02    0.14       0.0  T
   2   -100.7043514  0.114306E-03  0.463E-02    0.13       1.0  T
   3   -100.7040349  0.316459E-03  0.674E-02    0.16       1.0  T
   4   -100.7044341 -0.399187E-03  0.216E-02    0.14       1.0  T
   5   -100.7044772 -0.431123E-04  0.504E-03    0.13       2.3  T
   6   -100.7044794 -0.225016E-05  0.193E-03    0.14       6.1  T
   7   -100.7044797 -0.206044E-06  0.793E-04    0.14      14.9  T
   8   -100.7044797 -0.227426E-07  0.345E-04    0.14      34.1  T
     SCC iter.                  ...        0 min,  0.065 sec
     gradient                   ...        0 min,  0.068 sec
 * total energy  :   -99.3152402 Eh     change       -0.1913079E-03 Eh
   gradient norm :     0.0060138 Eh/α   predicted    -0.1585014E-03 ( -17.15%)
   displ. norm   :     0.2906154 α      lambda       -0.1982207E-03
   maximum displ.:     0.1711553 α      in ANC's #9, #7, #13, ...

........................................................................
.............................. CYCLE   38 ..............................
........................................................................

 iter      E             dE          RMSdq      gap      omega  full diag
   1   -100.7049418 -0.100705E+03  0.480E-02    0.14       0.0  T
   2   -100.7048435  0.982588E-04  0.428E-02    0.13       1.0  T
   3   -100.7045325  0.310983E-03  0.668E-02    0.16       1.0  T
   4   -100.7049282 -0.395654E-03  0.151E-02    0.14       1.0  T
   5   -100.7049538 -0.256231E-04  0.282E-03    0.14       4.2  T
   6   -100.7049542 -0.428288E-06  0.193E-03    0.14       6.1  T
   7   -100.7049546 -0.334400E-06  0.585E-04    0.14      20.1  T
   8   -100.7049546 -0.281140E-08  0.379E-04    0.14      31.1  T
     SCC iter.                  ...        0 min,  0.065 sec
     gradient                   ...        0 min,  0.068 sec
 * total energy  :   -99.3153771 Eh     change       -0.1368419E-03 Eh
   gradient norm :     0.0044434 Eh/α   predicted    -0.1074823E-03 ( -21.46%)
   displ. norm   :     0.2441591 α      lambda       -0.1399069E-03
   maximum displ.:     0.1423022 α      in ANC's #9, #7, #13, ...

........................................................................
.............................. CYCLE   39 ..............................
........................................................................

 iter      E             dE          RMSdq      gap      omega  full diag
   1   -100.7055751 -0.100706E+03  0.408E-02    0.14       0.0  T
   2   -100.7055551  0.200228E-04  0.276E-02    0.14       1.0  T
   3   -100.7050951  0.459985E-03  0.685E-02    0.17       1.0  T
   4   -100.7055603 -0.465185E-03  0.126E-02    0.14       1.0  T
   5   -100.7055779 -0.176470E-04  0.320E-03    0.14       3.7  T
   6   -100.7055788 -0.879436E-06  0.116E-03    0.14      10.2  T
   7   -100.7055789 -0.962811E-07  0.429E-04    0.14      27.4  T
   8   -100.7055789 -0.203327E-08  0.259E-04    0.14      45.6  T
     SCC iter.                  ...        0 min,  0.065 sec
     gradient                   ...        0 min,  0.068 sec
 * total energy  :   -99.3154814 Eh     change       -0.1043240E-03 Eh
   gradient norm :     0.0046658 Eh/α   predicted    -0.7412470E-04 ( -28.95%)
   displ. norm   :     0.2814672 α      lambda       -0.1568374E-03
   maximum displ.:     0.1637688 α      in ANC's #9, #7, #6, ...

........................................................................
.............................. CYCLE   40 ..............................
........................................................................

 iter      E             dE          RMSdq      gap      omega  full diag
   1   -100.7054376 -0.100705E+03  0.458E-02    0.15       0.0  T
   2   -100.7053028  0.134842E-03  0.448E-02    0.14       1.0  T
   3   -100.7051836  0.119119E-03  0.544E-02    0.17       1.0  T
   4   -100.7053366 -0.152996E-03  0.360E-02    0.15       1.0  T
   5   -100.7054561 -0.119476E-03  0.662E-03    0.15       1.8  T
   6   -100.7054603 -0.420806E-05  0.136E-03    0.15       8.7  T
   7   -100.7054605 -0.150824E-06  0.507E-04    0.15      23.3  T
   8   -100.7054605  0.294348E-08  0.355E-04    0.15      33.2  T
     SCC iter.                  ...        0 min,  0.066 sec
     gradient                   ...        0 min,  0.068 sec
 * total energy  :   -99.3155978 Eh     change       -0.1163616E-03 Eh
   gradient norm :     0.0048731 Eh/α   predicted    -0.8463297E-04 ( -27.27%)
   displ. norm   :     0.3533007 α      lambda       -0.1765552E-03
   maximum displ.:     0.1954278 α      in ANC's #7, #9, #6, ...

........................................................................
.............................. CYCLE   41 ..............................
........................................................................

 iter      E             dE          RMSdq      gap      omega  full diag
   1   -100.7049799 -0.100705E+03  0.570E-02    0.17       0.0  T
   2   -100.7049015  0.784637E-04  0.428E-02    0.16       1.0  T
   3   -100.7046099  0.291550E-03  0.627E-02    0.19       1.0  T
   4   -100.7047248 -0.114846E-03  0.532E-02    0.16       1.0  T
   5   -100.7049980 -0.273241E-03  0.549E-03    0.16       2.1  T
   6   -100.7050012 -0.314656E-05  0.160E-03    0.16       7.4  T
   7   -100.7050013 -0.191774E-06  0.661E-04    0.16      17.8  T
   8   -100.7050014 -0.817238E-08  0.355E-04    0.16      33.2  T
     SCC iter.                  ...        0 min,  0.065 sec
     gradient                   ...        0 min,  0.068 sec
 * total energy  :   -99.3157182 Eh     change       -0.1204665E-03 Eh
   gradient norm :     0.0053681 Eh/α   predicted    -0.9929742E-04 ( -17.57%)
   displ. norm   :     0.3075699 α      lambda       -0.1523805E-03
   maximum displ.:     0.1650679 α      in ANC's #7, #9, #6, ...

........................................................................
.............................. CYCLE   42 ..............................
........................................................................

 iter      E             dE          RMSdq      gap      omega  full diag
   1   -100.7041740 -0.100704E+03  0.490E-02    0.18       0.0  T
   2   -100.7040116  0.162302E-03  0.483E-02    0.16       1.0  T
   3   -100.7039392  0.724914E-04  0.539E-02    0.19       1.0  T
   4   -100.7040061 -0.669730E-04  0.465E-02    0.17       1.0  T
   5   -100.7042020 -0.195847E-03  0.560E-03    0.17       2.1  T
   6   -100.7042052 -0.321968E-05  0.166E-03    0.17       7.1  T
   7   -100.7042054 -0.187649E-06  0.729E-04    0.17      16.2  T
   8   -100.7042054 -0.947344E-08  0.403E-04    0.17      29.3  T
     SCC iter.                  ...        0 min,  0.065 sec
     gradient                   ...        0 min,  0.068 sec
 * total energy  :   -99.3158158 Eh     change       -0.9754491E-04 Eh
   gradient norm :     0.0053101 Eh/α   predicted    -0.8340048E-04 ( -14.50%)
   displ. norm   :     0.2063502 α      lambda       -0.1008597E-03
   maximum displ.:     0.1001767 α      in ANC's #7, #9, #6, ...
 * RMSD in coord.:     0.6794189 α      energy gain  -0.1851354E-01 Eh

generating ANC from model Hessian ...
Using Lindh-Hessian (1995)
 Shifting diagonal of input Hessian by    1.0056247104208622E-002
 Lowest  eigenvalues of input Hessian
    0.010000    0.000000    0.000000    0.000000    0.000000    0.000000
    0.000000    0.010082    0.010178    0.010229    0.010283    0.010355
    0.010574    0.010694    0.010838    0.010944    0.011354    0.011879
 Highest eigenvalues
    2.011605    2.032523    2.048067    2.060312    2.183641    2.192867


........................................................................
.............................. CYCLE   43 ..............................
........................................................................

 iter      E             dE          RMSdq      gap      omega  full diag
   1   -100.7046527 -0.100705E+03  0.323E-02    0.18       0.0  T
   2   -100.7046312  0.214696E-04  0.234E-02    0.18       1.0  T
   3   -100.7045510  0.802373E-04  0.334E-02    0.19       1.0  T
   4   -100.7045798 -0.288037E-04  0.283E-02    0.17       1.0  T
   5   -100.7046588 -0.790339E-04  0.272E-03    0.18       4.3  T
   6   -100.7046594 -0.584965E-06  0.124E-03    0.18       9.5  T
   7   -100.7046595 -0.128658E-06  0.422E-04    0.18      27.9  T
   8   -100.7046596 -0.981677E-08  0.132E-04    0.18      89.2  T
     SCC iter.                  ...        0 min,  0.065 sec
     gradient                   ...        0 min,  0.068 sec
 * total energy  :   -99.3158833 Eh     change       -0.6749099E-04 Eh
   gradient norm :     0.0042590 Eh/α   predicted     0.0000000E+00 (-100.00%)
   displ. norm   :     0.0476819 α      lambda       -0.5755012E-04
   maximum displ.:     0.0226092 α      in ANC's #8, #17, #14, ...

........................................................................
.............................. CYCLE   44 ..............................
........................................................................

 iter      E             dE          RMSdq      gap      omega  full diag
   1   -100.7056489 -0.100706E+03  0.149E-02    0.18       0.0  T
   2   -100.7056472  0.174906E-05  0.987E-03    0.18       1.2  T
   3   -100.7056087  0.384474E-04  0.190E-02    0.17       1.0  T
   4   -100.7056426 -0.338645E-04  0.864E-03    0.18       1.4  T
   5   -100.7056495 -0.692965E-05  0.281E-03    0.18       4.2  T
   6   -100.7056501 -0.613230E-06  0.657E-04    0.18      17.9  T
   7   -100.7056502 -0.398031E-07  0.270E-04    0.18      43.7  T
     SCC iter.                  ...        0 min,  0.057 sec
     gradient                   ...        0 min,  0.068 sec
 * total energy  :   -99.3159283 Eh     change       -0.4502619E-04 Eh
   gradient norm :     0.0018048 Eh/α   predicted    -0.3164856E-04 ( -29.71%)
   displ. norm   :     0.1499750 α      lambda       -0.6263246E-04
   maximum displ.:     0.0771826 α      in ANC's #8, #14, #17, ...

   *** GEOMETRY OPTIMIZATION CONVERGED AFTER 44 ITERATIONS ***

------------------------------------------------------------------------
 total energy gain   :        -1.0191333 Eh     -639.5158 kcal/mol
 total RMSD          :         1.2657706 a0        0.6698 Å
 total power (kW/mol):       -60.8121378 (step) -355.0450 (real)
------------------------------------------------------------------------

 ANCopt (total)                0 d,  0 h,  0 min,  7.536 sec
 optimizer setup                ...        0 min,  0.000 sec (  0.004%)
 model hessian                  ...        0 min,  0.133 sec (  1.766%)
 ANC generation                 ...        0 min,  0.020 sec (  0.260%)
 coordinate transformation      ...        0 min,  0.003 sec (  0.040%)
 single point calculation       ...        0 min,  7.324 sec ( 97.182%)
 optimization log               ...        0 min,  0.011 sec (  0.151%)
 hessian update                 ...        0 min,  0.003 sec (  0.038%)
 rational function              ...        0 min,  0.021 sec (  0.280%)

================
 final structure:
================
72
 xtb: 6.6.1 (8d0f1dd)
N           -1.57987934145059        2.96151469685008        1.80101252019530
C           -1.98875505633397        1.77114903071715        1.53910588259526
C           -3.25178453239674        1.48077427710467        0.97606589299716
C           -3.65463256717570        0.10600862671607        0.81475869530005
C           -4.58609847855235       -0.27607447932233       -0.17391247973372
C           -4.99587171607059       -1.58466076729123       -0.32491944057376
O           -5.88301809102837       -2.02724792811850       -1.24010803274795
C           -6.56780182598452       -1.09622119442254       -2.04480436243698
C           -4.46574286529250       -2.59455458393708        0.52890007283976
O           -4.91990829907757       -3.83906919597343        0.30479859676043
C           -4.49981024330349       -4.89050004333840        1.14370441872915
C           -3.54897241393832       -2.22450724678643        1.50593509300937
C           -3.14895604159108       -0.91017694056776        1.64371202581774
C           -1.48208678921941        3.05997009527508       -2.56986684209467
C           -1.27598979942888        1.76090313379225       -1.90919854228687
C            0.03399719050017        1.61437603225485       -1.25029585746948
N            0.47115714597301        0.48368321594672       -0.72092210433773
C            1.82088883670218        0.38349008851154       -0.21831091804214
C            2.76923817919888       -0.21977141187989       -1.27510813372270
C            4.20026345250869       -0.07820812471062       -0.83836757480004
C            4.88441503467030        1.10510475745130       -1.07004123530484
C            6.19777572887228        1.25927201886607       -0.65708798563946
C            6.85683393200878        0.22956615684370       -0.00000456247410
O            8.12633522453205        0.26884336528534        0.44329881303029
C            8.88472821010550        1.44148781967035        0.25222518992896
C            6.16466729220997       -0.99023630875004        0.23928977215538
O            6.88111846591667       -1.94006483128156        0.87145609970417
C            6.29557627395158       -3.19557891812660        1.12106113810241
C            4.84849851269227       -1.11859328490817       -0.17837172496536
C           -0.30325649302293       -0.72889125462674       -0.81176855743709
C           -4.24880371103690        2.58829617293416        0.75398588801356
C           -4.74411198058934        3.04097318387432        2.13736717042335
C           -3.70251581874761        3.79205293252189       -0.01150710299647
H           -4.96865922639276        0.47347796874840       -0.84724762035325
H           -7.11474801099187       -0.36889641726866       -1.43739548956532
H           -7.27465386617321       -1.68161419396345       -2.62972998212269
H           -5.88762083109285       -0.57056149795390       -2.72253398626107
H           -4.77322320572955       -4.70380538099697        2.18626658389663
H           -5.02263059001876       -5.77547750619283        0.78646693684311
H           -3.41997980414159       -5.05417617191574        1.07221541382528
H           -3.15569524447080       -2.96313664369112        2.18572954714662
H           -2.48263683401321       -0.66161160448444        2.45410875080528
H           -2.25789601230833        3.17049718841882       -3.29956947013428
H           -0.91816703504127        3.92240672130847       -2.27801805293089
H           -2.05351195532857        1.61523484281445       -1.12116438663840
H           -1.45227238543129        0.94002745001664       -2.61700857525904
H           -1.33242214352998        0.90539775842866        1.70540594984204
H            0.66656206515075        2.48193652181280       -1.15380565929690
H            1.82765837163128       -0.23676224663941        0.68116630250013
H            2.17726744736650        1.38003097997288        0.04859970165842
H            2.62092643457393        0.31699254255079       -2.21433935861373
H            2.52427980815791       -1.27027391934239       -1.43470413568199
H            4.39837345651467        1.91638157815487       -1.59049461515922
H            6.70512408182157        2.18802398751167       -0.85950454117828
H            8.42889559036850        2.29885387584121        0.75662445808249
H            9.01227801745668        1.66729999834614       -0.81066611323302
H            9.85677634108205        1.23641206682503        0.69640469409442
H            7.06432098573090       -3.78237037919218        1.62006555790581
H            5.42426476563623       -3.10912053450143        1.77799531028552
H            6.00622630963866       -3.69475314062619        0.19099753024246
H            4.31668597194979       -2.04099962784034       -0.00518199916770
H           -0.39624023454004       -1.06120854148336       -1.84893844402365
H           -1.30755877690274       -0.57400314047131       -0.41135886988486
H            0.18260797796641       -1.51447726557401       -0.23881105340110
H           -5.11340269135312        2.19195871291075        0.21403139760352
H           -3.91678251696924        3.46400082228277        2.69966203967764
H           -5.15698908797658        2.20009290415926        2.69016239709806
H           -5.51663920181454        3.79669192653595        2.02338985225602
H           -2.83606108832477        4.19140633174522        0.50764381065678
H           -3.41372818183645        3.52599846375393       -1.02752901374591
H           -4.46574183431063        4.56403497818846       -0.06616903310587
H           -0.65596868497473        3.04712102371954        2.20641719544231

 Bond Distances (Angstroems)
 ---------------------------
N1-C2=1.2856         N1-H72=1.0126        C2-N1=1.2856         C2-C3=1.4130         C2-H47=1.0991        C3-C2=1.4130         
C3-C4=1.4416         C3-C31=1.5066        C4-C3=1.4416         C4-C5=1.4111         C4-C13=1.4055        C5-C4=1.4111         
C5-C6=1.3795         C5-H34=1.0778        C6-C5=1.3795         C6-O7=1.3493         C6-C9=1.4248         O7-C6=1.3493         
O7-C8=1.4083         C8-O7=1.4083         C8-H35=1.0941        C8-H36=1.0883        C8-H37=1.0947        C9-C6=1.4248         
C9-O10=1.3436        C9-C12=1.3900        O10-C9=1.3436        O10-C11=1.4092       C11-O10=1.4092       C11-H38=1.0939       
C11-H39=1.0882       C11-H40=1.0945       C12-C9=1.3900        C12-C13=1.3807       C12-H41=1.0781       C13-C4=1.4055        
C13-C12=1.3807       C13-H42=1.0782       C14-C15=1.4719       C14-H43=1.0708       C14-H44=1.0710       C15-C14=1.4719       
C15-C16=1.4737       C15-H45=1.1166       C15-H46=1.0981       C16-C15=1.4737       C16-N17=1.3228       C16-H48=1.0780       
N17-C16=1.3228       N17-C18=1.4438       N17-C30=1.4416       C18-N17=1.4438       C18-C19=1.5428       C18-H49=1.0926       
[...]
         :: gradient norm              0.001808948583 Eh/a0 ::
         :: HOMO-LUMO gap              0.176712585605 eV    ::
         ::.................................................::
         :: SCC energy              -100.705650175681 Eh    ::
         :: -> isotropic ES            0.112014780960 Eh    ::
         :: -> anisotropic ES          0.004593912517 Eh    ::
         :: -> anisotropic XC          0.044308592438 Eh    ::
         :: -> dispersion             -0.071290049868 Eh    ::
         :: repulsion energy           1.388413790782 Eh    ::
         :: add. restraining           0.000017344429 Eh    ::
         :: total charge               1.000000000000 e     ::
         :::::::::::::::::::::::::::::::::::::::::::::::::::::

           -------------------------------------------------
          |                Property Printout                |
           -------------------------------------------------

    * Orbital Energies and Occupations

         #    Occupation            Energy/Eh            Energy/eV
      -------------------------------------------------------------
         1        2.0000           -0.8122190             -22.1016
       ...           ...                  ...                  ...
        78        1.9982           -0.5301091             -14.4250
        79        1.9979           -0.5280784             -14.3697
        80        1.9978           -0.5269714             -14.3396
        81        1.9968           -0.5212996             -14.1853
        82        1.9958           -0.5169271             -14.0663
        83        1.9943           -0.5121385             -13.9360
        84        1.9930           -0.5086868             -13.8421
        85        1.9842           -0.4958317             -13.4923
        86        1.9774           -0.4900737             -13.3356
        87        1.9110           -0.4678231             -12.7301
        88        1.8452           -0.4585064             -12.4766
        89        1.8334           -0.4572374             -12.4421
        90        1.1867           -0.4252451             -11.5715 (HOMO)
        91        0.9839           -0.4187511             -11.3948 (LUMO)
        92        0.3020           -0.3919188             -10.6647
        93        0.0044           -0.3224673              -8.7748
        94        0.0027           -0.3146510              -8.5621
        95        0.0025           -0.3137258              -8.5369
        96        0.0023           -0.3117799              -8.4840
        97        0.0001           -0.2629998              -7.1566
        98        0.0000           -0.1890420              -5.1441
        99        0.0000           -0.1840756              -5.0090
       100                         -0.1350013              -3.6736
       101                         -0.0658105              -1.7908
       ...                                ...                  ...
       171                          0.5784912              15.7415
      -------------------------------------------------------------
                  HL-Gap            0.0064941 Eh            0.1767 eV
             Fermi-level           -0.4192617 Eh          -11.4087 eV

     #   Z          covCN         q      C6AA      α(0)
     1   7 N        1.779    -0.307    28.772     7.944
     2   6 C        2.823     0.073    26.361     8.413
     3   6 C        2.964    -0.018    28.467     8.751
     4   6 C        2.968    -0.003    28.093     8.694
     5   6 C        2.919    -0.082    30.057     8.990
     6   6 C        2.859     0.131    25.125     8.216
     7   8 O        1.706    -0.231    17.837     5.702
     8   6 C        3.644     0.028    20.448     6.500
     9   6 C        2.864     0.133    25.094     8.211
    10   8 O        1.706    -0.219    17.643     5.671
    11   6 C        3.645     0.025    20.484     6.505
    12   6 C        2.910    -0.070    29.748     8.944
    13   6 C        2.922    -0.050    29.251     8.869
    14   6 C        2.837    -0.113    30.846     9.102
    15   6 C        3.803    -0.055    21.555     6.610
    16   6 C        2.851     0.008    27.832     8.647
    17   7 N        2.730     0.021    20.890     6.788
    18   6 C        3.756    -0.019    20.966     6.529
    19   6 C        3.808    -0.071    21.850     6.654
    20   6 C        2.968     0.000    28.016     8.682
    21   6 C        2.922    -0.049    29.209     8.863
    22   6 C        2.914    -0.067    29.668     8.932
    23   6 C        2.865     0.134    25.067     8.207
    24   8 O        1.706    -0.220    17.654     5.673
    25   6 C        3.645     0.024    20.499     6.507
    26   6 C        2.863     0.134    25.075     8.208
    27   8 O        1.706    -0.223    17.699     5.680
    28   6 C        3.645     0.027    20.463     6.502
    29   6 C        2.919    -0.079    29.967     8.977
    30   6 C        3.702    -0.073    22.054     6.715
    31   6 C        3.853    -0.005    20.626     6.459
    32   6 C        3.760    -0.107    22.592     6.776
    33   6 C        3.755    -0.121    22.875     6.820
    34   1 H        0.926     0.052     2.300     2.371
    35   1 H        0.924     0.054     2.269     2.356
    36   1 H        0.925     0.081     1.966     2.193
    37   1 H        0.924     0.048     2.347     2.396
    38   1 H        0.924     0.058     2.225     2.333
    39   1 H        0.925     0.083     1.949     2.183
    40   1 H        0.924     0.051     2.303     2.373
    41   1 H        0.926     0.053     2.278     2.360
    42   1 H        0.926     0.047     2.364     2.404
    43   1 H        0.926     0.060     2.202     2.320
    44   1 H        0.926     0.060     2.199     2.319
    45   1 H        0.920     0.112     1.676     2.025
    46   1 H        0.923     0.086     1.922     2.168
    47   1 H        0.923    -0.005     3.151     2.776
    48   1 H        0.926     0.083     1.949     2.183
    49   1 H        0.924     0.069     2.094     2.263
    50   1 H        0.924     0.073     2.053     2.240
    51   1 H        0.924     0.057     2.233     2.337
    52   1 H        0.924     0.055     2.256     2.349
    53   1 H        0.926     0.046     2.369     2.407
    54   1 H        0.926     0.060     2.203     2.321
    55   1 H        0.924     0.055     2.257     2.349
    56   1 H        0.924     0.057     2.236     2.339
    57   1 H        0.925     0.083     1.947     2.182
    58   1 H        0.925     0.083     1.953     2.186
    59   1 H        0.924     0.050     2.324     2.384
    60   1 H        0.924     0.053     2.281     2.362
    61   1 H        0.926     0.048     2.339     2.391
    62   1 H        0.924     0.078     2.004     2.214
    63   1 H        0.924     0.081     1.973     2.197
    64   1 H        0.925     0.081     1.966     2.193
    65   1 H        0.924     0.040     2.448     2.447
    66   1 H        0.925     0.063     2.168     2.302
    67   1 H        0.925     0.038     2.471     2.458
    68   1 H        0.925     0.053     2.282     2.363
    69   1 H        0.925     0.077     2.012     2.218
    70   1 H        0.925     0.033     2.550     2.497
    71   1 H        0.925     0.051     2.305     2.374
    72   1 H        0.860     0.139     1.482     1.907

 Mol. C6AA /au·bohr⁶  :      48082.991743
 Mol. C8AA /au·bohr⁸  :    1099275.462326
 Mol. α(0) /au        :        338.778388


Wiberg/Mayer (AO) data.
largest (>0.10) Wiberg bond orders for each atom

 ---------------------------------------------------------------------------
     #   Z sym  total        # sym  WBO       # sym  WBO       # sym  WBO
 ---------------------------------------------------------------------------
     1   7 N    2.719 --     2 C    1.663    72 H    0.951
     2   6 C    3.928 --     1 N    1.663     3 C    1.267    47 H    0.927
     3   6 C    3.615 --     2 C    1.267     4 C    1.185    31 C    1.009
     4   6 C    3.960 --    13 C    1.311     5 C    1.294     3 C    1.185
     5   6 C    3.912 --     6 C    1.432     4 C    1.294    34 H    0.956
     6   6 C    3.905 --     5 C    1.432     9 C    1.203     7 O    1.098
     7   8 O    2.251 --     6 C    1.098     8 C    0.978
     8   6 C    3.931 --     7 O    0.978    36 H    0.977    35 H    0.974
                            37 H    0.973
     9   6 C    3.842 --    12 C    1.359     6 C    1.203    10 O    1.116
    10   8 O    2.250 --     9 C    1.116    11 C    0.975
    11   6 C    3.929 --    39 H    0.977    10 O    0.975    40 H    0.973
                            38 H    0.972
    12   6 C    3.961 --    13 C    1.454     9 C    1.359    41 H    0.963
    13   6 C    3.880 --    12 C    1.454     4 C    1.311    42 H    0.964
    14   6 C    3.124 --    15 C    1.094    43 H    0.982    44 H    0.981
    15   6 C    3.979 --    14 C    1.094    16 C    1.068    46 H    0.920
                            45 H    0.847
    16   6 C    3.601 --    17 N    1.427    15 C    1.068    48 H    0.956
    17   7 N    3.494 --    16 C    1.427    30 C    1.001    18 C    0.987
    18   6 C    3.953 --    17 N    0.987    50 H    0.967    19 C    0.965
                            49 H    0.965
    19   6 C    3.977 --    20 C    1.008    52 H    0.973    51 H    0.970
                            18 C    0.965
    20   6 C    3.942 --    21 C    1.404    29 C    1.383    19 C    1.008
    21   6 C    3.948 --    22 C    1.420    20 C    1.404    53 H    0.968
    22   6 C    3.958 --    21 C    1.420    23 C    1.380    54 H    0.963
    23   6 C    3.893 --    22 C    1.380    26 C    1.219    24 O    1.112
    24   8 O    2.255 --    23 C    1.112    25 C    0.975
    25   6 C    3.927 --    57 H    0.977    24 O    0.975    55 H    0.972
                            56 H    0.972
    26   6 C    3.896 --    29 C    1.392    23 C    1.219    27 O    1.106
    27   8 O    2.254 --    26 C    1.106    28 C    0.978
    28   6 C    3.931 --    27 O    0.978    58 H    0.977    59 H    0.973
                            60 H    0.973
    29   6 C    3.958 --    26 C    1.392    20 C    1.383    61 H    0.962
    30   6 C    3.957 --    17 N    1.001    64 H    0.978    63 H    0.962
                            62 H    0.962
    31   6 C    3.970 --     3 C    1.009    33 C    0.997    32 C    0.966
                            65 H    0.954
    32   6 C    3.949 --    67 H    0.986    66 H    0.980    68 H    0.978
                            31 C    0.966
    33   6 C    3.953 --    31 C    0.997    71 H    0.980    70 H    0.973
                            69 H    0.965
    34   1 H    0.996 --     5 C    0.956
    35   1 H    0.993 --     8 C    0.974
    36   1 H    0.993 --     8 C    0.977
    37   1 H    0.993 --     8 C    0.973
    38   1 H    0.991 --    11 C    0.972
    39   1 H    0.992 --    11 C    0.977
    40   1 H    0.992 --    11 C    0.973
    41   1 H    0.995 --    12 C    0.963
    42   1 H    0.997 --    13 C    0.964
    43   1 H    0.996 --    14 C    0.982
    44   1 H    0.996 --    14 C    0.981
    45   1 H    0.928 --    15 C    0.847
    46   1 H    0.968 --    15 C    0.920
    47   1 H    0.970 --     2 C    0.927
    48   1 H    0.993 --    16 C    0.956
    49   1 H    0.991 --    18 C    0.965
    50   1 H    0.994 --    18 C    0.967
    51   1 H    0.995 --    19 C    0.970
    52   1 H    0.996 --    19 C    0.973
    53   1 H    0.997 --    21 C    0.968
    54   1 H    0.995 --    22 C    0.963
    55   1 H    0.991 --    25 C    0.972
    56   1 H    0.991 --    25 C    0.972
    57   1 H    0.992 --    25 C    0.977
    58   1 H    0.992 --    28 C    0.977
    59   1 H    0.993 --    28 C    0.973
    60   1 H    0.992 --    28 C    0.973
    61   1 H    0.996 --    29 C    0.962
    62   1 H    0.984 --    30 C    0.962
    63   1 H    0.988 --    30 C    0.962
    64   1 H    0.993 --    30 C    0.978
    65   1 H    0.989 --    31 C    0.954
    66   1 H    0.992 --    32 C    0.980
    67   1 H    0.996 --    32 C    0.986
    68   1 H    0.990 --    32 C    0.978
    69   1 H    0.988 --    33 C    0.965
    70   1 H    0.996 --    33 C    0.973
    71   1 H    0.993 --    33 C    0.980
    72   1 H    0.971 --     1 N    0.951
 ---------------------------------------------------------------------------

Topologies differ in total number of bonds
Writing topology from bond orders to xtbtopo.mol

molecular dipole:
                 x           y           z       tot (Debye)
 q only:        0.704      -0.348      -0.960
   full:        0.747      -0.617      -0.769       3.143
molecular quadrupole (traceless):
                xx          xy          yy          xz          yz          zz
 q only:       55.242       9.159     -13.905       6.064     -14.110     -41.338
  q+dip:       52.302      13.504     -14.742       6.067     -16.028     -37.561
   full:       51.979      12.816     -16.464       2.957     -15.396     -35.516

           -------------------------------------------------
          |                Geometry Summary                 |
           -------------------------------------------------

      molecular mass/u    :      455.6105846
   center of mass at/Å    :       -0.0091890      -0.0330658       0.0240010
  moments of inertia/u·Å² :        0.2744306E+04   0.1099378E+05   0.1244629E+05
rotational constants/cm⁻¹ :        0.6142767E-02   0.1533379E-02   0.1354430E-02

 * 67 selected distances

     #   Z          #   Z                                           value/Å
     1   7 N        2   6 C                                       1.2855914
     2   6 C        3   6 C                                       1.4130022
     4   6 C        5   6 C                                       1.4110589
     5   6 C        6   6 C                                       1.3795346
     6   6 C        7   8 O                                       1.3492526
     7   8 O        8   6 C                                       1.4082884
     6   6 C        9   6 C                                       1.4247562
     9   6 C       10   8 O                                       1.3436163
    10   8 O       11   6 C                                       1.4091673
     9   6 C       12   6 C                                       1.3899643
     4   6 C       13   6 C                                       1.4055269
    12   6 C       13   6 C                                       1.3807462
    14   6 C       15   6 C                                       1.4719151
    15   6 C       16   6 C                                       1.4736652
    16   6 C       17   7 N                                       1.3228046
    17   7 N       18   6 C                                       1.4437565
    20   6 C       21   6 C                                       1.3863498
    21   6 C       22   6 C                                       1.3853572
    22   6 C       23   6 C                                       1.3879520
    23   6 C       24   8 O                                       1.3452488
    24   8 O       25   6 C                                       1.4095263
    23   6 C       26   6 C                                       1.4227701
    26   6 C       27   8 O                                       1.3472606
    27   8 O       28   6 C                                       1.4076499
    20   6 C       29   6 C                                       1.3921943
    26   6 C       29   6 C                                       1.3868011
    17   7 N       30   6 C                                       1.4416334
    31   6 C       32   6 C                                       1.5375276 (max)
    31   6 C       33   6 C                                       1.5275604
     5   6 C       34   1 H                                       1.0777579
     8   6 C       35   1 H                                       1.0941194
     8   6 C       36   1 H                                       1.0883304
     8   6 C       37   1 H                                       1.0946607
    11   6 C       38   1 H                                       1.0938673
    11   6 C       39   1 H                                       1.0881843
    11   6 C       40   1 H                                       1.0945020
    12   6 C       41   1 H                                       1.0781285
    13   6 C       42   1 H                                       1.0781971
    14   6 C       43   1 H                                       1.0707765 (min)
    14   6 C       44   1 H                                       1.0709708
    15   6 C       45   1 H                                       1.1165832
    15   6 C       46   1 H                                       1.0981383
     2   6 C       47   1 H                                       1.0990696
    16   6 C       48   1 H                                       1.0780121
    18   6 C       49   1 H                                       1.0926199
    18   6 C       50   1 H                                       1.0914857
    19   6 C       51   1 H                                       1.0919100
    19   6 C       52   1 H                                       1.0904271
    21   6 C       53   1 H                                       1.0794806
    22   6 C       54   1 H                                       1.0774763
    25   6 C       55   1 H                                       1.0942023
    25   6 C       56   1 H                                       1.0940741
    25   6 C       57   1 H                                       1.0882230
    28   6 C       58   1 H                                       1.0882547
    28   6 C       59   1 H                                       1.0946331
    28   6 C       60   1 H                                       1.0944939
    29   6 C       61   1 H                                       1.0787275
    30   6 C       62   1 H                                       1.0930701
    30   6 C       63   1 H                                       1.0922186
    30   6 C       64   1 H                                       1.0869637
    31   6 C       65   1 H                                       1.0936937
    32   6 C       66   1 H                                       1.0860949
    32   6 C       67   1 H                                       1.0877178
    32   6 C       68   1 H                                       1.0866923
    33   6 C       69   1 H                                       1.0861606
    33   6 C       70   1 H                                       1.0892585
    33   6 C       71   1 H                                       1.0869491

 * 4 distinct bonds (by element types)

   Z      Z             #   av. dist./Å        max./Å        min./Å
   1 H    6 C          38     1.0885823     1.1165832     1.0707765
   6 C    6 C          17     1.4221578     1.5375276     1.3795346
   6 C    7 N           4     1.3734464     1.4437565     1.2855914
   6 C    8 O           8     1.3775013     1.4095263     1.3436163


optimized geometry written to: xtbopt.xyz


           -------------------------------------------------
          | TOTAL ENERGY              -99.315928303104 Eh   |
          | GRADIENT NORM               0.001808948583 Eh/α |
          | HOMO-LUMO GAP               0.176712585605 eV   |
           -------------------------------------------------

------------------------------------------------------------------------
 * finished run on 2024/04/06 at 11:12:16.233     
------------------------------------------------------------------------
 total:
 * wall-time:     0 d,  0 h,  0 min,  8.409 sec
 *  cpu-time:     0 d,  0 h,  0 min,  7.880 sec
 * ratio c/w:     0.937 speedup
 SCF:
 * wall-time:     0 d,  0 h,  0 min,  0.191 sec
 *  cpu-time:     0 d,  0 h,  0 min,  0.191 sec
 * ratio c/w:     1.000 speedup
 ANC optimizer:
 * wall-time:     0 d,  0 h,  0 min,  8.174 sec
 *  cpu-time:     0 d,  0 h,  0 min,  7.664 sec
 * ratio c/w:     0.938 speedup

