25
 energy: -42.164408978717 gnorm: 0.092919170366 xtb: 6.6.1 (8d0f1dd)
C            2.40050645412950        1.49419700588062        0.00587055958354
N            1.76051306002020        0.20514800888468       -0.02075852778835
C            2.39251938397782       -0.95104627567207       -0.03658700121588
N            1.50010078524896       -1.95794409949813       -0.02523081256565
C            0.23023828235993       -1.43794881467138       -0.00035708574082
C            0.40025205751535       -0.01816585344165        0.00340667675397
C           -0.74244232761864        0.90909242042730        0.01413843407988
O           -0.45932137843254        2.22900826343772        0.00080625583982
N           -1.86598732416661        0.24213029164281        0.03092412153478
C           -1.04491121841173        3.74586945270249        0.00822792779382
C           -2.09122530966262       -1.10879713329390        0.03577428294950
O           -3.17346863787777       -1.59577824635607        0.04821056071964
N           -0.90961595269095       -2.13798390159401        0.01996162838865
C           -1.12320272639188       -3.54951969654922       -0.00485013999912
H            2.62159584083014        1.78202213522322        1.03575252924061
H            3.32986305252010        1.45933838497543       -0.55887141860536
H            1.73005982576460        2.23381187592950       -0.42412606471830
H            3.45746529257419       -1.07798427064019       -0.05789705474457
H           -0.11533219998648        4.29325539149414        0.04952195019596
H           -1.59772441019197        3.86969916243522       -0.91314468777033
H           -1.65992478182167        3.84398647060919        0.89241452156810
H           -0.74984409128118       -4.01703793662699        0.90841298630522
H           -0.65099916458083       -4.00106091848358       -0.87866452904985
H           -2.20335915724683       -3.69352907161269       -0.06215901232133
H            1.72467615952147       -2.94252410360445       -0.03960448253656
25
 energy: -42.187640662355 gnorm: 0.061696083325 xtb: 6.6.1 (8d0f1dd)
C            2.41193786287598        1.49924476442961        0.00533259324947
N            1.77602985919414        0.21061692297309       -0.02067548500626
C            2.40107010962369       -0.94957329600927       -0.03668628139603
N            1.49894469214785       -1.94854352021954       -0.02513792959946
C            0.23754548475204       -1.40516586008573       -0.00083814623796
C            0.41797408038888       -0.00746144161988        0.00364415791938
C           -0.72880325381829        0.89306833600426        0.01432071779853
O           -0.41177539908261        2.18119304253767        0.00038599832805
N           -1.87122528099960        0.26510352765389        0.03060513660081
C           -1.05626583047307        3.60160301703778        0.00923126227642
C           -2.11114466195858       -1.07192371274759        0.03431254639233
O           -3.18908465152199       -1.56771214013395        0.04807427031721
N           -0.91894177969278       -2.05235027209864        0.01777716866018
C           -1.12818823202145       -3.47971253665559       -0.00417028100938
H            2.62673366536127        1.78717371941534        1.03593966174184
H            3.34125736103357        1.46337755650028       -0.55838443102803
H            1.73802316614912        2.23484823588887       -0.42699416512835
H            3.46454105871338       -1.08331073066238       -0.05801001062132
H           -0.15679624704496        4.21228901369221        0.04993116608737
H           -1.60755307362388        3.78022523508765       -0.90691748282549
H           -1.67064852851806        3.75363396312408        0.88870652306162
H           -0.75390964731000       -3.96333110536553        0.90284844833038
H           -0.65779613441054       -3.94928734590207       -0.87245283366704
H           -2.20467387411646       -3.64970306940438       -0.06050108070712
H            1.71318076845291       -2.93606376184222       -0.03916990563977
25
 energy: -42.203878523563 gnorm: 0.028384196518 xtb: 6.6.1 (8d0f1dd)
C            2.43037189966880        1.50595948807048        0.00404725068801
N            1.79175382343586        0.21953336745754       -0.02099489146614
C            2.40409439154080       -0.94818552920919       -0.03676778516608
N            1.49311283442261       -1.94154856645783       -0.02533813603913
C            0.24177219262863       -1.37288507446893       -0.00112347160286
C            0.43396873783837        0.00796617684145        0.00371735776098
C           -0.72078998462530        0.88564924239706        0.01455907978677
O           -0.38418663492143        2.15020868376525        0.00332190016702
N           -1.87793531833988        0.29872413875943        0.03021905128295
C           -1.05198154976905        3.42810926089454        0.01057194538491
C           -2.12724976351900       -1.02846087338552        0.03374046617374
O           -3.19784905013758       -1.53970721412142        0.04742381951881
N           -0.94074450050346       -1.95684894072061        0.01434159144567
C           -1.13675369591688       -3.40108806168158       -0.00361958743248
H            2.63602767778390        1.79754711877781        1.03511438631992
H            3.36235505725956        1.46771524157993       -0.55394664308317
H            1.76123425142183        2.24056599423469       -0.43587203672035
H            3.46658323550586       -1.08974719142646       -0.05801374455007
H           -0.20565315363234        4.14173275175334        0.05156861721390
H           -1.61381003522582        3.63485571739418       -0.89885056511299
H           -1.67702233936941        3.60389596823317        0.88293917609075
H           -0.75438169882419       -3.88578599162154        0.90098654410342
H           -0.66224209336185       -3.87414800937663       -0.86971875196136
H           -2.20914015645074       -3.59486885390884       -0.05824325152350
H            1.69889738719129       -2.93095030218236       -0.03889070338137
25
 energy: -42.210077747233 gnorm: 0.025869511729 xtb: 6.6.1 (8d0f1dd)
C            2.46303422987546        1.50248932934903        0.00189000578926
N            1.81759738460163        0.21774111766171       -0.02192797835788
C            2.41405940370506       -0.95855176977958       -0.03650712037514
N            1.49225693457933       -1.94490822496755       -0.02554119046185
C            0.24860467233875       -1.36205636997111       -0.00192980556126
C            0.46011244029026        0.01299167726232        0.00294978926604
C           -0.68870281831314        0.89037251906158        0.01521747362509
O           -0.33653793479848        2.14955838258935        0.00880664164887
N           -1.86002489660832        0.33700842652394        0.03010390790574
C           -1.09069105610253        3.34930246211630        0.01269343077039
C           -2.12624525564837       -0.98933785353862        0.03154358350144
O           -3.20228205682935       -1.49162597559602        0.04671023576355
N           -0.95534145132147       -1.91128064610416        0.01186910557770
C           -1.15575776316201       -3.35161517288409       -0.00352850308729
H            2.65871099958683        1.80214378436943        1.03297266852932
H            3.40072626594506        1.46090214050910       -0.54637349802351
H            1.80304871143325        2.23913803446310       -0.44932404064689
H            3.47531518559366       -1.11044818190670       -0.05754766882237
H           -0.28530822130315        4.11636029173259        0.05496496530661
H           -1.66389980323694        3.49780908617146       -0.89971214632364
H           -1.72764598538110        3.46175276676201        0.88604891866646
H           -0.76510491662211       -3.81788001971598        0.90506782516837
H           -0.67697014622639       -3.80880191066625       -0.87342144957253
H           -2.22792835197561       -3.53736383049742       -0.05548035342338
H            1.68940594368026       -2.93546152134648       -0.03837317896576
25
 energy: -42.214856133989 gnorm: 0.025016925613 xtb: 6.6.1 (8d0f1dd)
C            2.50940041705798        1.48844473199468       -0.00158623558877
N            1.85359265952993        0.20736793422675       -0.02267984621300
C            2.43061160803313       -0.97935705470949       -0.03604120376359
N            1.49504085814455       -1.95483886458143       -0.02545750694721
C            0.26083414550095       -1.35694554824677       -0.00245218994431
C            0.49605161177451        0.01361823961389        0.00234894802810
C           -0.64125427554096        0.89821598050637        0.01620918538971
O           -0.28498430036007        2.15854367403790        0.01466600129736
N           -1.82666514423370        0.38310189203645        0.02936731539317
C           -1.15287941626135        3.30132812143217        0.01615454657964
C           -2.11216857430312       -0.94427180209055        0.03095497098905
O           -3.19887672191929       -1.42635128185520        0.04464784059778
N           -0.96255156193953       -1.87461140768831        0.00971993995285
C           -1.17910065662764       -3.30657013935611       -0.00378028771494
H            2.69010515590561        1.79940377842766        1.02946976232067
H            3.45611408838106        1.43798797437212       -0.53433488878082
H            1.86299424206768        2.22764538818039       -0.47033302637949
H            3.49000018551313       -1.14613783904206       -0.05697986169078
H           -0.41581649656910        4.13914335811264        0.05987076308145
H           -1.74338360001706        3.36435865603721       -0.89974855526180
H           -1.80675796973696        3.32127162140747        0.89035813146666
H           -0.78512363522978       -3.75873627107755        0.90766302861869
H           -0.70330057206727       -3.75216064783783       -0.87825214168410
H           -2.25296390472198       -3.47506054941550       -0.05135822346075
H            1.68151337171985       -2.94715140288695       -0.03725484838823
25
 energy: -42.218237314918 gnorm: 0.018341339693 xtb: 6.6.1 (8d0f1dd)
C            2.55988136991796        1.47211665525161       -0.00542009094038
N            1.88906373861764        0.19867443045627       -0.02329190525772
C            2.44718774378928       -0.99823399620148       -0.03617383927881
N            1.49792462780759       -1.96053901199677       -0.02540953570022
C            0.27412348533358       -1.34605704012431       -0.00280421053131
C            0.52936952778425        0.02141368640979        0.00173510304327
C           -0.60186636032531        0.91279759804112        0.01706111196349
O           -0.27074628883676        2.17990382419277        0.01593396179250
N           -1.79473259302375        0.42805156947283        0.02810279047766
C           -1.21866744107362        3.25918346958999        0.02090864777851
C           -2.09271945822572       -0.90041699020456        0.02832027471742
O           -3.18938197346772       -1.36279076646772        0.04256271110005
N           -0.96199478160739       -1.83754690126792        0.00781168747527
C           -1.19863060323323       -3.26451120596354       -0.00322395225751
H            2.72217164854954        1.79475994110404        1.02555309683036
H            3.51831484425095        1.40438197065680       -0.51699779757508
H            1.93194556915090        2.21425275133670       -0.49690793578306
H            3.50430851845523       -1.18254348848403       -0.05696499154839
H           -0.54932488712378        4.12940750343481        0.06538342024050
H           -1.81750023886444        3.25202306603555       -0.89589002144155
H           -1.87732733981827        3.20093220627899        0.89523453904501
H           -0.80655367771081       -3.71457913972540        0.90811040168671
H           -0.73312259415256       -3.71076260723928       -0.88105323396172
H           -2.27525510567868       -3.41654461430515       -0.04551187739159
H            1.67396378358568       -2.95513436868318       -0.03589673658611
25
 energy: -42.220545107355 gnorm: 0.023977905396 xtb: 6.6.1 (8d0f1dd)
C            2.60881671077544        1.45251005326095       -0.00788410805939
N            1.92416082462941        0.18739471914606       -0.02325728167316
C            2.46469879170751       -1.01811130159423       -0.03722436178839
N            1.50106260259995       -1.96585418611880       -0.02594222490814
C            0.28725912778710       -1.33357410749315       -0.00300568028850
C            0.56216499964227        0.03080850344502        0.00160915523661
C           -0.56014413126835        0.93113510537188        0.01722360757879
O           -0.25610191439049        2.20559409969989        0.01868078561876
N           -1.75997842826032        0.46652172476524        0.02739664992314
C           -1.27937839877633        3.21497799193788        0.02418677250903
C           -2.07127618804502       -0.86121850669930        0.02721215951081
O           -3.17690021751469       -1.30445022876298        0.04043813997052
N           -0.95595468716687       -1.80622642534713        0.00651170850941
C           -1.21697501128536       -3.23096490104944       -0.00292123469179
H            2.75359662300309        1.78678274184538        1.02200628221542
H            3.57770226628151        1.36620244830960       -0.49774108102542
H            1.99836731518622        2.19555409611546       -0.52137236091030
H            3.51880472621823       -1.22057991453684       -0.05799615708632
H           -0.70602440047968        4.16538437677931        0.06850528001017
H           -1.88682027877454        3.15927859185334       -0.88364187609911
H           -1.93812104775770        3.10264222481715        0.89056423029908
H           -0.82987431279455       -3.68996830754121        0.90593096092159
H           -0.76703641751406       -3.68804362077202       -0.88360687707896
H           -2.29732812981833       -3.36461049570928       -0.03902829056353
H            1.66571109011614       -2.96294614012484       -0.03547258023304
25
 energy: -42.222201806332 gnorm: 0.017782521326 xtb: 6.6.1 (8d0f1dd)
C            2.65380546428886        1.43563009562406       -0.00909159590327
N            1.95334271195513        0.18040042893157       -0.02318343794158
C            2.47913649263616       -1.03118238706476       -0.03917451487371
N            1.50244136749592       -1.96426022130921       -0.02717620286185
C            0.29720440840305       -1.31683337083359       -0.00297988576854
C            0.58786566308726        0.04666462165442        0.00160766559410
C           -0.52814267866056        0.95521296642732        0.01576811009736
O           -0.26403078593688        2.24088168520048        0.01549728334060
N           -1.72997312268214        0.49340188682886        0.02519743105304
C           -1.34061990727682        3.18580661345172        0.02729281007506
C           -2.05136392943660       -0.83158766119118        0.02633970878681
O           -3.16390311839737       -1.25793413451286        0.03739721503509
N           -0.94407636610052       -1.78561767190244        0.00652262636457
C           -1.23078936138839       -3.20691604208961       -0.00165772595253
H            2.78241531401525        1.78107146115378        1.01879196900385
H            3.63249520961408        1.32819605441061       -0.47535825832702
H            2.06365774409233        2.17975272444692       -0.54455143193243
H            3.52969546771759       -1.25120022683758       -0.06005401177623
H           -0.83861782323651        4.14223440933809        0.07123467004874
H           -1.94076516174261        3.09874660677197       -0.87458121833995
H           -1.98105304008107        3.03508823891389        0.89169056659274
H           -0.84950091524795       -3.67921459853083        0.90391146369642
H           -0.79934107781800       -3.67869572770936       -0.88537879365146
H           -2.31558951478491       -3.31791958210171       -0.03059241150607
H            1.65613847358526       -2.96348762747263       -0.03630041295647
25
 energy: -42.222875776554 gnorm: 0.014912889926 xtb: 6.6.1 (8d0f1dd)
C            2.68998590207933        1.42271745080049       -0.00961122780534
N            1.97551432365327        0.17576081805432       -0.02369863908996
C            2.48880459089191       -1.04058441462368       -0.04070719264348
N            1.50118058347451       -1.96192914404374       -0.02844622035908
C            0.30270176132344       -1.30141315590728       -0.00314440243770
C            0.60743050843105        0.06092346907509        0.00165316046020
C           -0.50074107129561        0.97717907651059        0.01480216608895
O           -0.25531544339162        2.26811396601098        0.01265285736494
N           -1.70527741864103        0.51283197011879        0.02426086848655
C           -1.37923800358280        3.15764693402338        0.02916028597778
C           -2.03945436400850       -0.80634866958488        0.02390052243293
O           -3.15582699055852       -1.22149287060390        0.03639560678628
N           -0.93772009208065       -1.76877576861543        0.00693244020741
C           -1.24300237733708       -3.18657316618085       -0.00036804453210
H            2.80674987722894        1.77589669604743        1.01680829128963
H            3.67463121971809        1.29860799747178       -0.45827056505349
H            2.11756712109594        2.16880301831483       -0.56102595646512
H            3.53621113248675       -1.27419938702048       -0.06198187985424
H           -0.95345805370892        4.16728744350417        0.07478024651053
H           -1.97988396751013        3.02269480209165       -0.87278481186303
H           -2.01352472128603        2.95073152660265        0.89542608591807
H           -0.86506443582633       -3.66897057598334        0.90206163050215
H           -0.82545927693665       -3.66816778060698       -0.88613937487178
H           -2.33011030407620       -3.27963564664940       -0.02351961673660
H            1.64373101395744       -2.96286604720828       -0.03796461241626
25
 energy: -42.223126316970 gnorm: 0.007679801658 xtb: 6.6.1 (8d0f1dd)
C            2.70000363345175        1.42049185462725       -0.00874336857816
N            1.97807470344142        0.17732962478700       -0.02427716237905
C            2.48851057971424       -1.03946947439988       -0.04133189234176
N            1.49908370003019       -1.95828701999354       -0.02960767976206
C            0.30183374490939       -1.29524179439541       -0.00382362456140
C            0.60892906206317        0.06722298813120        0.00148586038919
C           -0.49869848993839        0.98375230931764        0.01495682536185
O           -0.25878388135093        2.27447973674098        0.01613362809576
N           -1.70143080938366        0.50988445446281        0.02525900391355
C           -1.38720600167245        3.14864166251275        0.02854902647189
C           -2.04003315576372       -0.80372308608452        0.02469524051117
O           -3.15508160500194       -1.21961579518393        0.03610344860391
N           -0.93649173159698       -1.76814349447663        0.00723183775710
C           -1.24419198082840       -3.18342219470382       -0.00049082780577
H            2.81335202680151        1.77564490383104        1.01720286471729
H            3.68595630098220        1.28898406537340       -0.45059804102337
H            2.13769129770080        2.16896156311117       -0.56596158734387
H            3.53480835714940       -1.27563813619817       -0.06291627561453
H           -0.97861037331370        4.15857904800687        0.07246943789226
H           -1.98450740150365        3.00786482280865       -0.87326602633984
H           -2.01266126893488        2.94250853769203        0.89576554453425
H           -0.86530279425543       -3.66747130251028        0.90056473690968
H           -0.83087234230431       -3.66495720055800       -0.88753201920300
H           -2.33107365645206       -3.27074009509735       -0.02056474046070
H            1.63713360015704       -2.95939743620332       -0.04013259184713
