25
 energy: -42.153431348659 gnorm: 0.004225225872 xtb: 6.6.1 (8d0f1dd)
C            2.88085733032666        1.09965850741005        0.27667616383345
N            2.10654835130759       -0.09451479432798        0.06893406002839
C            2.58573844544033       -1.32050573931579       -0.03510829929366
N            1.57307333942828       -2.17308681117353       -0.24019256472214
C            0.39017320751928       -1.46795182420740       -0.23538031425324
C            0.73500340880656       -0.14084028994935       -0.01081325362887
C           -0.08811118190653        1.09739597503024       -0.20658920493721
O            0.35515555231088        1.98661287527835       -0.89563819213266
N           -1.32838890867977        1.11176168078476        0.35941751124008
C           -2.26090391805902        2.15130615979858       -0.05066527986491
C           -1.74281704353556        0.27186528401857        1.38307013645230
O           -2.84514935163594        0.29183930676444        1.83323502704847
N           -0.84105578126546       -2.01700740190769       -0.26950704687688
C           -1.31718417098973       -2.84640301865589       -1.08686409084972
H            2.69295413994066        1.50095905299847        1.27373018924809
H            3.93913135406709        0.87486344088983        0.17189180602613
H            2.58526535030184        1.85358190285425       -0.45475848098056
H            3.62024304205302       -1.59544448917450        0.04182710785279
H           -1.71673719887211        2.91896511357395       -0.59511370693046
H           -3.03283921370636        1.72157166883176       -0.68901495511601
H           -2.73658647714041        2.57612902341022        0.83085662296226
H           -0.93534788345708       -0.37159098703997        1.76010239902059
H           -0.81002225324195       -3.20281177783056       -1.98308370413467
H           -2.30618599698555       -3.23195897136589       -0.88055057004880
H            1.65761737207265       -3.17615534509577       -0.33528974204228
