      -----------------------------------------------------------      
     |                   =====================                   |     
     |                           x T B                           |     
     |                   =====================                   |     
     |                         S. Grimme                         |     
     |          Mulliken Center for Theoretical Chemistry        |     
     |                    University of Bonn                     |     
      -----------------------------------------------------------      

   * xtb version 6.6.1 (8d0f1dd) compiled by 'conda@1efc2f54142f' on 2023-08-01

   xtb is free software: you can redistribute it and/or modify it under
   the terms of the GNU Lesser General Public License as published by
   the Free Software Foundation, either version 3 of the License, or
   (at your option) any later version.
   
   xtb is distributed in the hope that it will be useful,
   but WITHOUT ANY WARRANTY; without even the implied warranty of
   MERCHANTABILITY or FITNESS FOR A PARTICULAR PURPOSE.  See the
   GNU Lesser General Public License for more details.
   
   Cite this work as:
   * C. Bannwarth, E. Caldeweyher, S. Ehlert, A. Hansen, P. Pracht,
     J. Seibert, S. Spicher, S. Grimme, WIREs Comput. Mol. Sci., 2020, 11,
     e01493. DOI: 10.1002/wcms.1493
   
   for GFN2-xTB:
   * C. Bannwarth, S. Ehlert and S. Grimme., J. Chem. Theory Comput., 2019,
     15, 1652-1671. DOI: 10.1021/acs.jctc.8b01176
   for GFN1-xTB:
   * S. Grimme, C. Bannwarth, P. Shushkov, J. Chem. Theory Comput., 2017,
     13, 1989-2009. DOI: 10.1021/acs.jctc.7b00118
   for GFN0-xTB:
   * P. Pracht, E. Caldeweyher, S. Ehlert, S. Grimme, ChemRxiv, 2019, preprint.
     DOI: 10.26434/chemrxiv.8326202.v1
   for GFN-FF:
   * S. Spicher and S. Grimme, Angew. Chem. Int. Ed., 2020, 59, 15665-15673.
     DOI: 10.1002/anie.202004239
   
   for ALPB and GBSA implicit solvation:
   * S. Ehlert, M. Stahn, S. Spicher, S. Grimme, J. Chem. Theory Comput.,
     2021, 17, 4250-4261. DOI: 10.1021/acs.jctc.1c00471
   
   for DFT-D4:
   * E. Caldeweyher, C. Bannwarth and S. Grimme, J. Chem. Phys., 2017,
     147, 034112. DOI: 10.1063/1.4993215
   * E. Caldeweyher, S. Ehlert, A. Hansen, H. Neugebauer, S. Spicher,
     C. Bannwarth and S. Grimme, J. Chem. Phys., 2019, 150, 154122.
     DOI: 10.1063/1.5090222
   * E. Caldeweyher, J.-M. Mewes, S. Ehlert and S. Grimme, Phys. Chem. Chem. Phys.
     2020, 22, 8499-8512. DOI: 10.1039/D0CP00502A
   
   for sTDA-xTB:
   * S. Grimme and C. Bannwarth, J. Chem. Phys., 2016, 145, 054103.
     DOI: 10.1063/1.4959605
   
   in the mass-spec context:
   * V. Asgeirsson, C. Bauer and S. Grimme, Chem. Sci., 2017, 8, 4879.
     DOI: 10.1039/c7sc00601b
   * J. Koopman and S. Grimme, ACS Omega 2019, 4, 12, 15120-15133.
     DOI: 10.1021/acsomega.9b02011
   
   for metadynamics refer to:
   * S. Grimme, J. Chem. Theory Comput., 2019, 155, 2847-2862
     DOI: 10.1021/acs.jctc.9b00143
   
   for SPH calculations refer to:
   * S. Spicher and S. Grimme, J. Chem. Theory Comput., 2021, 17, 1701-1714
     DOI: 10.1021/acs.jctc.0c01306
   
   with help from (in alphabetical order)
   P. Atkinson, C. Bannwarth, F. Bohle, G. Brandenburg, E. Caldeweyher
   M. Checinski, S. Dohm, S. Ehlert, S. Ehrlich, I. Gerasimov, C. Hölzer
   A. Katbashev, J. Koopman, C. Lavigne, S. Lehtola, F. März, M. Müller,
   F. Musil, H. Neugebauer, J. Pisarek, C. Plett, P. Pracht, F. Pultar,
   J. Seibert, P. Shushkov, S. Spicher, M. Stahn, M. Steiner, T. Strunk,
   J. Stückrath, T. Rose, and J. Unsleber
   
 * started run on 2024/06/05 at 20:00:24.582     

           -------------------------------------------------
          |                Calculation Setup                |
           -------------------------------------------------

          program call               : xtb struc.xyz --opt loose --input .xc1 --gfn2
          hostname                   : n-62-21-69
          coordinate file            : struc.xyz
          omp threads                :                     1

   ID    Z sym.   atoms
    1    6 C      1, 3, 5-7, 10, 11, 14
    2    7 N      2, 4, 9, 13
    3    8 O      8, 12
    4    1 H      15-25
constraining bond 6 18 to    3.7133300 Å, actual value:    3.2169490 Å

           -------------------------------------------------
          |                 G F N 2 - x T B                 |
           -------------------------------------------------

        Reference                      10.1021/acs.jctc.8b01176
      * Hamiltonian:
        H0-scaling (s, p, d)           1.850000    2.230000    2.230000
        zeta-weighting                 0.500000
      * Dispersion:
        s8                             2.700000
        a1                             0.520000
        a2                             5.000000
        s9                             5.000000
      * Repulsion:
        kExp                           1.500000    1.000000
        rExp                           1.000000
      * Coulomb:
        alpha                          2.000000
        third order                    shell-resolved
        anisotropic                    true
        a3                             3.000000
        a5                             4.000000
        cn-shift                       1.200000
        cn-exp                         4.000000
        max-rad                        5.000000


          ...................................................
          :                      SETUP                      :
          :.................................................:
          :  # basis functions                  67          :
          :  # atomic orbitals                  67          :
          :  # shells                           39          :
          :  # electrons                        74          :
          :  max. iterations                   250          :
          :  Hamiltonian                  GFN2-xTB          :
          :  restarted?                      false          :
          :  GBSA solvation                  false          :
          :  PC potential                    false          :
          :  electronic temp.         5000.0000000     K    :
          :  accuracy                    1.0000000          :
          :  -> integral cutoff          0.2500000E+02      :
          :  -> integral neglect         0.1000000E-07      :
          :  -> SCF convergence          0.1000000E-05 Eh   :
          :  -> wf. convergence          0.1000000E-03 e    :
          :  Broyden damping             0.4000000          :
          ...................................................

 iter      E             dE          RMSdq      gap      omega  full diag
   1    -42.5894031 -0.425894E+02  0.445E+00    3.52       0.0  T
   2    -42.7683054 -0.178902E+00  0.251E+00    3.36       1.0  T
   3    -42.7759211 -0.761567E-02  0.147E+00    3.35       1.0  T
   4    -42.7728404  0.308066E-02  0.553E-01    3.33       1.0  T
   5    -42.7789548 -0.611444E-02  0.112E-01    3.35       1.0  T
   6    -42.7790473 -0.924914E-04  0.614E-02    3.33       1.0  T
   7    -42.7790721 -0.247928E-04  0.258E-02    3.34       1.0  T
   8    -42.7790772 -0.508996E-05  0.938E-03    3.34       2.1  T
   9    -42.7790779 -0.669422E-06  0.448E-03    3.34       4.5  T
  10    -42.7790780 -0.821511E-07  0.115E-03    3.34      17.4  T
  11    -42.7790780 -0.322662E-08  0.553E-04    3.34      36.2  T
  12    -42.7790780 -0.287052E-08  0.180E-04    3.34     111.1  T

   *** convergence criteria satisfied after 12 iterations ***

         #    Occupation            Energy/Eh            Energy/eV
      -------------------------------------------------------------
         1        2.0000           -0.9185990             -24.9964
       ...           ...                  ...                  ...
        31        1.9996           -0.6230278             -16.9534
        32        1.9995           -0.6194601             -16.8564
        33        1.9979           -0.5974976             -16.2587
        34        1.9932           -0.5789629             -15.7544
        35        1.9817           -0.5631863             -15.3251
        36        1.9779           -0.5602245             -15.2445
        37        1.9748           -0.5581234             -15.1873 (HOMO)
        38        0.0652           -0.4353579             -11.8467 (LUMO)
        39        0.0099           -0.4050467             -11.0219
        40        0.0013           -0.3732218             -10.1559
        41        0.0000           -0.2886859              -7.8555
        42                         -0.2065804              -5.6213
       ...                                ...                  ...
        67                          0.5625656              15.3082
      -------------------------------------------------------------
                  HL-Gap            0.1227656 Eh            3.3406 eV
             Fermi-level           -0.4890455 Eh          -13.3076 eV

 SCC (total)                   0 d,  0 h,  0 min,  0.063 sec
 SCC setup                      ...        0 min,  0.000 sec (  0.387%)
 Dispersion                     ...        0 min,  0.000 sec (  0.480%)
 classical contributions        ...        0 min,  0.000 sec (  0.121%)
 integral evaluation            ...        0 min,  0.005 sec (  8.363%)
 iterations                     ...        0 min,  0.031 sec ( 49.124%)
 molecular gradient             ...        0 min,  0.026 sec ( 41.251%)
 printout                       ...        0 min,  0.000 sec (  0.251%)

         :::::::::::::::::::::::::::::::::::::::::::::::::::::
         ::                     SUMMARY                     ::
         :::::::::::::::::::::::::::::::::::::::::::::::::::::
         :: total energy             -42.687803089948 Eh    ::
         :: gradient norm              1.324492508038 Eh/a0 ::
         :: HOMO-LUMO gap              3.340621582928 eV    ::
         ::.................................................::
         :: SCC energy               -42.779077977399 Eh    ::
         :: -> isotropic ES            0.141123876439 Eh    ::
         :: -> anisotropic ES         -0.005230418907 Eh    ::
         :: -> anisotropic XC          0.011966818540 Eh    ::
         :: -> dispersion             -0.022657731803 Eh    ::
         :: repulsion energy           0.531105277918 Eh    ::
         :: add. restraining          -0.439944549477 Eh    ::
         :: total charge               1.000000000002 e     ::
         :::::::::::::::::::::::::::::::::::::::::::::::::::::

      ----------------------------------------------------------- 
     |                   =====================                   |
     |                        A N C O P T                        |
     |                   =====================                   |
     |               Approximate Normal Coordinate               |
     |                Rational Function Optimizer                |
      ----------------------------------------------------------- 

          ...................................................
          :                      SETUP                      :
          :.................................................:
          :   optimization level             loose          :
          :   max. optcycles                   200          :
          :   ANC micro-cycles                  20          :
          :   degrees of freedom                69          :
          :.................................................:
          :   RF solver                   davidson          :
          :   write xtbopt.log                true          :
          :   linear?                        false          :
          :   energy convergence         0.5000000E-04 Eh   :
          :   grad. convergence          0.4000000E-02 Eh/α :
          :   maxmium RF displ.          1.0000000          :
          :   Hlow (freq-cutoff)         0.1000000E-01      :
          :   Hmax (freq-cutoff)         5.0000000          :
          :   S6 in model hess.         20.0000000          :
          ...................................................

generating ANC from model Hessian ...
Using Lindh-Hessian (1995)
 Shifting diagonal of input Hessian by    1.3394267672573601     
 Lowest  eigenvalues of input Hessian
    0.010000    0.000000    0.000000    0.000000    0.000000    0.000000
    0.000000    1.342531    1.345010    1.346502    1.348702    1.349750
    1.351448    1.351679    1.353611    1.361576    1.364113    1.376249
 Highest eigenvalues
    3.358619    3.495953    3.564082    3.623318    3.746978    3.887262


........................................................................
.............................. CYCLE    1 ..............................
........................................................................

 iter      E             dE          RMSdq      gap      omega  full diag
   1    -42.7790780 -0.427791E+02  0.626E-05    3.34       0.0  T
   2    -42.7790780 -0.124203E-10  0.329E-05    3.34     607.4  T
   3    -42.7790780  0.106581E-12  0.193E-05    3.34    1034.2  T
     SCC iter.                  ...        0 min,  0.005 sec
     gradient                   ...        0 min,  0.026 sec
 * total energy  :   -42.6878031 Eh     change       -0.6650680E-10 Eh
   gradient norm :     1.3244923 Eh/α   predicted     0.0000000E+00 (-100.00%)
   displ. norm   :     0.9886793 α      lambda       -0.1289002E+01
   maximum displ.:     0.9850347 α      in ANC's #1, #62, #64, ...

........................................................................
.............................. CYCLE    2 ..............................
........................................................................

 iter      E             dE          RMSdq      gap      omega  full diag
   1    -42.7416388 -0.427416E+02  0.176E+00    3.51       0.0  T
   2    -42.7525804 -0.109416E-01  0.991E-01    3.53       1.0  T
   3    -42.7542676 -0.168726E-02  0.582E-01    3.46       1.0  T
   4    -42.7560734 -0.180576E-02  0.918E-02    3.49       1.0  T
   5    -42.7561457 -0.723629E-04  0.308E-02    3.49       1.0  T
   6    -42.7561582 -0.124963E-04  0.210E-02    3.49       1.0  T
   7    -42.7561613 -0.305764E-05  0.567E-03    3.49       3.5  T
   8    -42.7561617 -0.388413E-06  0.137E-03    3.49      14.6  T
   9    -42.7561617 -0.428399E-08  0.801E-04    3.49      25.0  T
  10    -42.7561617 -0.169558E-08  0.257E-04    3.49      77.9  T
     SCC iter.                  ...        0 min,  0.027 sec
     gradient                   ...        0 min,  0.026 sec
 * total energy  :   -44.5889075 Eh     change       -0.1901104E+01 Eh
   gradient norm :     2.4628835 Eh/α   predicted    -0.1274492E+01 ( -32.96%)
   displ. norm   :     0.9810501 α      lambda       -0.2371199E+01
   maximum displ.:     0.9664085 α      in ANC's #1, #58, #62, ...

........................................................................
.............................. CYCLE    3 ..............................
........................................................................

 iter      E             dE          RMSdq      gap      omega  full diag
   1    -42.3364163 -0.423364E+02  0.227E+00    2.35       0.0  T
   2    -42.3379858 -0.156951E-02  0.258E+00    0.94       1.0  T
   3    -42.4756332 -0.137647E+00  0.968E-01    1.77       1.0  T
   4    -42.4664639  0.916927E-02  0.737E-01    1.37       1.0  T
   5    -42.4762313 -0.976736E-02  0.114E-01    1.73       1.0  T
   6    -42.4764786 -0.247346E-03  0.400E-02    1.71       1.0  T
   7    -42.4765001 -0.214699E-04  0.238E-02    1.73       1.0  T
   8    -42.4765031 -0.301898E-05  0.722E-03    1.72       2.8  T
   9    -42.4765038 -0.637228E-06  0.209E-03    1.73       9.6  T
  10    -42.4765038 -0.232239E-07  0.964E-04    1.73      20.7  T
  11    -42.4765038 -0.499009E-08  0.461E-04    1.73      43.3  T
     SCC iter.                  ...        0 min,  0.028 sec
     gradient                   ...        0 min,  0.026 sec
 * total energy  :   -47.1978447 Eh     change       -0.2608937E+01 Eh
   gradient norm :     4.7562755 Eh/α   predicted    -0.2326692E+01 ( -10.82%)
   displ. norm   :     0.8561976 α      lambda       -0.3935432E+01
   maximum displ.:     0.5837677 α      in ANC's #1, #50, #65, ...

........................................................................
.............................. CYCLE    4 ..............................
........................................................................

 iter      E             dE          RMSdq      gap      omega  full diag
   1    -42.1555036 -0.421555E+02  0.215E+00    0.46       0.0  T
   2    -42.1054354  0.500683E-01  0.210E+00    0.10       1.0  T
   3    -42.1563344 -0.508991E-01  0.101E+00    0.82       1.0  T
   4    -42.1213753  0.349592E-01  0.143E+00    0.27       1.0  T
   5    -42.1916378 -0.702625E-01  0.162E-01    0.37       1.0  T
   6    -42.1920392 -0.401467E-03  0.840E-02    0.35       1.0  T
   7    -42.1921121 -0.728414E-04  0.374E-02    0.35       1.0  T
   8    -42.1921303 -0.182326E-04  0.869E-03    0.35       2.3  T
   9    -42.1921320 -0.169935E-05  0.249E-03    0.36       8.0  T
  10    -42.1921320 -0.157827E-07  0.131E-03    0.35      15.3  T
  11    -42.1921320 -0.897775E-08  0.323E-04    0.35      61.9  T
  12    -42.1921320 -0.471218E-09  0.187E-04    0.35     106.8  T
     SCC iter.                  ...        0 min,  0.042 sec
     gradient                   ...        0 min,  0.026 sec
 * total energy  :   -50.2821963 Eh     change       -0.3084352E+01 Eh
   gradient norm :     5.0020539 Eh/α   predicted    -0.3410494E+01 (  10.57%)
   displ. norm   :     0.9470089 α      lambda       -0.4057358E+01
   maximum displ.:     0.8696609 α      in ANC's #1, #65, #50, ...

........................................................................
.............................. CYCLE    5 ..............................
........................................................................

 iter      E             dE          RMSdq      gap      omega  full diag
   1    -41.9350694 -0.419351E+02  0.433E+00    1.20       0.0  T
   2    -41.7178823  0.217187E+00  0.330E+00    1.30       1.0  T
   3    -41.8574958 -0.139613E+00  0.304E+00    1.42       1.0  T
   4    -42.0374076 -0.179912E+00  0.112E+00    1.01       1.0  T
   5    -42.0427519 -0.534438E-02  0.832E-01    0.94       1.0  T
   6    -42.0708481 -0.280962E-01  0.217E-01    0.97       1.0  T
   7    -42.0719554 -0.110729E-02  0.903E-02    0.99       1.0  T
   8    -42.0721234 -0.167934E-03  0.353E-02    1.00       1.0  T
   9    -42.0721446 -0.212636E-04  0.867E-03    1.00       2.3  T
  10    -42.0721455 -0.893685E-06  0.340E-03    1.00       5.9  T
  11    -42.0721457 -0.132816E-06  0.155E-03    1.00      12.9  T
  12    -42.0721457 -0.334205E-07  0.450E-04    1.00      44.5  T
  13    -42.0721457 -0.539241E-08  0.151E-04    1.00     132.6  T
     SCC iter.                  ...        0 min,  0.031 sec
     gradient                   ...        0 min,  0.026 sec
 * total energy  :   -53.9838237 Eh     change       -0.3701627E+01 Eh
   gradient norm :     8.6611137 Eh/α   predicted    -0.3848052E+01 (   3.96%)
   displ. norm   :     0.8954956 α      lambda       -0.5399364E+01
   maximum displ.:     0.7341361 α      in ANC's #1, #63, #66, ...

........................................................................
.............................. CYCLE    6 ..............................
........................................................................

 iter      E             dE          RMSdq      gap      omega  full diag
   1    -42.1912152 -0.421912E+02  0.185E+00    0.92       0.0  T
   2    -41.9703498  0.220865E+00  0.273E+00    0.83       1.0  T
   3    -42.2440085 -0.273659E+00  0.913E-01    0.76       1.0  T
   4    -42.2471391 -0.313067E-02  0.537E-01    0.90       1.0  T
   5    -42.2479256 -0.786505E-03  0.383E-01    0.60       1.0  T
   6    -42.2523817 -0.445603E-02  0.232E-01    0.81       1.0  T
   7    -42.2538705 -0.148884E-02  0.811E-02    0.76       1.0  T
   8    -42.2540318 -0.161283E-03  0.154E-02    0.74       1.3  T
   9    -42.2540332 -0.135341E-05  0.613E-03    0.74       3.3  T
  10    -42.2540336 -0.443971E-06  0.199E-03    0.74      10.0  T
  11    -42.2540336 -0.500633E-07  0.624E-04    0.74      32.1  T
  12    -42.2540336 -0.318798E-08  0.211E-04    0.74      95.0  T
     SCC iter.                  ...        0 min,  0.029 sec
     gradient                   ...        0 min,  0.026 sec
 * total energy  :   -57.0428821 Eh     change       -0.3059058E+01 Eh
   gradient norm :     6.8339622 Eh/α   predicted    -0.4864592E+01 (  59.02%)
   displ. norm   :     0.7420096 α      lambda       -0.4365216E+01
   maximum displ.:     0.3076912 α      in ANC's #58, #63, #1, ...

........................................................................
.............................. CYCLE    7 ..............................
........................................................................

 iter      E             dE          RMSdq      gap      omega  full diag
   1    -42.0763188 -0.420763E+02  0.330E+00    0.59       0.0  T
   2    -41.6253538  0.450965E+00  0.397E+00    0.18       1.0  T
   3    -42.1892768 -0.563923E+00  0.187E+00    0.62       1.0  T
   4    -42.2223291 -0.330523E-01  0.182E+00    0.75       1.0  T
   5    -42.2847657 -0.624367E-01  0.645E-01    0.21       1.0  T
   6    -42.2847303  0.354035E-04  0.451E-01    0.20       1.0  T
   7    -42.2904592 -0.572883E-02  0.846E-02    0.14       1.0  T
   8    -42.2905642 -0.104994E-03  0.358E-02    0.13       1.0  T
   9    -42.2905697 -0.556775E-05  0.117E-02    0.13       1.7  T
  10    -42.2905721 -0.240727E-05  0.395E-03    0.13       5.1  T
  11    -42.2905722 -0.825430E-07  0.191E-03    0.13      10.5  T
  12    -42.2905722 -0.227269E-07  0.936E-04    0.13      21.4  T
  13    -42.2905722 -0.467418E-08  0.180E-04    0.13     111.1  T
     SCC iter.                  ...        0 min,  0.031 sec
     gradient                   ...        0 min,  0.026 sec
 * total energy  :   -58.2521415 Eh     change       -0.1209259E+01 Eh
   gradient norm :     4.7195702 Eh/α   predicted    -0.3384303E+01 ( 179.87%)
   displ. norm   :     0.5908593 α      lambda       -0.1425043E+01
   maximum displ.:     0.2509595 α      in ANC's #63, #64, #65, ...

........................................................................
.............................. CYCLE    8 ..............................
........................................................................

 iter      E             dE          RMSdq      gap      omega  full diag
   1    -42.1736721 -0.421737E+02  0.167E+00    0.75       0.0  T
   2    -41.6647125  0.508960E+00  0.363E+00    0.57       1.0  T
   3    -42.2806044 -0.615892E+00  0.968E-01    0.15       1.0  T
   4    -42.2632642  0.173402E-01  0.105E+00    0.37       1.0  T
   5    -42.2727010 -0.943685E-02  0.679E-01    0.12       1.0  T
   6    -42.2837226 -0.110216E-01  0.297E-01    0.14       1.0  T
   7    -42.2865333 -0.281062E-02  0.193E-01    0.01       1.0  T
   8    -42.2865626 -0.293318E-04  0.123E-01    0.01       1.0  T
   9    -42.2866130 -0.504306E-04  0.285E-02    0.02       1.0  T
  10    -42.2866255 -0.125069E-04  0.169E-02    0.02       1.2  T
  11    -42.2866273 -0.181520E-05  0.293E-03    0.02       6.8  T
  12    -42.2866274 -0.273579E-07  0.667E-04    0.02      30.0  T
  13    -42.2866274 -0.412028E-08  0.538E-04    0.02      37.2  T
     SCC iter.                  ...        0 min,  0.031 sec
     gradient                   ...        0 min,  0.013 sec
 * total energy  :   -58.9609045 Eh     change       -0.7087631E+00 Eh
   gradient norm :     2.2664174 Eh/α   predicted    -0.9612739E+00 (  35.63%)
   displ. norm   :     0.8243003 α      lambda       -0.1359444E+01
   maximum displ.:     0.5848635 α      in ANC's #1, #49, #39, ...

........................................................................
.............................. CYCLE    9 ..............................
........................................................................

 iter      E             dE          RMSdq      gap      omega  full diag
   1    -42.2086422 -0.422086E+02  0.222E+00    0.43       0.0  T
   2    -42.2135090 -0.486680E-02  0.176E+00    0.09       1.0  T
   3    -42.2746315 -0.611225E-01  0.831E-01    0.20       1.0  T
   4    -42.2688201  0.581134E-02  0.686E-01    0.03       1.0  T
   5    -42.2794578 -0.106377E-01  0.287E-01    0.23       1.0  T
   6    -42.2820849 -0.262712E-02  0.179E-01    0.04       1.0  T
   7    -42.2833796 -0.129465E-02  0.456E-02    0.12       1.0  T
   8    -42.2833928 -0.132022E-04  0.199E-02    0.11       1.0  T
   9    -42.2833958 -0.303463E-05  0.702E-03    0.12       2.8  T
  10    -42.2833968 -0.993572E-06  0.260E-03    0.11       7.7  T
  11    -42.2833969 -0.753318E-07  0.926E-04    0.11      21.6  T
  12    -42.2833969 -0.109909E-07  0.337E-04    0.11      59.3  T
     SCC iter.                  ...        0 min,  0.016 sec
     gradient                   ...        0 min,  0.013 sec
 * total energy  :   -57.4849396 Eh     change        0.1475965E+01 Eh
   gradient norm :    19.4628201 Eh/α   predicted    -0.1141573E+01 (-177.34%)
   displ. norm   :     0.7913767 α      lambda       -0.1503221E+02
   maximum displ.:     0.3334295 α      in ANC's #36, #65, #60, ...

........................................................................
.............................. CYCLE   10 ..............................
........................................................................

 iter      E             dE          RMSdq      gap      omega  full diag
   1    -42.0313023 -0.420313E+02  0.286E+00    0.65       0.0  T
   2    -41.2549593  0.776343E+00  0.490E+00    0.88       1.0  T
   3    -42.1010509 -0.846092E+00  0.183E+00    1.00       1.0  T
   4    -42.1486308 -0.475799E-01  0.123E+00    0.25       1.0  T
   5    -42.2111224 -0.624916E-01  0.581E-01    0.40       1.0  T
   6    -42.2186010 -0.747855E-02  0.298E-01    0.14       1.0  T
   7    -42.2207220 -0.212105E-02  0.962E-02    0.23       1.0  T
   8    -42.2208645 -0.142459E-03  0.497E-02    0.24       1.0  T
   9    -42.2209361 -0.715566E-04  0.142E-02    0.24       1.4  T
  10    -42.2209373 -0.128956E-05  0.525E-03    0.24       3.8  T
  11    -42.2209376 -0.236287E-06  0.193E-03    0.24      10.4  T
  12    -42.2209376 -0.452860E-07  0.679E-04    0.24      29.5  T
  13    -42.2209376 -0.411070E-08  0.244E-04    0.24      82.1  T
     SCC iter.                  ...        0 min,  0.018 sec
     gradient                   ...        0 min,  0.013 sec
 * total energy  :   -55.8950915 Eh     change        0.1589848E+01 Eh
   gradient norm :     7.8541435 Eh/α   predicted    -0.1222327E+02 (-868.83%)
   displ. norm   :     0.3228441 α      lambda       -0.1894903E+01
   maximum displ.:     0.1711230 α      in ANC's #1, #36, #39, ...

........................................................................
.............................. CYCLE   11 ..............................
........................................................................

 iter      E             dE          RMSdq      gap      omega  full diag
   1    -42.1716571 -0.421717E+02  0.972E-01    0.30       0.0  T
   2    -42.1294204  0.422367E-01  0.113E+00    0.29       1.0  T
   3    -42.1688230 -0.394026E-01  0.643E-01    0.47       1.0  T
   4    -42.1789077 -0.100847E-01  0.524E-01    0.03       1.0  T
   5    -42.1830167 -0.410902E-02  0.310E-01    0.17       1.0  T
   6    -42.1863563 -0.333956E-02  0.843E-02    0.14       1.0  T
   7    -42.1863998 -0.435279E-04  0.533E-02    0.14       1.0  T
   8    -42.1864597 -0.599129E-04  0.235E-02    0.14       1.0  T
   9    -42.1864726 -0.128729E-04  0.480E-03    0.15       4.2  T
  10    -42.1864731 -0.469734E-06  0.159E-03    0.15      12.6  T
  11    -42.1864731 -0.190756E-07  0.677E-04    0.15      29.5  T
  12    -42.1864731 -0.756751E-08  0.258E-04    0.15      77.6  T
     SCC iter.                  ...        0 min,  0.016 sec
     gradient                   ...        0 min,  0.013 sec
 * total energy  :   -57.5579516 Eh     change       -0.1662860E+01 Eh
   gradient norm :     6.7954172 Eh/α   predicted    -0.1046201E+01 ( -37.08%)
   displ. norm   :     0.7544851 α      lambda       -0.4941587E+01
   maximum displ.:     0.2968626 α      in ANC's #39, #65, #36, ...

........................................................................
.............................. CYCLE   12 ..............................
........................................................................

 iter      E             dE          RMSdq      gap      omega  full diag
   1    -42.1744147 -0.421744E+02  0.273E+00    0.09       0.0  T
   2    -42.0929500  0.814647E-01  0.229E+00    0.17       1.0  T
   3    -42.2487309 -0.155781E+00  0.123E+00    0.12       1.0  T
   4    -42.2729311 -0.242002E-01  0.500E-01    0.08       1.0  T
   5    -42.2727681  0.163012E-03  0.297E-01    0.04       1.0  T
   6    -42.2735314 -0.763319E-03  0.227E-01    0.19       1.0  T
   7    -42.2756241 -0.209272E-02  0.107E-01    0.04       1.0  T
   8    -42.2759280 -0.303912E-03  0.399E-02    0.07       1.0  T
   9    -42.2759405 -0.124180E-04  0.170E-02    0.07       1.2  T
  10    -42.2759494 -0.892152E-05  0.453E-03    0.07       4.4  T
  11    -42.2759497 -0.356605E-06  0.220E-03    0.07       9.1  T
  12    -42.2759498 -0.655396E-07  0.387E-04    0.07      51.7  T
  13    -42.2759498 -0.211215E-08  0.128E-04    0.07     156.1  T
     SCC iter.                  ...        0 min,  0.017 sec
     gradient                   ...        0 min,  0.013 sec
 * total energy  :   -51.7973345 Eh     change        0.5760617E+01 Eh
   gradient norm :    74.7266180 Eh/α   predicted    -0.3877288E+01 (-167.31%)
   displ. norm   :     0.4931957 α      lambda       -0.3684574E+02
   maximum displ.:     0.2144122 α      in ANC's #36, #60, #65, ...

........................................................................
.............................. CYCLE   13 ..............................
........................................................................

 iter      E             dE          RMSdq      gap      omega  full diag
   1    -42.1177105 -0.421177E+02  0.214E+00    0.50       0.0  T
   2    -41.8328458  0.284865E+00  0.310E+00    0.17       1.0  T
   3    -42.1670554 -0.334210E+00  0.114E+00    0.52       1.0  T
   4    -42.1504109  0.166445E-01  0.103E+00    0.38       1.0  T
   5    -42.2032117 -0.528007E-01  0.296E-01    0.18       1.0  T
   6    -42.2055626 -0.235093E-02  0.123E-01    0.11       1.0  T
   7    -42.2058204 -0.257833E-03  0.424E-02    0.12       1.0  T
   8    -42.2058685 -0.481089E-04  0.166E-02    0.13       1.2  T
   9    -42.2058721 -0.356759E-05  0.795E-03    0.13       2.5  T
  10    -42.2058729 -0.831167E-06  0.535E-03    0.13       3.7  T
  11    -42.2058734 -0.442354E-06  0.174E-03    0.13      11.5  T
  12    -42.2058734 -0.781552E-07  0.452E-04    0.13      44.2  T
  13    -42.2058734 -0.975170E-09  0.158E-04    0.13     126.3  T
     SCC iter.                  ...        0 min,  0.018 sec
     gradient                   ...        0 min,  0.013 sec
 * total energy  :   -58.8788172 Eh     change       -0.7081483E+01 Eh
   gradient norm :     4.0506840 Eh/α   predicted    -0.2290408E+02 ( 223.44%)
   displ. norm   :     0.2498196 α      lambda       -0.1408731E+00
   maximum displ.:     0.1115977 α      in ANC's #16, #39, #40, ...

........................................................................
.............................. CYCLE   14 ..............................
........................................................................

 iter      E             dE          RMSdq      gap      omega  full diag
   1    -42.1948294 -0.421948E+02  0.407E-01    0.28       0.0  T
   2    -42.1843350  0.104943E-01  0.672E-01    0.11       1.0  T
   3    -42.1979852 -0.136501E-01  0.215E-01    0.21       1.0  T
   4    -42.1961445  0.184064E-02  0.276E-01    0.05       1.0  T
   5    -42.1979222 -0.177763E-02  0.131E-01    0.18       1.0  T
   6    -42.1986832 -0.760983E-03  0.250E-02    0.16       1.0  T
   7    -42.1986905 -0.736203E-05  0.162E-02    0.16       1.2  T
   8    -42.1986972 -0.670810E-05  0.662E-03    0.16       3.0  T
   9    -42.1986982 -0.100006E-05  0.134E-03    0.17      14.9  T
  10    -42.1986983 -0.537123E-07  0.370E-04    0.17      54.1  T
  11    -42.1986983 -0.737501E-09  0.188E-04    0.17     106.5  T
     SCC iter.                  ...        0 min,  0.015 sec
     gradient                   ...        0 min,  0.013 sec
 * total energy  :   -58.9927821 Eh     change       -0.1139649E+00 Eh
   gradient norm :     3.5426020 Eh/α   predicted    -0.7483251E-01 ( -34.34%)
   displ. norm   :     0.5582504 α      lambda       -0.7227460E+00
   maximum displ.:     0.2331023 α      in ANC's #16, #65, #19, ...

........................................................................
.............................. CYCLE   15 ..............................
........................................................................

 iter      E             dE          RMSdq      gap      omega  full diag
   1    -42.2242420 -0.422242E+02  0.114E+00    0.09       0.0  T
   2    -42.2258021 -0.156009E-02  0.694E-01    0.10       1.0  T
   3    -42.2259001 -0.979991E-04  0.565E-01    0.10       1.0  T
   4    -42.2268292 -0.929093E-03  0.310E-01    0.02       1.0  T
   5    -42.2290142 -0.218503E-02  0.174E-01    0.17       1.0  T
   6    -42.2301164 -0.110216E-02  0.982E-02    0.04       1.0  T
   7    -42.2303867 -0.270295E-03  0.359E-02    0.07       1.0  T
   8    -42.2303886 -0.189184E-05  0.288E-02    0.07       1.0  T
   9    -42.2304123 -0.237959E-04  0.948E-03    0.07       2.1  T
  10    -42.2304143 -0.200263E-05  0.137E-03    0.08      14.6  T
  11    -42.2304144 -0.127796E-07  0.712E-04    0.08      28.1  T
  12    -42.2304144 -0.141652E-08  0.371E-04    0.08      53.9  T
     SCC iter.                  ...        0 min,  0.017 sec
     gradient                   ...        0 min,  0.014 sec
 * total energy  :   -59.1592254 Eh     change       -0.1664433E+00 Eh
   gradient norm :     2.8142743 Eh/α   predicted    -0.4739929E+00 ( 184.78%)
   displ. norm   :     0.2077752 α      lambda       -0.2180559E+00
   maximum displ.:     0.1221804 α      in ANC's #65, #47, #68, ...

........................................................................
.............................. CYCLE   16 ..............................
........................................................................

 iter      E             dE          RMSdq      gap      omega  full diag
   1    -42.2136156 -0.422136E+02  0.777E-01    0.29       0.0  T
   2    -42.1827484  0.308672E-01  0.993E-01    0.31       1.0  T
   3    -42.2091708 -0.264224E-01  0.619E-01    0.42       1.0  T
   4    -42.2225342 -0.133634E-01  0.265E-01    0.08       1.0  T
   5    -42.2220334  0.500808E-03  0.221E-01    0.17       1.0  T
   6    -42.2240529 -0.201947E-02  0.363E-02    0.12       1.0  T
   7    -42.2240671 -0.141942E-04  0.228E-02    0.12       1.0  T
   8    -42.2240786 -0.114902E-04  0.873E-03    0.12       2.3  T
   9    -42.2240792 -0.598961E-06  0.349E-03    0.12       5.7  T
  10    -42.2240792 -0.423076E-07  0.181E-03    0.12      11.1  T
  11    -42.2240793 -0.647706E-07  0.526E-04    0.12      38.0  T
  12    -42.2240793 -0.673628E-08  0.190E-04    0.12     105.1  T
     SCC iter.                  ...        0 min,  0.035 sec
     gradient                   ...        0 min,  0.026 sec
 * total energy  :   -59.2602462 Eh     change       -0.1010207E+00 Eh
   gradient norm :     0.1638229 Eh/α   predicted    -0.1137347E+00 (  12.59%)
   displ. norm   :     0.1272288 α      lambda       -0.1534419E-01
   maximum displ.:     0.0727731 α      in ANC's #16, #19, #40, ...

........................................................................
.............................. CYCLE   17 ..............................
........................................................................

 iter      E             dE          RMSdq      gap      omega  full diag
   1    -42.2291769 -0.422292E+02  0.215E-01    0.18       0.0  T
   2    -42.2259298  0.324713E-02  0.334E-01    0.03       1.0  T
   3    -42.2294179 -0.348807E-02  0.142E-01    0.19       1.0  T
   4    -42.2299438 -0.525935E-03  0.924E-02    0.10       1.0  T
   5    -42.2301438 -0.199939E-03  0.501E-02    0.13       1.0  T
   6    -42.2302267 -0.829273E-04  0.124E-02    0.13       1.6  T
   7    -42.2302311 -0.444551E-05  0.569E-03    0.13       3.5  T
   8    -42.2302319 -0.759962E-06  0.209E-03    0.13       9.6  T
   9    -42.2302319 -0.443654E-07  0.473E-04    0.13      42.3  T
  10    -42.2302319 -0.549662E-09  0.333E-04    0.13      60.1  T
     SCC iter.                  ...        0 min,  0.027 sec
     gradient                   ...        0 min,  0.026 sec
 * total energy  :   -59.2737702 Eh     change       -0.1352406E-01 Eh
   gradient norm :     0.1822031 Eh/α   predicted    -0.7796326E-02 ( -42.35%)
   displ. norm   :     0.5347406 α      lambda       -0.5964604E-01
   maximum displ.:     0.3140028 α      in ANC's #16, #19, #36, ...

........................................................................
.............................. CYCLE   18 ..............................
........................................................................

 iter      E             dE          RMSdq      gap      omega  full diag
   1    -42.2543692 -0.422544E+02  0.701E-01    0.31       0.0  T
   2    -42.2391307  0.152385E-01  0.875E-01    0.17       1.0  T
   3    -42.2546952 -0.155645E-01  0.431E-01    0.36       1.0  T
   4    -42.2506549  0.404032E-02  0.493E-01    0.04       1.0  T
   5    -42.2594922 -0.883728E-02  0.238E-01    0.19       1.0  T
   6    -42.2615104 -0.201822E-02  0.718E-02    0.17       1.0  T
   7    -42.2616905 -0.180051E-03  0.234E-02    0.16       1.0  T
   8    -42.2617003 -0.983289E-05  0.961E-03    0.16       2.1  T
   9    -42.2617010 -0.738619E-06  0.317E-03    0.16       6.3  T
  10    -42.2617014 -0.409217E-06  0.105E-03    0.16      19.1  T
  11    -42.2617015 -0.128552E-07  0.624E-04    0.16      32.0  T
  12    -42.2617015 -0.100251E-07  0.118E-04    0.16     169.0  T
     SCC iter.                  ...        0 min,  0.038 sec
     gradient                   ...        0 min,  0.026 sec
 * total energy  :   -59.3238020 Eh     change       -0.5003183E-01 Eh
   gradient norm :     0.1594781 Eh/α   predicted    -0.3835088E-01 ( -23.35%)
   displ. norm   :     0.6566596 α      lambda       -0.5690672E-01
   maximum displ.:     0.3864892 α      in ANC's #16, #19, #36, ...

........................................................................
.............................. CYCLE   19 ..............................
........................................................................

 iter      E             dE          RMSdq      gap      omega  full diag
   1    -42.2709105 -0.422709E+02  0.811E-01    0.21       0.0  T
   2    -42.2601834  0.107271E-01  0.865E-01    0.10       1.0  T
   3    -42.2746814 -0.144980E-01  0.377E-01    0.23       1.0  T
   4    -42.2624998  0.121816E-01  0.616E-01    0.12       1.0  T
   5    -42.2765701 -0.140702E-01  0.231E-01    0.11       1.0  T
   6    -42.2780110 -0.144091E-02  0.978E-02    0.21       1.0  T
   7    -42.2784035 -0.392474E-03  0.342E-02    0.16       1.0  T
   8    -42.2784365 -0.330545E-04  0.120E-02    0.17       1.7  T
   9    -42.2784389 -0.234219E-05  0.314E-03    0.17       6.4  T
  10    -42.2784392 -0.343036E-06  0.108E-03    0.17      18.6  T
  11    -42.2784392 -0.392635E-08  0.583E-04    0.17      34.3  T
  12    -42.2784392 -0.120393E-07  0.118E-04    0.17     169.6  T
     SCC iter.                  ...        0 min,  0.030 sec
     gradient                   ...        0 min,  0.026 sec
 * total energy  :   -59.3582656 Eh     change       -0.3446351E-01 Eh
   gradient norm :     0.6941183 Eh/α   predicted    -0.4072254E-01 (  18.16%)
   displ. norm   :     0.3155686 α      lambda       -0.3015468E-01
   maximum displ.:     0.1786993 α      in ANC's #16, #19, #36, ...

........................................................................
.............................. CYCLE   20 ..............................
........................................................................

 iter      E             dE          RMSdq      gap      omega  full diag
   1    -42.2750434 -0.422750E+02  0.371E-01    0.11       0.0  T
   2    -42.2740177  0.102571E-02  0.316E-01    0.06       1.0  T
   3    -42.2748244 -0.806714E-03  0.213E-01    0.14       1.0  T
   4    -42.2746843  0.140105E-03  0.184E-01    0.05       1.0  T
   5    -42.2753375 -0.653134E-03  0.115E-01    0.11       1.0  T
   6    -42.2758930 -0.555571E-03  0.452E-02    0.11       1.0  T
   7    -42.2759710 -0.779942E-04  0.130E-02    0.09       1.5  T
   8    -42.2759763 -0.525859E-05  0.533E-03    0.10       3.8  T
   9    -42.2759765 -0.209623E-06  0.193E-03    0.10      10.4  T
  10    -42.2759766 -0.112021E-06  0.840E-04    0.10      23.8  T
  11    -42.2759766 -0.900128E-08  0.241E-04    0.10      82.9  T
     SCC iter.                  ...        0 min,  0.041 sec
     gradient                   ...        0 min,  0.026 sec
 * total energy  :   -59.3739861 Eh     change       -0.1572051E-01 Eh
   gradient norm :     0.1927992 Eh/α   predicted    -0.1657877E-01 (   5.46%)
   displ. norm   :     0.1938553 α      lambda       -0.6457926E-02
   maximum displ.:     0.1148507 α      in ANC's #16, #19, #36, ...
 * RMSD in coord.:     1.2007089 α      energy gain  -0.1668618E+02 Eh

generating ANC from model Hessian ...
Using Lindh-Hessian (1995)
 Shifting diagonal of input Hessian by    9.3377522929558969E-003
 Lowest  eigenvalues of input Hessian
    0.000000    0.000000    0.000000    0.000000    0.000000    0.000000
    0.010000    0.011129    0.011443    0.011750    0.013150    0.014887
    0.017375    0.019517    0.022094    0.022916    0.030160    0.032318
 Highest eigenvalues
    2.044129    2.318543    2.421831    2.632027   16.546224   23.008543


........................................................................
.............................. CYCLE   21 ..............................
........................................................................

 iter      E             dE          RMSdq      gap      omega  full diag
   1    -42.2732720 -0.422733E+02  0.234E-01    0.13       0.0  T
   2    -42.2721346  0.113737E-02  0.253E-01    0.08       1.0  T
   3    -42.2728508 -0.716244E-03  0.157E-01    0.11       1.0  T
   4    -42.2710495  0.180134E-02  0.234E-01    0.14       1.0  T
   5    -42.2736973 -0.264784E-02  0.498E-02    0.10       1.0  T
   6    -42.2737409 -0.436138E-04  0.255E-02    0.11       1.0  T
   7    -42.2737612 -0.203017E-04  0.972E-03    0.11       2.1  T
   8    -42.2737640 -0.275295E-05  0.321E-03    0.11       6.2  T
   9    -42.2737640 -0.236903E-07  0.131E-03    0.11      15.3  T
  10    -42.2737641 -0.579376E-07  0.580E-04    0.11      34.5  T
  11    -42.2737641 -0.613456E-08  0.171E-04    0.11     117.3  T
     SCC iter.                  ...        0 min,  0.028 sec
     gradient                   ...        0 min,  0.026 sec
 * total energy  :   -59.3784201 Eh     change       -0.4434003E-02 Eh
   gradient norm :     0.0959950 Eh/α   predicted     0.0000000E+00 (-100.00%)
   displ. norm   :     0.4121086 α      lambda       -0.2128742E-01
   maximum displ.:     0.1545589 α      in ANC's #36, #7, #14, ...

........................................................................
.............................. CYCLE   22 ..............................
........................................................................

 iter      E             dE          RMSdq      gap      omega  full diag
   1    -42.3015953 -0.423016E+02  0.362E-01    0.07       0.0  T
   2    -42.2985644  0.303092E-02  0.342E-01    0.16       1.0  T
   3    -42.2953967  0.316768E-02  0.386E-01    0.03       1.0  T
   4    -42.3004265 -0.502976E-02  0.211E-01    0.08       1.0  T
   5    -42.3019713 -0.154485E-02  0.761E-02    0.12       1.0  T
   6    -42.3021273 -0.155962E-03  0.320E-02    0.10       1.0  T
   7    -42.3021589 -0.316156E-04  0.110E-02    0.10       1.8  T
   8    -42.3021590 -0.151792E-06  0.753E-03    0.10       2.7  T
   9    -42.3021606 -0.158088E-05  0.205E-03    0.10       9.8  T
  10    -42.3021607 -0.955093E-07  0.822E-04    0.10      24.3  T
  11    -42.3021607 -0.109878E-07  0.236E-04    0.10      84.6  T
     SCC iter.                  ...        0 min,  0.028 sec
     gradient                   ...        0 min,  0.026 sec
 * total energy  :   -59.3728878 Eh     change        0.5532277E-02 Eh
   gradient norm :     1.4061855 Eh/α   predicted    -0.1245141E-01 (-325.07%)
   displ. norm   :     0.4826277 α      lambda       -0.7286709E-01
   maximum displ.:     0.2208508 α      in ANC's #36, #21, #28, ...

........................................................................
.............................. CYCLE   23 ..............................
........................................................................

 iter      E             dE          RMSdq      gap      omega  full diag
   1    -42.3296106 -0.423296E+02  0.501E-01    0.16       0.0  T
   2    -42.3281405  0.147018E-02  0.371E-01    0.10       1.0  T
   3    -42.3202064  0.793407E-02  0.517E-01    0.26       1.0  T
   4    -42.3281235 -0.791707E-02  0.217E-01    0.16       1.0  T
   5    -42.3293165 -0.119304E-02  0.151E-01    0.10       1.0  T
   6    -42.3303412 -0.102467E-02  0.293E-02    0.15       1.0  T
   7    -42.3303586 -0.174371E-04  0.123E-02    0.14       1.6  T
   8    -42.3303586 -0.167920E-07  0.895E-03    0.14       2.2  T
   9    -42.3303605 -0.184731E-05  0.416E-03    0.14       4.8  T
  10    -42.3303610 -0.491077E-06  0.159E-03    0.14      12.6  T
  11    -42.3303610 -0.647660E-07  0.384E-04    0.14      52.1  T
  12    -42.3303610 -0.165861E-08  0.142E-04    0.14     140.6  T
     SCC iter.                  ...        0 min,  0.030 sec
     gradient                   ...        0 min,  0.026 sec
 * total energy  :   -59.3973143 Eh     change       -0.2442648E-01 Eh
   gradient norm :     0.4564400 Eh/α   predicted    -0.4492002E-01 (  83.90%)
   displ. norm   :     0.4119603 α      lambda       -0.1973082E-01
   maximum displ.:     0.1756173 α      in ANC's #12, #18, #6, ...

........................................................................
.............................. CYCLE   24 ..............................
........................................................................

 iter      E             dE          RMSdq      gap      omega  full diag
   1    -42.3273903 -0.423274E+02  0.430E-01    0.28       0.0  T
   2    -42.3198080  0.758233E-02  0.549E-01    0.06       1.0  T
   3    -42.3274339 -0.762589E-02  0.296E-01    0.30       1.0  T
   4    -42.3266713  0.762587E-03  0.262E-01    0.18       1.0  T
   5    -42.3283782 -0.170686E-02  0.144E-01    0.23       1.0  T
   6    -42.3291934 -0.815237E-03  0.628E-02    0.23       1.0  T
   7    -42.3293658 -0.172422E-03  0.148E-02    0.22       1.4  T
   8    -42.3293706 -0.482696E-05  0.679E-03    0.22       2.9  T
   9    -42.3293714 -0.743995E-06  0.103E-03    0.22      19.5  T
  10    -42.3293714 -0.159616E-07  0.541E-04    0.22      36.9  T
  11    -42.3293714 -0.159238E-08  0.264E-04    0.22      75.7  T
     SCC iter.                  ...        0 min,  0.041 sec
     gradient                   ...        0 min,  0.013 sec
 * total energy  :   -59.4147930 Eh     change       -0.1747870E-01 Eh
   gradient norm :     0.1833074 Eh/α   predicted    -0.1153969E-01 ( -33.98%)
   displ. norm   :     0.7965936 α      lambda       -0.3635691E-01
   maximum displ.:     0.3588755 α      in ANC's #18, #12, #32, ...

........................................................................
.............................. CYCLE   25 ..............................
........................................................................

 iter      E             dE          RMSdq      gap      omega  full diag
   1    -42.3148056 -0.423148E+02  0.968E-01    0.63       0.0  T
   2    -42.1871838  0.127622E+00  0.199E+00    0.21       1.0  T
   3    -42.3245155 -0.137332E+00  0.597E-01    0.61       1.0  T
   4    -42.3250114 -0.495855E-03  0.493E-01    0.40       1.0  T
   5    -42.3309983 -0.598695E-02  0.172E-01    0.47       1.0  T
   6    -42.3289539  0.204441E-02  0.264E-01    0.49       1.0  T
   7    -42.3324539 -0.350006E-02  0.415E-02    0.47       1.0  T
   8    -42.3324678 -0.138761E-04  0.163E-02    0.47       1.2  T
   9    -42.3324716 -0.378694E-05  0.870E-03    0.47       2.3  T
  10    -42.3324736 -0.195110E-05  0.253E-03    0.47       7.9  T
  11    -42.3324737 -0.111279E-06  0.746E-04    0.47      26.8  T
  12    -42.3324737 -0.807035E-08  0.368E-04    0.47      54.4  T
     SCC iter.                  ...        0 min,  0.029 sec
     gradient                   ...        0 min,  0.026 sec
 * total energy  :   -59.4415336 Eh     change       -0.2674067E-01 Eh
   gradient norm :     0.3140902 Eh/α   predicted    -0.2971379E-01 (  11.12%)
   displ. norm   :     0.4790246 α      lambda       -0.2180582E-01
   maximum displ.:     0.2277662 α      in ANC's #12, #32, #20, ...

........................................................................
.............................. CYCLE   26 ..............................
........................................................................

 iter      E             dE          RMSdq      gap      omega  full diag
   1    -42.3371401 -0.423371E+02  0.644E-01    0.61       0.0  T
   2    -42.2668712  0.702689E-01  0.144E+00    0.24       1.0  T
   3    -42.3435686 -0.766974E-01  0.291E-01    0.54       1.0  T
   4    -42.3401987  0.336987E-02  0.366E-01    0.46       1.0  T
   5    -42.3442719 -0.407323E-02  0.677E-02    0.52       1.0  T
   6    -42.3439758  0.296182E-03  0.910E-02    0.50       1.0  T
   7    -42.3443122 -0.336451E-03  0.419E-02    0.51       1.0  T
   8    -42.3443794 -0.672127E-04  0.116E-02    0.51       1.7  T
   9    -42.3443841 -0.467823E-05  0.455E-03    0.51       4.4  T
  10    -42.3443845 -0.432901E-06  0.110E-03    0.51      18.1  T
  11    -42.3443845 -0.791659E-08  0.461E-04    0.51      43.4  T
  12    -42.3443845 -0.477633E-08  0.173E-04    0.51     115.3  T
     SCC iter.                  ...        0 min,  0.029 sec
     gradient                   ...        0 min,  0.026 sec
 * total energy  :   -59.4561991 Eh     change       -0.1466547E-01 Eh
   gradient norm :     0.1814955 Eh/α   predicted    -0.1340474E-01 (  -8.60%)
   displ. norm   :     0.3976139 α      lambda       -0.2204698E-01
   maximum displ.:     0.1724310 α      in ANC's #20, #18, #36, ...

........................................................................
.............................. CYCLE   27 ..............................
........................................................................

 iter      E             dE          RMSdq      gap      omega  full diag
   1    -42.3809448 -0.423809E+02  0.456E-01    0.61       0.0  T
   2    -42.3735571  0.738767E-02  0.524E-01    0.49       1.0  T
   3    -42.3779545 -0.439744E-02  0.390E-01    0.67       1.0  T
   4    -42.3805821 -0.262758E-02  0.256E-01    0.54       1.0  T
   5    -42.3824954 -0.191327E-02  0.853E-02    0.61       1.0  T
   6    -42.3824391  0.562890E-04  0.846E-02    0.57       1.0  T
   7    -42.3827962 -0.357081E-03  0.126E-02    0.58       1.6  T
   8    -42.3827981 -0.188530E-05  0.739E-03    0.58       2.7  T
   9    -42.3827996 -0.156164E-05  0.155E-03    0.58      12.9  T
  10    -42.3827996 -0.166827E-07  0.613E-04    0.58      32.7  T
  11    -42.3827996 -0.220659E-08  0.247E-04    0.58      80.9  T
     SCC iter.                  ...        0 min,  0.028 sec
     gradient                   ...        0 min,  0.026 sec
 * total energy  :   -59.4704436 Eh     change       -0.1424449E-01 Eh
   gradient norm :     0.6453856 Eh/α   predicted    -0.1276627E-01 ( -10.38%)
   displ. norm   :     0.4106930 α      lambda       -0.2351970E-01
   maximum displ.:     0.1857880 α      in ANC's #36, #18, #20, ...

........................................................................
.............................. CYCLE   28 ..............................
........................................................................

 iter      E             dE          RMSdq      gap      omega  full diag
   1    -42.4155910 -0.424156E+02  0.499E-01    0.66       0.0  T
   2    -42.4019471  0.136439E-01  0.666E-01    0.73       1.0  T
   3    -42.4149271 -0.129800E-01  0.313E-01    0.64       1.0  T
   4    -42.4143606  0.566466E-03  0.289E-01    0.73       1.0  T
   5    -42.4176241 -0.326354E-02  0.673E-02    0.71       1.0  T
   6    -42.4176300 -0.580683E-05  0.602E-02    0.68       1.0  T
   7    -42.4177790 -0.149022E-03  0.158E-02    0.70       1.3  T
   8    -42.4177840 -0.499473E-05  0.508E-03    0.70       3.9  T
   9    -42.4177841 -0.117479E-06  0.204E-03    0.70       9.8  T
  10    -42.4177842 -0.996177E-07  0.586E-04    0.70      34.1  T
  11    -42.4177842 -0.267965E-08  0.190E-04    0.70     105.5  T
     SCC iter.                  ...        0 min,  0.028 sec
     gradient                   ...        0 min,  0.026 sec
 * total energy  :   -59.4860366 Eh     change       -0.1559298E-01 Eh
   gradient norm :     0.3135657 Eh/α   predicted    -0.1374341E-01 ( -11.86%)
   displ. norm   :     0.4771219 α      lambda       -0.1657325E-01
   maximum displ.:     0.2358823 α      in ANC's #20, #15, #18, ...

........................................................................
.............................. CYCLE   29 ..............................
........................................................................

 iter      E             dE          RMSdq      gap      omega  full diag
   1    -42.4331199 -0.424331E+02  0.474E-01    0.81       0.0  T
   2    -42.4272089  0.591094E-02  0.527E-01    0.75       1.0  T
   3    -42.4338602 -0.665124E-02  0.258E-01    0.80       1.0  T
   4    -42.4299331  0.392706E-02  0.334E-01    0.80       1.0  T
   5    -42.4353994 -0.546633E-02  0.384E-02    0.82       1.0  T
   6    -42.4353516  0.477877E-04  0.441E-02    0.80       1.0  T
   7    -42.4354265 -0.748537E-04  0.190E-02    0.82       1.1  T
   8    -42.4354353 -0.882768E-05  0.395E-03    0.81       5.1  T
   9    -42.4354355 -0.139966E-06  0.218E-03    0.81       9.2  T
  10    -42.4354356 -0.892979E-07  0.444E-04    0.81      45.0  T
  11    -42.4354356 -0.204517E-08  0.214E-04    0.81      93.5  T
     SCC iter.                  ...        0 min,  0.028 sec
     gradient                   ...        0 min,  0.026 sec
 * total energy  :   -59.4988571 Eh     change       -0.1282056E-01 Eh
   gradient norm :     0.3685078 Eh/α   predicted    -0.1017305E-01 ( -20.65%)
   displ. norm   :     0.5268539 α      lambda       -0.2089031E-01
   maximum displ.:     0.1998588 α      in ANC's #15, #6, #20, ...

........................................................................
.............................. CYCLE   30 ..............................
........................................................................

 iter      E             dE          RMSdq      gap      omega  full diag
   1    -42.4445185 -0.424445E+02  0.475E-01    0.93       0.0  T
   2    -42.4367534  0.776510E-02  0.560E-01    0.72       1.0  T
   3    -42.4452003 -0.844688E-02  0.281E-01    0.95       1.0  T
   4    -42.4455142 -0.313971E-03  0.216E-01    0.84       1.0  T
   5    -42.4469533 -0.143909E-02  0.896E-02    0.89       1.0  T
   6    -42.4471300 -0.176646E-03  0.548E-02    0.88       1.0  T
   7    -42.4472573 -0.127352E-03  0.148E-02    0.88       1.4  T
   8    -42.4472626 -0.524933E-05  0.452E-03    0.87       4.4  T
   9    -42.4472628 -0.280004E-06  0.151E-03    0.88      13.2  T
  10    -42.4472629 -0.222127E-07  0.603E-04    0.88      33.2  T
  11    -42.4472629 -0.319445E-08  0.147E-04    0.88     135.7  T
     SCC iter.                  ...        0 min,  0.028 sec
     gradient                   ...        0 min,  0.026 sec
 * total energy  :   -59.5094617 Eh     change       -0.1060452E-01 Eh
   gradient norm :     0.2021749 Eh/α   predicted    -0.1334449E-01 (  25.84%)
   displ. norm   :     0.6540986 α      lambda       -0.2076233E-01
   maximum displ.:     0.3443468 α      in ANC's #6, #19, #12, ...

........................................................................
.............................. CYCLE   31 ..............................
........................................................................

 iter      E             dE          RMSdq      gap      omega  full diag
   1    -42.4053275 -0.424053E+02  0.934E-01    0.98       0.0  T
   2    -42.3980105  0.731706E-02  0.808E-01    0.85       1.0  T
   3    -42.3892082  0.880227E-02  0.698E-01    0.95       1.0  T
   4    -42.4063963 -0.171882E-01  0.392E-01    0.98       1.0  T
   5    -42.4092062 -0.280986E-02  0.191E-01    0.96       1.0  T
   6    -42.4104486 -0.124239E-02  0.684E-02    1.01       1.0  T
   7    -42.4104496 -0.103310E-05  0.541E-02    0.98       1.0  T
   8    -42.4104876 -0.380171E-04  0.388E-02    1.00       1.0  T
   9    -42.4105353 -0.476429E-04  0.597E-03    0.99       3.3  T
  10    -42.4105361 -0.779392E-06  0.245E-03    0.99       8.1  T
  11    -42.4105361 -0.163321E-07  0.761E-04    0.99      26.3  T
  12    -42.4105361 -0.104721E-07  0.222E-04    0.99      90.1  T
     SCC iter.                  ...        0 min,  0.042 sec
     gradient                   ...        0 min,  0.013 sec
 * total energy  :   -59.5057347 Eh     change        0.3726939E-02 Eh
   gradient norm :     0.1376678 Eh/α   predicted    -0.1482269E-01 (-497.72%)
   displ. norm   :     0.3052829 α      lambda       -0.2251370E-01
   maximum displ.:     0.1707169 α      in ANC's #12, #19, #7, ...

........................................................................
.............................. CYCLE   32 ..............................
........................................................................

 iter      E             dE          RMSdq      gap      omega  full diag
   1    -42.4460487 -0.424460E+02  0.540E-01    1.01       0.0  T
   2    -42.4445127  0.153601E-02  0.488E-01    0.91       1.0  T
   3    -42.4451138 -0.601145E-03  0.321E-01    1.01       1.0  T
   4    -42.4470469 -0.193308E-02  0.258E-01    0.96       1.0  T
   5    -42.4478526 -0.805767E-03  0.152E-01    0.93       1.0  T
   6    -42.4487499 -0.897222E-03  0.382E-02    0.98       1.0  T
   7    -42.4487696 -0.197293E-04  0.272E-02    0.97       1.0  T
   8    -42.4487824 -0.128139E-04  0.160E-02    0.98       1.2  T
   9    -42.4487892 -0.678951E-05  0.209E-03    0.98       9.5  T
  10    -42.4487893 -0.134093E-06  0.791E-04    0.98      25.3  T
  11    -42.4487893 -0.220921E-08  0.332E-04    0.98      60.2  T
     SCC iter.                  ...        0 min,  0.015 sec
     gradient                   ...        0 min,  0.013 sec
 * total energy  :   -59.5170400 Eh     change       -0.1130527E-01 Eh
   gradient norm :     0.4195224 Eh/α   predicted    -0.1230597E-01 (   8.85%)
   displ. norm   :     0.2802083 α      lambda       -0.1179856E-01
   maximum displ.:     0.1050587 α      in ANC's #4, #6, #7, ...

........................................................................
.............................. CYCLE   33 ..............................
........................................................................

 iter      E             dE          RMSdq      gap      omega  full diag
   1    -42.4532433 -0.424532E+02  0.300E-01    0.88       0.0  T
   2    -42.4482897  0.495361E-02  0.419E-01    1.08       1.0  T
   3    -42.4542483 -0.595863E-02  0.141E-01    0.91       1.0  T
   4    -42.4542304  0.179617E-04  0.862E-02    0.94       1.0  T
   5    -42.4543961 -0.165717E-03  0.475E-02    0.94       1.0  T
   6    -42.4545041 -0.107987E-03  0.129E-02    0.94       1.6  T
   7    -42.4545062 -0.208812E-05  0.691E-03    0.94       2.9  T
   8    -42.4545069 -0.785183E-06  0.448E-03    0.94       4.5  T
   9    -42.4545076 -0.610786E-06  0.114E-03    0.94      17.6  T
  10    -42.4545076 -0.517036E-08  0.362E-04    0.94      55.3  T
  11    -42.4545076 -0.146121E-08  0.899E-05    0.94     222.6  T
     SCC iter.                  ...        0 min,  0.015 sec
     gradient                   ...        0 min,  0.013 sec
 * total energy  :   -59.5175103 Eh     change       -0.4703075E-03 Eh
   gradient norm :     0.4223977 Eh/α   predicted    -0.6362454E-02 (1252.83%)
   displ. norm   :     0.2958794 α      lambda       -0.8905910E-02
   maximum displ.:     0.1602487 α      in ANC's #7, #6, #4, ...

........................................................................
.............................. CYCLE   34 ..............................
........................................................................

 iter      E             dE          RMSdq      gap      omega  full diag
   1    -42.4588763 -0.424589E+02  0.264E-01    0.97       0.0  T
   2    -42.4581880  0.688354E-03  0.229E-01    1.06       1.0  T
   3    -42.4583157 -0.127705E-03  0.171E-01    0.94       1.0  T
   4    -42.4590083 -0.692663E-03  0.826E-02    1.02       1.0  T
   5    -42.4591884 -0.180104E-03  0.368E-02    1.00       1.0  T
   6    -42.4592301 -0.416874E-04  0.114E-02    1.00       1.8  T
   7    -42.4592320 -0.184533E-05  0.107E-02    1.00       1.9  T
   8    -42.4592352 -0.325407E-05  0.287E-03    1.00       7.0  T
   9    -42.4592354 -0.136147E-06  0.768E-04    1.00      26.0  T
  10    -42.4592354 -0.274665E-08  0.284E-04    1.00      70.3  T
     SCC iter.                  ...        0 min,  0.014 sec
     gradient                   ...        0 min,  0.013 sec
 * total energy  :   -59.5236065 Eh     change       -0.6096228E-02 Eh
   gradient norm :     0.0582451 Eh/α   predicted    -0.4842871E-02 ( -20.56%)
   displ. norm   :     0.6112883 α      lambda       -0.9466572E-02
   maximum displ.:     0.3443808 α      in ANC's #6, #7, #4, ...

........................................................................
.............................. CYCLE   35 ..............................
........................................................................

 iter      E             dE          RMSdq      gap      omega  full diag
   1    -42.4434702 -0.424435E+02  0.454E-01    1.13       0.0  T
   2    -42.4425619  0.908326E-03  0.350E-01    1.10       1.0  T
   3    -42.4413309  0.123104E-02  0.304E-01    1.12       1.0  T
   4    -42.4436807 -0.234986E-02  0.117E-01    1.12       1.0  T
   5    -42.4440305 -0.349799E-03  0.572E-02    1.12       1.0  T
   6    -42.4441773 -0.146774E-03  0.191E-02    1.12       1.0  T
   7    -42.4441818 -0.450408E-05  0.777E-03    1.12       2.6  T
   8    -42.4441824 -0.641770E-06  0.541E-03    1.12       3.7  T
   9    -42.4441836 -0.112638E-05  0.172E-03    1.12      11.6  T
  10    -42.4441836 -0.593987E-07  0.636E-04    1.12      31.4  T
  11    -42.4441836 -0.275405E-08  0.210E-04    1.12      95.3  T
     SCC iter.                  ...        0 min,  0.015 sec
     gradient                   ...        0 min,  0.013 sec
 * total energy  :   -59.5250941 Eh     change       -0.1487591E-02 Eh
   gradient norm :     0.4278968 Eh/α   predicted    -0.6502092E-02 ( 337.09%)
   displ. norm   :     0.3821971 α      lambda       -0.1113442E-01
   maximum displ.:     0.2376701 α      in ANC's #7, #6, #11, ...

........................................................................
.............................. CYCLE   36 ..............................
........................................................................

 iter      E             dE          RMSdq      gap      omega  full diag
   1    -42.4621422 -0.424621E+02  0.350E-01    0.98       0.0  T
   2    -42.4555145  0.662770E-02  0.530E-01    1.38       1.0  T
   3    -42.4650571 -0.954262E-02  0.135E-01    1.13       1.0  T
   4    -42.4648476  0.209516E-03  0.847E-02    1.12       1.0  T
   5    -42.4649764 -0.128802E-03  0.483E-02    1.13       1.0  T
   6    -42.4650789 -0.102467E-03  0.117E-02    1.13       1.7  T
   7    -42.4650803 -0.137848E-05  0.824E-03    1.13       2.4  T
   8    -42.4650817 -0.138842E-05  0.418E-03    1.13       4.8  T
   9    -42.4650821 -0.431416E-06  0.133E-03    1.13      15.1  T
  10    -42.4650821 -0.410645E-07  0.481E-04    1.12      41.6  T
  11    -42.4650821 -0.133485E-08  0.147E-04    1.12     136.4  T
     SCC iter.                  ...        0 min,  0.015 sec
     gradient                   ...        0 min,  0.013 sec
 * total energy  :   -59.5339017 Eh     change       -0.8807550E-02 Eh
   gradient norm :     0.3328509 Eh/α   predicted    -0.6380390E-02 ( -27.56%)
   displ. norm   :     0.6139907 α      lambda       -0.1642326E-01
   maximum displ.:     0.3753561 α      in ANC's #7, #11, #14, ...

........................................................................
.............................. CYCLE   37 ..............................
........................................................................

 iter      E             dE          RMSdq      gap      omega  full diag
   1    -42.4958494 -0.424958E+02  0.527E-01    0.87       0.0  T
   2    -42.4871558  0.869365E-02  0.680E-01    1.42       1.0  T
   3    -42.5012482 -0.140924E-01  0.183E-01    1.07       1.0  T
   4    -42.5007875  0.460673E-03  0.147E-01    1.08       1.0  T
   5    -42.5013133 -0.525834E-03  0.364E-02    1.07       1.0  T
   6    -42.5013467 -0.333614E-04  0.126E-02    1.07       1.6  T
   7    -42.5013473 -0.619631E-06  0.703E-03    1.08       2.8  T
   8    -42.5013462  0.116347E-05  0.802E-03    1.08       2.5  T
   9    -42.5013486 -0.243712E-05  0.143E-03    1.08      14.0  T
  10    -42.5013486 -0.323304E-07  0.659E-04    1.07      30.4  T
  11    -42.5013486 -0.412523E-08  0.180E-04    1.07     110.9  T
     SCC iter.                  ...        0 min,  0.015 sec
     gradient                   ...        0 min,  0.013 sec
 * total energy  :   -59.5471196 Eh     change       -0.1321798E-01 Eh
   gradient norm :     0.0956074 Eh/α   predicted    -0.1130717E-01 ( -14.46%)
   displ. norm   :     0.7765062 α      lambda       -0.2067880E-01
   maximum displ.:     0.4919170 α      in ANC's #7, #6, #14, ...

........................................................................
.............................. CYCLE   38 ..............................
........................................................................

 iter      E             dE          RMSdq      gap      omega  full diag
   1    -42.5326021 -0.425326E+02  0.638E-01    0.72       0.0  T
   2    -42.5286600  0.394212E-02  0.567E-01    1.20       1.0  T
   3    -42.5356594 -0.699943E-02  0.295E-01    0.83       1.0  T
   4    -42.5364818 -0.822392E-03  0.199E-01    0.96       1.0  T
   5    -42.5373998 -0.917985E-03  0.526E-02    0.92       1.0  T
   6    -42.5374289 -0.291265E-04  0.333E-02    0.93       1.0  T
   7    -42.5374674 -0.385462E-04  0.950E-03    0.93       2.1  T
   8    -42.5374684 -0.984859E-06  0.434E-03    0.93       4.6  T
   9    -42.5374686 -0.199609E-06  0.156E-03    0.93      12.8  T
  10    -42.5374687 -0.542431E-07  0.557E-04    0.93      35.9  T
  11    -42.5374687 -0.108909E-08  0.173E-04    0.93     115.6  T
     SCC iter.                  ...        0 min,  0.015 sec
     gradient                   ...        0 min,  0.013 sec
 * total energy  :   -59.5659139 Eh     change       -0.1879423E-01 Eh
   gradient norm :     0.3605866 Eh/α   predicted    -0.1657346E-01 ( -11.82%)
   displ. norm   :     0.7790674 α      lambda       -0.3156420E-01
   maximum displ.:     0.4108349 α      in ANC's #7, #14, #42, ...

........................................................................
.............................. CYCLE   39 ..............................
........................................................................

 iter      E             dE          RMSdq      gap      omega  full diag
   1    -42.5777421 -0.425777E+02  0.790E-01    0.73       0.0  T
   2    -42.5802991 -0.255703E-02  0.448E-01    0.81       1.0  T
   3    -42.5805093 -0.210197E-03  0.307E-01    0.83       1.0  T
   4    -42.5806608 -0.151512E-03  0.231E-01    0.74       1.0  T
   5    -42.5819939 -0.133313E-02  0.690E-02    0.83       1.0  T
   6    -42.5821159 -0.121954E-03  0.311E-02    0.79       1.0  T
   7    -42.5821426 -0.267029E-04  0.130E-02    0.80       1.5  T
   8    -42.5821456 -0.301827E-05  0.471E-03    0.80       4.2  T
   9    -42.5821458 -0.182389E-06  0.139E-03    0.80      14.4  T
  10    -42.5821458 -0.295234E-08  0.561E-04    0.80      35.6  T
  11    -42.5821458 -0.504325E-08  0.193E-04    0.80     103.9  T
     SCC iter.                  ...        0 min,  0.015 sec
     gradient                   ...        0 min,  0.013 sec
 * total energy  :   -59.5887953 Eh     change       -0.2288138E-01 Eh
   gradient norm :     0.6666390 Eh/α   predicted    -0.2536051E-01 (  10.83%)
   displ. norm   :     0.7114610 α      lambda       -0.3585934E-01
   maximum displ.:     0.4099667 α      in ANC's #7, #6, #14, ...

........................................................................
.............................. CYCLE   40 ..............................
........................................................................

 iter      E             dE          RMSdq      gap      omega  full diag
   1    -42.5833249 -0.425833E+02  0.730E-01    0.51       0.0  T
   2    -42.5877657 -0.444074E-02  0.365E-01    0.74       1.0  T
   3    -42.5875034  0.262283E-03  0.376E-01    0.55       1.0  T
   4    -42.5899954 -0.249202E-02  0.164E-01    0.68       1.0  T
   5    -42.5904271 -0.431676E-03  0.107E-01    0.62       1.0  T
   6    -42.5906037 -0.176567E-03  0.340E-02    0.65       1.0  T
   7    -42.5906404 -0.367545E-04  0.131E-02    0.64       1.5  T
   8    -42.5906446 -0.421246E-05  0.511E-03    0.64       3.9  T
   9    -42.5906447 -0.105995E-06  0.209E-03    0.64       9.6  T
  10    -42.5906448 -0.859952E-07  0.659E-04    0.64      30.3  T
  11    -42.5906448 -0.104697E-08  0.258E-04    0.64      77.5  T
     SCC iter.                  ...        0 min,  0.015 sec
     gradient                   ...        0 min,  0.013 sec
 * total energy  :   -59.6197585 Eh     change       -0.3096323E-01 Eh
   gradient norm :     0.3179071 Eh/α   predicted    -0.2700522E-01 ( -12.78%)
   displ. norm   :     0.4978609 α      lambda       -0.4391506E-01
   maximum displ.:     0.1975794 α      in ANC's #7, #18, #14, ...

........................................................................
.............................. CYCLE   41 ..............................
........................................................................

 iter      E             dE          RMSdq      gap      omega  full diag
   1    -42.5612969 -0.425613E+02  0.690E-01    0.53       0.0  T
   2    -42.5607114  0.585429E-03  0.581E-01    0.55       1.0  T
   3    -42.5666131 -0.590166E-02  0.392E-01    0.59       1.0  T
   4    -42.5706591 -0.404599E-02  0.168E-01    0.58       1.0  T
   5    -42.5706567  0.232690E-05  0.112E-01    0.53       1.0  T
   6    -42.5709371 -0.280329E-03  0.492E-02    0.60       1.0  T
   7    -42.5710366 -0.995621E-04  0.126E-02    0.57       1.6  T
   8    -42.5710394 -0.278438E-05  0.555E-03    0.57       3.6  T
   9    -42.5710399 -0.503277E-06  0.127E-03    0.57      15.8  T
  10    -42.5710399 -0.100267E-07  0.550E-04    0.57      36.4  T
  11    -42.5710399 -0.441005E-08  0.238E-04    0.57      84.1  T
     SCC iter.                  ...        0 min,  0.015 sec
     gradient                   ...        0 min,  0.013 sec
 * total energy  :   -59.6367525 Eh     change       -0.1699399E-01 Eh
   gradient norm :     0.6567584 Eh/α   predicted    -0.2740007E-01 (  61.23%)
   displ. norm   :     0.6141428 α      lambda       -0.3167100E-01
   maximum displ.:     0.4371779 α      in ANC's #7, #14, #11, ...

........................................................................
.............................. CYCLE   42 ..............................
........................................................................

 iter      E             dE          RMSdq      gap      omega  full diag
   1    -42.5764423 -0.425764E+02  0.739E-01    0.18       0.0  T
   2    -42.5424658  0.339765E-01  0.968E-01    0.85       1.0  T
   3    -42.5857889 -0.433231E-01  0.393E-01    0.26       1.0  T
   4    -42.5880733 -0.228438E-02  0.237E-01    0.28       1.0  T
   5    -42.5889546 -0.881308E-03  0.133E-01    0.34       1.0  T
   6    -42.5895991 -0.644548E-03  0.224E-02    0.34       1.0  T
   7    -42.5896120 -0.128243E-04  0.764E-03    0.34       2.6  T
   8    -42.5896123 -0.334998E-06  0.350E-03    0.34       5.7  T
   9    -42.5896124 -0.687550E-07  0.118E-03    0.34      17.0  T
  10    -42.5896124 -0.768551E-08  0.607E-04    0.34      33.0  T
  11    -42.5896124 -0.436844E-08  0.190E-04    0.34     105.3  T
     SCC iter.                  ...        0 min,  0.015 sec
     gradient                   ...        0 min,  0.013 sec
 * total energy  :   -59.6404139 Eh     change       -0.3661398E-02 Eh
   gradient norm :     0.2456112 Eh/α   predicted    -0.2180816E-01 ( 495.62%)
   displ. norm   :     0.7069833 α      lambda       -0.5221655E-01
   maximum displ.:     0.2999074 α      in ANC's #7, #14, #12, ...
 * RMSD in coord.:     1.2083103 α      energy gain  -0.2664278E+00 Eh

generating ANC from model Hessian ...
Using Lindh-Hessian (1995)
 Shifting diagonal of input Hessian by    8.6508570686463573E-003
 Lowest  eigenvalues of input Hessian
    0.000000    0.000000    0.000000    0.000000    0.000000    0.000000
    0.010000    0.011099    0.013345    0.013614    0.014181    0.015083
    0.019017    0.020937    0.022439    0.027290    0.029040    0.043288
 Highest eigenvalues
    2.157613    2.373905    2.397486    2.544474   18.158074   24.900245


........................................................................
.............................. CYCLE   43 ..............................
........................................................................

 iter      E             dE          RMSdq      gap      omega  full diag
   1    -42.5585127 -0.425585E+02  0.858E-01    0.70       0.0  T
   2    -42.5539495  0.456318E-02  0.582E-01    0.30       1.0  T
   3    -42.5550779 -0.112837E-02  0.685E-01    0.78       1.0  T
   4    -42.5660841 -0.110062E-01  0.233E-01    0.58       1.0  T
   5    -42.5666953 -0.611205E-03  0.804E-02    0.56       1.0  T
   6    -42.5668161 -0.120843E-03  0.203E-02    0.54       1.0  T
   7    -42.5668205 -0.433853E-05  0.109E-02    0.54       1.8  T
   8    -42.5668214 -0.960576E-06  0.690E-03    0.54       2.9  T
   9    -42.5668229 -0.143409E-05  0.164E-03    0.54      12.2  T
  10    -42.5668229 -0.191369E-07  0.578E-04    0.54      34.6  T
  11    -42.5668229 -0.196535E-08  0.316E-04    0.54      63.2  T
     SCC iter.                  ...        0 min,  0.015 sec
     gradient                   ...        0 min,  0.013 sec
 * total energy  :   -59.6239241 Eh     change        0.1648976E-01 Eh
   gradient norm :     1.2106249 Eh/α   predicted     0.0000000E+00 (-100.00%)
   displ. norm   :     0.5206116 α      lambda       -0.5958709E+00
   maximum displ.:     0.3323068 α      in ANC's #65, #48, #47, ...

........................................................................
.............................. CYCLE   44 ..............................
........................................................................

 iter      E             dE          RMSdq      gap      omega  full diag
   1    -42.6016909 -0.426017E+02  0.593E-01    0.51       0.0  T
   2    -42.6014926  0.198317E-03  0.341E-01    0.53       1.0  T
   3    -42.5969535  0.453909E-02  0.436E-01    0.54       1.0  T
   4    -42.6028439 -0.589040E-02  0.114E-01    0.53       1.0  T
   5    -42.6030192 -0.175253E-03  0.226E-02    0.53       1.0  T
   6    -42.6030105  0.868020E-05  0.240E-02    0.54       1.0  T
   7    -42.6030189 -0.840478E-05  0.123E-02    0.53       1.6  T
   8    -42.6030240 -0.506718E-05  0.177E-03    0.53      11.3  T
   9    -42.6030241 -0.751861E-07  0.714E-04    0.53      28.0  T
  10    -42.6030241 -0.338844E-08  0.406E-04    0.53      49.3  T
     SCC iter.                  ...        0 min,  0.014 sec
     gradient                   ...        0 min,  0.013 sec
 * total energy  :   -57.4279557 Eh     change        0.2195968E+01 Eh
   gradient norm :     7.0129732 Eh/α   predicted    -0.3786902E+00 (-117.24%)
   displ. norm   :     0.3596961 α      lambda       -0.2510410E+01
   maximum displ.:     0.2889836 α      in ANC's #65, #48, #60, ...

........................................................................
.............................. CYCLE   45 ..............................
........................................................................

 iter      E             dE          RMSdq      gap      omega  full diag
   1    -42.5759978 -0.425760E+02  0.485E-01    0.68       0.0  T
   2    -42.5744231  0.157471E-02  0.361E-01    0.45       1.0  T
   3    -42.5743409  0.822478E-04  0.318E-01    0.72       1.0  T
   4    -42.5773611 -0.302023E-02  0.156E-01    0.56       1.0  T
   5    -42.5777499 -0.388779E-03  0.152E-02    0.59       1.3  T
   6    -42.5777489  0.985395E-06  0.136E-02    0.58       1.5  T
   7    -42.5777492 -0.264140E-06  0.939E-03    0.58       2.1  T
   8    -42.5777517 -0.249375E-05  0.255E-03    0.58       7.8  T
   9    -42.5777519 -0.195673E-06  0.863E-04    0.58      23.2  T
  10    -42.5777519 -0.123491E-07  0.292E-04    0.58      68.5  T
     SCC iter.                  ...        0 min,  0.014 sec
     gradient                   ...        0 min,  0.013 sec
 * total energy  :   -59.4729622 Eh     change       -0.2045007E+01 Eh
   gradient norm :     3.2015693 Eh/α   predicted    -0.1417605E+01 ( -30.68%)
   displ. norm   :     0.2881396 α      lambda       -0.8956324E+00
   maximum displ.:     0.2120487 α      in ANC's #65, #48, #60, ...

........................................................................
.............................. CYCLE   46 ..............................
........................................................................

 iter      E             dE          RMSdq      gap      omega  full diag
   1    -42.5422854 -0.425423E+02  0.353E-01    0.62       0.0  T
   2    -42.5418706  0.414781E-03  0.235E-01    0.53       1.0  T
   3    -42.5409858  0.884886E-03  0.242E-01    0.66       1.0  T
   4    -42.5424414 -0.145561E-02  0.123E-01    0.57       1.0  T
   5    -42.5428347 -0.393340E-03  0.141E-02    0.59       1.4  T
   6    -42.5428342  0.500087E-06  0.122E-02    0.58       1.6  T
   7    -42.5428335  0.712149E-06  0.937E-03    0.59       2.1  T
   8    -42.5428365 -0.296104E-05  0.171E-03    0.59      11.7  T
   9    -42.5428365 -0.562075E-07  0.766E-04    0.59      26.1  T
  10    -42.5428365 -0.114064E-07  0.223E-04    0.59      89.6  T
     SCC iter.                  ...        0 min,  0.014 sec
     gradient                   ...        0 min,  0.013 sec
 * total energy  :   -58.6734530 Eh     change        0.7995092E+00 Eh
[...]
C            2.72802831583801        0.00430268165719       -0.54183434881175
C           -0.44097822985733        0.49426078426793       -0.21853798013467
O            0.42035794845157        1.32492576066013       -0.41714717415682
N           -1.78727971149557        0.72240291418777       -0.01783055592047
C           -2.40208211266986        2.02833432702005       -0.01781518450396
C           -2.48339159063179       -0.45174383620952        0.16439345693145
O           -3.64985693252403       -0.61072864820069        0.36468731407590
N           -1.52722164630746       -1.49604556764271        0.07163121814231
C           -1.88494482935027       -2.87913014880406        0.22692730247962
H            4.44610918819128        2.00164749947902        1.29359448326156
H            5.40362391622727        1.30271372826057       -0.00482782994715
H            3.99063840652365        2.32997053030149       -0.40016404980195
H            2.67097056191964        0.19469399072859       -0.91653939716483
H           -1.60747256051043        2.77232644846418       -0.02000358084802
H           -3.02566441585475        2.15235388466527       -0.90451533229203
H           -3.02676215269110        2.14064870476249        0.86798660140527
H           -1.37195761862940       -3.32151364891431        1.08331332934820
H           -1.65687686564339       -3.44738482344487       -0.67702454199765
H           -2.96071631307454       -2.91390904924275        0.40281564839893
H            0.74640680103212       -2.69388264673404       -0.27361745194331

 Bond Distances (Angstroems)
 ---------------------------
C1-N2=1.3939         C1-H15=1.0941        C1-H16=1.0965        C1-H17=1.0966        N2-C1=1.3939         N2-C6=1.3247         
C3-N4=1.2953         C3-C6=1.3986         N4-C3=1.2953         N4-C5=1.3658         N4-H25=1.0242        C5-N4=1.3658         
C5-C7=1.4640         C5-N13=1.3483        C6-N2=1.3247         C6-C3=1.3986         C6-H18=0.4242        C7-C5=1.4640         
C7-O8=1.2130         C7-N9=1.3802         O8-C7=1.2130         N9-C7=1.3802         N9-C10=1.4434        N9-C11=1.3771        
C10-N9=1.4434        C10-H19=1.0885       C10-H20=1.0911       C10-H21=1.0897       C11-N9=1.3771        C11-O12=1.1942       
C11-N13=1.4190       O12-C11=1.1942       N13-C5=1.3483        N13-C11=1.4190       N13-C14=1.4370       C14-N13=1.4370       
C14-H22=1.0919       C14-H23=1.0918       C14-H24=1.0906       H15-C1=1.0941        H16-C1=1.0965        H17-C1=1.0966        
H18-C6=0.4242        H19-C10=1.0885       H20-C10=1.0911       H21-C10=1.0897       H22-C14=1.0919       H23-C14=1.0918       
H24-C14=1.0906       H25-N4=1.0242        
 C  H  Rav=1.0255 sigma=0.2005  Rmin=0.4242  Rmax=1.0966    10
 C  C  Rav=1.4313 sigma=0.0327  Rmin=1.3986  Rmax=1.4640     2
 N  H  Rav=1.0242 sigma=0.0000  Rmin=1.0242  Rmax=1.0242     1
 N  C  Rav=1.3785 sigma=0.0452  Rmin=1.2953  Rmax=1.4434    10
 O  C  Rav=1.2036 sigma=0.0094  Rmin=1.1942  Rmax=1.2130     2

 selected bond angles (degree)
 --------------------
H15-C1-N2=108.10               H16-C1-N2=109.20               H16-C1-H15=106.76              H17-C1-N2=113.93               
H17-C1-H15=109.08              H17-C1-H16=109.51              C6-N2-C1=126.34                C6-C3-N4=140.34                
C5-N4-C3=126.24                H25-N4-C3=117.89               H25-N4-C5=115.70               C7-C5-N4=126.28                
N13-C5-N4=125.03               N13-C5-C7=108.68               C3-C6-N2=116.96                H18-C6-N2=123.44               
H18-C6-C3=119.37               O8-C7-C5=128.68                N9-C7-C5=104.21                N9-C7-O8=127.11                
C10-N9-C7=124.41               C11-N9-C7=111.80               C11-N9-C10=123.79              H19-C10-N9=107.91              
H20-C10-N9=110.26              H20-C10-H19=109.75             H21-C10-N9=109.72              H21-C10-H19=110.47             
H21-C10-H20=108.74             

 selected dihedral angles (degree)
 ---------------------------------
C6-N2-C1-H15=141.86           C6-N2-C1-H16=257.64           C6-N2-C1-H17= 20.43           C5-N4-C3-C6=336.73            
H25-N4-C3-C6=161.68           C7-C5-N4-C3=  9.91            C7-C5-N4-H25=185.05           N13-C5-N4-C3=191.58           
N13-C5-N4-H25=  6.73          C3-C6-N2-C1=180.16            H18-C6-N2-C1=  5.80           N2-C6-C3-N4=131.86            
H18-C6-C3-N4=306.46           O8-C7-C5-N4=  2.24            O8-C7-C5-N13=180.79           N9-C7-C5-N4=181.55            
N9-C7-C5-N13=  0.10           C10-N9-C7-C5=180.92           C10-N9-C7-O8=  0.25           C11-N9-C7-C5=  0.04           
C11-N9-C7-O8=179.36           H19-C10-N9-C7=349.97          H19-C10-N9-C11=170.96         H20-C10-N9-C7=109.82          
H20-C10-N9-C11=290.81         H21-C10-N9-C7=229.56          H21-C10-N9-C11= 50.55         
           -------------------------------------------------
          |                Final Singlepoint                |
           -------------------------------------------------

          ...................................................
          :                      SETUP                      :
          :.................................................:
          :  # basis functions                  67          :
          :  # atomic orbitals                  67          :
          :  # shells                           39          :
          :  # electrons                        74          :
          :  max. iterations                   250          :
          :  Hamiltonian                  GFN2-xTB          :
          :  restarted?                      false          :
          :  GBSA solvation                  false          :
          :  PC potential                    false          :
          :  electronic temp.         5000.0000000     K    :
          :  accuracy                    1.0000000          :
          :  -> integral cutoff          0.2500000E+02      :
          :  -> integral neglect         0.1000000E-07      :
          :  -> SCF convergence          0.1000000E-05 Eh   :
          :  -> wf. convergence          0.1000000E-03 e    :
          :  Broyden damping             0.4000000          :
          ...................................................

 iter      E             dE          RMSdq      gap      omega  full diag
   1    -42.6440331 -0.426440E+02  0.195E-04    0.26       0.0  T
   2    -42.6440330  0.503252E-08  0.384E-04    0.26      52.1  T
   3    -42.6440331 -0.668547E-08  0.364E-05    0.26     550.2  T

   *** convergence criteria satisfied after 3 iterations ***

         #    Occupation            Energy/Eh            Energy/eV
      -------------------------------------------------------------
         1        2.0000           -0.8942346             -24.3334
       ...           ...                  ...                  ...
        31        1.9973           -0.6139999             -16.7078
        32        1.9958           -0.6073611             -16.5271
        33        1.9881           -0.5907266             -16.0745
        34        1.9618           -0.5720042             -15.5650
        35        1.9492           -0.5673746             -15.4390
        36        1.7707           -0.5419988             -14.7485
        37        1.2998           -0.5194281             -14.1344 (HOMO)
        38        1.0064           -0.5098342             -13.8733 (LUMO)
        39        0.0350           -0.4458490             -12.1322
        40        0.0008           -0.3861885             -10.5087
        41        0.0001           -0.3496395              -9.5142
        42        0.0000           -0.3293512              -8.9621
       ...           ...                  ...                  ...
        67                         10.4843134             285.2927
      -------------------------------------------------------------
                  HL-Gap            0.0095939 Eh            0.2611 eV
             Fermi-level           -0.5096323 Eh          -13.8678 eV

 SCC (total)                   0 d,  0 h,  0 min,  0.022 sec
 SCC setup                      ...        0 min,  0.000 sec (  0.869%)
 Dispersion                     ...        0 min,  0.000 sec (  0.855%)
 classical contributions        ...        0 min,  0.000 sec (  0.324%)
 integral evaluation            ...        0 min,  0.005 sec ( 21.177%)
 iterations                     ...        0 min,  0.005 sec ( 20.518%)
 molecular gradient             ...        0 min,  0.012 sec ( 55.636%)
 printout                       ...        0 min,  0.000 sec (  0.557%)

         :::::::::::::::::::::::::::::::::::::::::::::::::::::
         ::                     SUMMARY                     ::
         :::::::::::::::::::::::::::::::::::::::::::::::::::::
         :: total energy             -59.691335168429 Eh    ::
         :: gradient norm              0.003461155367 Eh/a0 ::
         :: HOMO-LUMO gap              0.261063869300 eV    ::
         ::.................................................::
         :: SCC energy               -42.644033054392 Eh    ::
         :: -> isotropic ES            0.134972724423 Eh    ::
         :: -> anisotropic ES         -0.006326478512 Eh    ::
         :: -> anisotropic XC          0.014314665392 Eh    ::
         :: -> dispersion             -0.020386823596 Eh    ::
         :: repulsion energy           2.269746771551 Eh    ::
         :: add. restraining         -19.317074069010 Eh    ::
         :: total charge               1.000000000060 e     ::
         :::::::::::::::::::::::::::::::::::::::::::::::::::::

           -------------------------------------------------
          |                Property Printout                |
           -------------------------------------------------

    * Orbital Energies and Occupations

         #    Occupation            Energy/Eh            Energy/eV
      -------------------------------------------------------------
         1        2.0000           -0.8942346             -24.3334
       ...           ...                  ...                  ...
        25        1.9999           -0.6713214             -18.2676
        26        1.9999           -0.6687207             -18.1968
        27        1.9995           -0.6417676             -17.4634
        28        1.9993           -0.6367207             -17.3261
        29        1.9990           -0.6296574             -17.1339
        30        1.9975           -0.6154889             -16.7483
        31        1.9973           -0.6139999             -16.7078
        32        1.9958           -0.6073611             -16.5271
        33        1.9881           -0.5907266             -16.0745
        34        1.9618           -0.5720042             -15.5650
        35        1.9492           -0.5673746             -15.4390
        36        1.7707           -0.5419988             -14.7485
        37        1.2998           -0.5194281             -14.1344 (HOMO)
        38        1.0064           -0.5098342             -13.8733 (LUMO)
        39        0.0350           -0.4458490             -12.1322
        40        0.0008           -0.3861885             -10.5087
        41        0.0001           -0.3496395              -9.5142
        42        0.0000           -0.3293512              -8.9621
        43                         -0.1898451              -5.1659
        44                         -0.1819186              -4.9503
        45                         -0.1202366              -3.2718
        46                         -0.0626577              -1.7050
        47                         -0.0563615              -1.5337
        48                         -0.0279656              -0.7610
       ...                                ...                  ...
        67                         10.4843134             285.2927
      -------------------------------------------------------------
                  HL-Gap            0.0095939 Eh            0.2611 eV
             Fermi-level           -0.5096323 Eh          -13.8678 eV

     #   Z          covCN         q      C6AA      α(0)
     1   6 C        3.692    -0.051    21.670     6.661
     2   7 N        1.874    -0.106    24.096     7.276
     3   6 C        1.978     0.002    31.020     8.994
     4   7 N        2.683     0.013    21.028     6.811
     5   6 C        2.959     0.060    26.646     8.467
     6   6 C        2.833     0.022    27.511     8.595
     7   6 C        2.843     0.258    22.665     7.802
     8   8 O        0.857    -0.368    21.045     6.151
     9   7 N        2.803    -0.078    22.750     7.084
    10   6 C        3.690    -0.058    21.807     6.683
    11   6 C        2.834     0.316    21.637     7.623
    12   8 O        0.857    -0.322    20.190     6.024
    13   7 N        2.786    -0.044    22.091     6.981
    14   6 C        3.688    -0.072    22.079     6.725
    15   1 H        0.924     0.122     1.594     1.975
    16   1 H        0.924     0.123     1.590     1.972
    17   1 H        0.924     0.099     1.795     2.095
    18   1 H        1.012     0.216     1.019     1.577
    19   1 H        0.925     0.109     1.709     2.044
    20   1 H        0.924     0.101     1.776     2.084
    21   1 H        0.925     0.104     1.750     2.069
    22   1 H        0.924     0.093     1.851     2.128
    23   1 H        0.924     0.092     1.856     2.130
    24   1 H        0.924     0.126     1.562     1.954
    25   1 H        0.859     0.243     0.912     1.496

 Mol. C6AA /au·bohr⁶  :       6568.066436
 Mol. C8AA /au·bohr⁸  :     151217.197600
 Mol. α(0) /au        :        123.401851


Wiberg/Mayer (AO) data.
largest (>0.10) Wiberg bond orders for each atom

 ---------------------------------------------------------------------------
     #   Z sym  total        # sym  WBO       # sym  WBO       # sym  WBO
 ---------------------------------------------------------------------------
     1   6 C    3.889 --     2 N    1.100    17 H    0.927    15 H    0.919
                            16 H    0.904
     2   7 N    2.764 --     6 C    1.506     1 C    1.100
     3   6 C    3.110 --     4 N    1.466     6 C    1.383
     4   7 N    3.651 --     3 C    1.466     5 C    1.156    25 H    0.888
     5   6 C    3.659 --    13 N    1.248     4 N    1.156     7 C    1.046
     6   6 C    3.884 --     2 N    1.506     3 C    1.383    18 H    0.873
     7   6 C    3.916 --     8 O    1.646     9 N    1.122     5 C    1.046
     8   8 O    1.932 --     7 C    1.646     9 N    0.134
     9   7 N    3.534 --     7 C    1.122    11 C    1.113    10 C    0.978
                             8 O    0.134    12 O    0.120
    10   6 C    3.906 --     9 N    0.978    19 H    0.970    21 H    0.961
                            20 H    0.957
    11   6 C    3.924 --    12 O    1.721     9 N    1.113    13 N    1.007
    12   8 O    2.008 --    11 C    1.721     9 N    0.120
    13   7 N    3.461 --     5 C    1.248    11 C    1.007    14 C    0.989
    14   6 C    3.921 --    13 N    0.989    24 H    0.964    22 H    0.960
                            23 H    0.960
    15   1 H    0.944 --     1 C    0.919
    16   1 H    0.937 --     1 C    0.904
    17   1 H    0.938 --     1 C    0.927
    18   1 H    0.925 --     6 C    0.873
    19   1 H    0.984 --    10 C    0.970
    20   1 H    0.976 --    10 C    0.957
    21   1 H    0.979 --    10 C    0.961
    22   1 H    0.979 --    14 C    0.960
    23   1 H    0.978 --    14 C    0.960
    24   1 H    0.983 --    14 C    0.964
    25   1 H    0.923 --     4 N    0.888
 ---------------------------------------------------------------------------

Topologies differ in total number of bonds
Writing topology from bond orders to xtbtopo.mol

molecular dipole:
                 x           y           z       tot (Debye)
 q only:        1.820      -1.215      -0.234
   full:        1.740      -1.317      -0.400       5.639
molecular quadrupole (traceless):
                xx          xy          yy          xz          yz          zz
 q only:       14.247       7.919       8.054      -0.154       1.833     -22.301
  q+dip:        9.736       8.935       9.314      -0.793       2.245     -19.050
   full:        8.693       8.359       8.887      -0.618       2.464     -17.580

           -------------------------------------------------
          |                Geometry Summary                 |
           -------------------------------------------------

      molecular mass/u    :      195.1988581
   center of mass at/Å    :       -0.0632456      -0.1696029      -0.0230367
  moments of inertia/u·Å² :        0.3773669E+03   0.1204897E+04   0.1541543E+04
rotational constants/cm⁻¹ :        0.4467173E-01   0.1399093E-01   0.1093555E-01

 * 23 selected distances

     #   Z          #   Z                                           value/Å
     1   6 C        2   7 N                                       1.3939054
     3   6 C        4   7 N                                       1.2952623
     4   7 N        5   6 C                                       1.3657834
     2   7 N        6   6 C                                       1.3247348
     7   6 C        8   8 O                                       1.2129923
     7   6 C        9   7 N                                       1.3801668
     9   7 N       10   6 C                                       1.4434124 (max)
     9   7 N       11   6 C                                       1.3770978
    11   6 C       12   8 O                                       1.1941673
     5   6 C       13   7 N                                       1.3483356
    11   6 C       13   7 N                                       1.4189546
    13   7 N       14   6 C                                       1.4370129
     1   6 C       15   1 H                                       1.0940957
     1   6 C       16   1 H                                       1.0965041
     1   6 C       17   1 H                                       1.0965941
     6   6 C       18   1 H                                       0.4241560 (min)
    10   6 C       19   1 H                                       1.0885466
    10   6 C       20   1 H                                       1.0910880
    10   6 C       21   1 H                                       1.0897177
    14   6 C       22   1 H                                       1.0919049
    14   6 C       23   1 H                                       1.0918139
    14   6 C       24   1 H                                       1.0906103
     4   7 N       25   1 H                                       1.0242389

 * 4 distinct bonds (by element types)

   Z      Z             #   av. dist./Å        max./Å        min./Å
   1 H    6 C          10     1.0255031     1.0965941     0.4241560
   1 H    7 N           1     1.0242389     1.0242389     1.0242389
   6 C    7 N          10     1.3784666     1.4434124     1.2952623
   6 C    8 O           2     1.2035798     1.2129923     1.1941673


optimized geometry written to: xtbopt.xyz


           -------------------------------------------------
          | TOTAL ENERGY              -59.691335168429 Eh   |
          | GRADIENT NORM               0.003461155367 Eh/α |
          | HOMO-LUMO GAP               0.261063869300 eV   |
           -------------------------------------------------

------------------------------------------------------------------------
 * finished run on 2024/06/05 at 20:00:27.821     
------------------------------------------------------------------------
 total:
 * wall-time:     0 d,  0 h,  0 min,  3.239 sec
 *  cpu-time:     0 d,  0 h,  0 min,  2.368 sec
 * ratio c/w:     0.731 speedup
 SCF:
 * wall-time:     0 d,  0 h,  0 min,  0.063 sec
 *  cpu-time:     0 d,  0 h,  0 min,  0.037 sec
 * ratio c/w:     0.587 speedup
 ANC optimizer:
 * wall-time:     0 d,  0 h,  0 min,  3.136 sec
 *  cpu-time:     0 d,  0 h,  0 min,  2.319 sec
 * ratio c/w:     0.740 speedup

