25
 energy: 0.000000000000 xtb: 6.6.1 (8d0f1dd)
C            3.23720163006194        1.16630919979326        0.08434469647475
N            2.29877817382611        0.07527477071623        0.03981603040599
C            2.58028210190900       -1.21425402444508        0.03006176031096
N            1.43813958087363       -1.93419271955128        0.00098261760884
C            0.39035688448383       -1.05887472636071       -0.00790371836672
C            0.93510056364412        0.21347819449412        0.01709077491437
C            0.09450143893243        1.40504303904423       -0.00410947031874
O            0.49712751527797        2.54126714362870       -0.00342325688240
N           -1.25076640035757        1.06271879480407       -0.03085478223738
C           -2.21907211982101        2.15522099834493       -0.05001256985998
C           -1.81739487048744       -0.20012725993278       -0.04692818574614
O           -2.99983886758376       -0.37846417018721       -0.07008878229737
N           -0.92618586207120       -1.30210215599479       -0.03682761578324
C           -1.46982264913417       -2.64643102187190       -0.06029820460571
H            3.71247264356769        1.21471455160235        1.06488849150277
H            4.00791497605742        1.03430808813993       -0.67357694370751
H            2.69910007168542        2.09770118228144       -0.09130154882931
H            3.56654120610678       -1.63682992603973        0.04233140067262
H           -1.67107961066214        3.09322851271934       -0.02552706933167
H           -2.82428953597071        2.09428624779827       -0.95318082946668
H           -2.87644029173232        2.07745725625962        0.81450067533302
H           -1.17061996399332       -3.19584890659852        0.83242232437030
H           -1.14560257411436       -3.17511610292205       -0.95688275822323
H           -2.55549792440841       -2.55659984320617       -0.07459039797972
H            1.38130855184625       -2.94313852034425       -0.01389874181052
25
 energy: -5.314798459500 xtb: 6.6.1 (8d0f1dd)
C            3.24252908442100        1.17574444709786        0.08651719397507
N            2.30394069459887        0.09591221660718        0.03770606937504
C            2.59260535292216       -1.23299932489214        0.03000581777343
N            1.41926051088293       -1.93880896684811        0.00085097390650
C            0.39073998719311       -1.05273527587329       -0.00808510982415
C            0.92637244217450        0.22552504275356        0.01542020263161
C            0.10028745671936        1.40039633272626       -0.00509662541744
O            0.49859264270707        2.56581637392739       -0.00456543808078
N           -1.26199806276371        1.05588033366979       -0.03097861557002
C           -2.21847683308583        2.15635201397302       -0.04978986198515
C           -1.82689721348908       -0.19639655267144       -0.04720280005619
O           -3.02401296781932       -0.37505933449082       -0.07026213219895
N           -0.93870233703375       -1.30075297280111       -0.03696853276926
C           -1.46018368838534       -2.65399659303300       -0.06012742118152
H            3.72165063980002        1.21998572443240        1.06822856058217
H            4.00981880699235        1.03928215187334       -0.67698882489812
H            2.69865397334945        2.10218406300880       -0.08829082944753
H            3.56976090771077       -1.66110220143843        0.04259350053418
H           -1.65429886295849        3.08644527984977       -0.02503637540086
H           -2.82397005608596        2.10647439999763       -0.95431574633485
H           -2.87670539386256        2.08978492888871        0.81583871689211
H           -1.15228024219937       -3.20794327716052        0.83002717252664
H           -1.12614559822292       -3.18793680693497       -0.95321259279751
H           -2.54607186192039       -2.57988279762684       -0.07542496296128
H            1.34774528629134       -2.94314060286302       -0.01380844312584
25
 energy: -6.118643666499 xtb: 6.6.1 (8d0f1dd)
C            3.24713659578401        1.17891293717861        0.08877334735918
N            2.30289499985223        0.10905263698640        0.03377447392099
C            2.58951788435613       -1.25051349871040        0.03006895523389
N            1.38796814801767       -1.93484064104257        0.00131603905891
C            0.38220651925484       -1.04090241006235       -0.00843017528074
C            0.91393309980507        0.23986090731039        0.01279279940687
C            0.10215385470980        1.39458066610636       -0.00718708355614
O            0.48401500368620        2.57740242328127       -0.00753686635957
N           -1.27908208087700        1.05129767267676       -0.03145715852639
C           -2.21489613145225        2.16680220631144       -0.04944246977294
C           -1.83992411598071       -0.19189027841187       -0.04757709449518
O           -3.04299924931336       -0.37124841129384       -0.07021619029038
N           -0.95593517915369       -1.29707129768873       -0.03710555313685
C           -1.43618733336119       -2.66814596044543       -0.05968814290809
H            3.73630059094072        1.22267010011302        1.06813879795066
H            4.01134115022085        1.04770091790768       -0.68107493522866
H            2.70273479046327        2.10637461133519       -0.07926440452930
H            3.55651724205903       -1.69085039963998        0.04313119868403
H           -1.62109875090297        3.08066171418929       -0.02395487268126
H           -2.82136285398491        2.13648436133052       -0.95503005550158
H           -2.87487514172370        2.11975808792834        0.81697536477775
H           -1.10929973683707       -3.22224734539071        0.82720338399650
H           -1.08002861981205       -3.20392927869148       -0.94686638069637
H           -2.52397340390892       -2.63444296562081       -0.07755530382670
H            1.29515738609419       -2.93644815348507       -0.01275377745136
25
 energy: -3.896867781050 xtb: 6.6.1 (8d0f1dd)
C            3.24884194745414        1.17484072737770        0.09082284316277
N            2.29405786135596        0.11571675455195        0.02799021464748
C            2.56868126162277       -1.27113415906082        0.03006411225929
N            1.34155639777021       -1.92704264966433        0.00277771632396
C            0.36136198684665       -1.02326528903307       -0.00875735110959
C            0.89583462455347        0.25715636019507        0.00927890164869
C            0.09604262969927        1.39534198566478       -0.01090367080864
O            0.45503596889397        2.59102857133990       -0.01306854298465
N           -1.30549737710089        1.05185127609343       -0.03270350164010
C           -2.20792031075555        2.19302118275320       -0.04908380253167
C           -1.86404489257555       -0.18642148013115       -0.04829626281894
O           -3.06990077603426       -0.36740898177199       -0.07024503192291
N           -0.98069128495709       -1.29189890753826       -0.03715465310130
C           -1.38794051470350       -2.69412927099353       -0.05867727091405
H            3.75435322324091        1.21307356691164        1.06446969532518
H            4.00719963554937        1.05540705406231       -0.68880021148006
H            2.70964266190831        2.10921056240477       -0.06112366521219
H            3.52299129269479       -1.73248892591023        0.04377211475721
H           -1.56757551534029        3.07980789411471       -0.02209564862703
H           -2.81504569389843        2.19570442998972       -0.95589073619480
H           -2.86959197670347        2.17835953304437        0.81833040435522
H           -1.02489077627184       -3.23785870885820        0.82568460220356
H           -0.98855968196250       -3.22282458725468       -0.93743062877419
H           -2.47862504782885       -2.74102793534903       -0.08198856009432
H            1.21689902447855       -2.92599040076621       -0.00993717032166
25
 energy: 4.371411906185 xtb: 6.6.1 (8d0f1dd)
C            3.25687408053899        1.17486664938008        0.09455402223888
N            2.29096892072475        0.12519367050282        0.01689843819875
C            2.54559646207087       -1.30507879632993        0.03123023010003
N            1.27962213376470       -1.91465200345773        0.00703620407250
C            0.33717261467416       -0.99860806629001       -0.00933614036349
C            0.87796513671649        0.28261936649904        0.00245749015902
C            0.09821897048927        1.39702635374283       -0.01904663182881
O            0.41489365811509        2.61055969779392       -0.02505820143568
N           -1.34053632429246        1.05035422973650       -0.03587223041871
C           -2.20043487823353        2.22015962595548       -0.04873788444661
C           -1.89257609415929       -0.18050827714908       -0.05002131660925
O           -3.10056237780075       -0.36561485312783       -0.07055460068049
N           -1.01295697415773       -1.28667307275096       -0.03739269726104
C           -1.32883893180379       -2.72684612712758       -0.05723554518494
H            3.79601269375475        1.20547198473229        1.05507461813151
H            4.00371224858574        1.09261182480943       -0.70595075654601
H            2.71955554782348        2.11941088446229       -0.02071717432582
H            3.47966621281542       -1.80062570580139        0.04676679979913
H           -1.50332231056376        3.07104606700068       -0.01734060582119
H           -2.80625620327930        2.26448995286796       -0.95716738582025
H           -2.86363047782989        2.24239739785008        0.81864760949917
H           -0.93554723967165       -3.26286360959468        0.82604649967581
H           -0.88656928607455       -3.25301092859287       -0.92559279678935
H           -2.41705784872935       -2.86366541993938       -0.08941797079039
H            1.10024493445846       -2.90903224299990       -0.00223607740547
25
 energy: 7.245695921200 xtb: 6.6.1 (8d0f1dd)
C            3.24120433298013        1.15474012203006        0.09282299714157
N            2.26206231272647        0.11890392729559        0.02146588298728
C            2.51264765238406       -1.29854776268158        0.02771011217422
N            1.25452792676769       -1.91563600770453        0.00428739702847
C            0.31123020531857       -0.99086292927405       -0.00890147398114
C            0.85506224372325        0.28321475693314        0.00517098286064
C            0.06467276174834        1.40517284591168       -0.01638785060609
O            0.40387879968023        2.61515573565597       -0.02146591541493
N           -1.35469400910801        1.06213221449999       -0.03497361986615
C           -2.19221363681078        2.25974164579692       -0.04867648718751
C           -1.91857114364630       -0.17392376130108       -0.04967590425706
O           -3.12910850202658       -0.35365398034049       -0.07042216630516
N           -1.02796289976983       -1.28111559239464       -0.03700625932349
C           -1.27941212535163       -2.75060357884692       -0.05621929776147
H            3.76991362936677        1.17134326957848        1.05810870043690
H            3.98663271422028        1.03986604919881       -0.70232267820847
H            2.71920412444556        2.10389635543181       -0.03259155423059
H            3.44709879935264       -1.79613549012667        0.04285364436029
H           -1.46103941989314        3.09475040483477       -0.02011045356220
H           -2.80125639327500        2.33125689609415       -0.95789740907196
H           -2.85661899690021        2.31465397106203        0.82196344519485
H           -0.82453158732584       -3.25891078386812        0.82346446867749
H           -0.77427329443521       -3.25047368598095       -0.91776536500307
H           -2.37896332211172       -2.98578348039585       -0.09068529071502
H            1.08272449587637       -2.91015253923646       -0.00571200922012
25
 energy: 9.527804928777 xtb: 6.6.1 (8d0f1dd)
C            3.21209895533447        1.12272954483440        0.08822927050732
N            2.21632818570543        0.09703076159688        0.03310907918229
C            2.46238425740920       -1.26672609032528        0.02174341263108
N            1.24740617136830       -1.91882498668370        0.00021772869391
C            0.27675217082463       -0.99325727546672       -0.00807163148799
C            0.83177948576141        0.26864208103047        0.01168033434822
C            0.01281254953281        1.42335585291228       -0.01190786627070
O            0.41962180222127        2.60440590900321       -0.01512611668776
N           -1.35716509261681        1.08981242602012       -0.03403894664813
C           -2.18456950095823        2.31102108803153       -0.04914477363648
C           -1.94443560052689       -0.16667455748455       -0.04940576626114
O           -3.14977381033231       -0.32760818751828       -0.07038034592037
N           -1.03770536932296       -1.28881256838042       -0.03728497206461
C           -1.21850383061457       -2.78866718676164       -0.05547188935216
H            3.72202772271885        1.11678665184166        1.05919945164968
H            3.95568610216553        0.96136171734963       -0.69709833642723
H            2.71623194858678        2.08082726310740       -0.05052247840395
H            3.40438205028482       -1.75909786811806        0.03869633651642
H           -1.45307207931293        3.13944881788880       -0.02475657632557
H           -2.79005034662359        2.40313854446922       -0.95624255300267
H           -2.84204276140775        2.39310561446969        0.82266509914050
H           -0.72382493901553       -3.25534910472456        0.82504699740624
H           -0.67617316692112       -3.24576711855289       -0.91602046099777
H           -2.29346350050087       -3.09731163822218       -0.08818273454052
H            1.10548326417616       -2.91454108814496       -0.00989836590130
25
 energy: 18.309386605179 xtb: 6.6.1 (8d0f1dd)
C            3.19969445587894        1.10770920950697        0.08803309796741
N            2.19297834093936        0.09128338324426        0.03310136319653
C            2.42692547419725       -1.26682228556005        0.01918367535236
N            1.21660598720289       -1.91311049179625        0.00204557017734
C            0.24637621109614       -0.98239500934252       -0.00763386771489
C            0.81357340345674        0.27369833257616        0.01114143987937
C           -0.00486014820749        1.43878088482325       -0.01558441966301
O            0.41905092634890        2.60958745429790       -0.02063149571155
N           -1.37495573873580        1.10792985426702       -0.03650683520623
C           -2.17861805662089        2.35303394948076       -0.04970149134434
C           -1.97255133879980       -0.15669440207554       -0.05078559630207
O           -3.17614532709558       -0.30294376491076       -0.07066280326563
N           -1.06276543678303       -1.29762806701424       -0.03779022385315
C           -1.15776341952787       -2.83065298617233       -0.05416425553754
H            3.72530477731467        1.07633586206543        1.05015459782065
H            3.92753702740818        0.94986667105287       -0.71119510993522
H            2.71604432074197        2.07556008989616       -0.02606561143051
H            3.36032927160576       -1.77443031169402        0.04066830767093
H           -1.42574995128044        3.16210206175897       -0.02307075602170
H           -2.77786912101014        2.47613439420518       -0.95695620682049
H           -2.83108307114227        2.46331673068917        0.82178150987066
H           -0.63913145210408       -3.27230884210098        0.82780464817750
H           -0.58226511978653       -3.26503765303380       -0.90837147671607
H           -2.20521144321038       -3.22823598837173       -0.09281370972672
H            1.05676409604957       -2.90605047361985       -0.00494645471632
25
 energy: 30.538772248741 xtb: 6.6.1 (8d0f1dd)
C            3.18454159633136        1.09796121621050        0.08843505099813
N            2.17102241295954        0.08979080052915        0.02957531209221
C            2.39262161673810       -1.26539294689026        0.01855682110531
N            1.19066542378304       -1.89768522433758        0.00909695469714
C            0.21110332006359       -0.97328949143295       -0.00669388714369
C            0.79594411953960        0.28143880993046        0.00778700243008
C           -0.00139357360616        1.46453343935373       -0.02395237196361
O            0.43713194978440        2.61733311082991       -0.03250359517659
N           -1.39324183270955        1.13720911089251       -0.04142731486574
C           -2.17283768197507        2.40389640850553       -0.05100086375206
C           -2.00022713320878       -0.13929986446879       -0.05315494493337
O           -3.19974469759921       -0.25196240310081       -0.07078803327393
N           -1.09971012241418       -1.33445005015835       -0.03946628395848
C           -1.09304133400493       -2.90307441601838       -0.05358045129206
H            3.74857422379685        1.02135760352656        1.02749310526861
H            3.87910444069761        0.97137035455438       -0.74509899292599
H            2.71158998976411        2.07872019610333        0.03163703008233
H            3.31011413731479       -1.79450588826010        0.05128069159920
H           -1.41423623904880        3.19344136222960       -0.01743431501713
H           -2.75514922568913        2.56159209120409       -0.95772052480247
H           -2.81497453362754        2.53832299267123        0.81573305362333
H           -0.59100522717988       -3.32415466566886        0.83500222376611
H           -0.51812415553678       -3.31796326724512       -0.90241028271001
H           -2.05984825693399       -3.38148823872819       -0.10051650184058
H            0.99333545069702       -2.88467243805952        0.00818501414058
25
 energy: 46.728582839642 xtb: 6.6.1 (8d0f1dd)
C            3.16942541970723        1.09135772403609        0.08699094418134
N            2.14675963974487        0.09546261882254        0.02613084145636
C            2.36454925607502       -1.26310786565169        0.02038825162471
N            1.16218699862584       -1.88187094236629        0.01663015936758
C            0.17674279003474       -0.96720821271338       -0.00438517801312
C            0.76895561784197        0.29123232575042        0.00515783307185
C            0.00810548354954        1.48237390185007       -0.02910098638572
O            0.45522021066518        2.63186861280457       -0.04079316020577
N           -1.40397618922095        1.16522536313908       -0.04434690205762
C           -2.16051180835993        2.45187874133403       -0.05174357473306
C           -2.01953653099110       -0.11162642886196       -0.05463548423111
O           -3.22034271318047       -0.19030150861211       -0.07019489428216
N           -1.13645370018588       -1.36429946318944       -0.04021228132601
C           -1.04732883871744       -2.96953105864437       -0.05397342721138
H            3.76760471679286        0.97321000589407        1.00389412877078
H            3.83464962050578        0.98997325575784       -0.77845030090047
H            2.70623045571092        2.08139551300492        0.08078807207579
H            3.27198718633051       -1.80376505984161        0.06387025327660
H           -1.38996364184971        3.22775847303778       -0.01131631723632
H           -2.73097514184824        2.63936444067424       -0.95964413008524
H           -2.80092483950027        2.60814365458461        0.81106567064263
H           -0.53887611790840       -3.38219592246703        0.83922369326110
H           -0.44732789324730       -3.37510596444082       -0.89580265660262
H           -1.96309451168895       -3.56704209878002       -0.11242025992594
H            0.93910919905015       -2.86416150294945        0.01991360161509
25
 energy: 69.453216830501 xtb: 6.6.1 (8d0f1dd)
C            3.14632639191094        1.08714761442047        0.08085068146698
N            2.11226119549699        0.10679362690250        0.02421012190694
C            2.33537515816115       -1.24849717047112        0.02752477396895
N            1.13882166523655       -1.86183839098904        0.02727987344451
C            0.13724253251147       -0.97036315188145       -0.00082629213078
C            0.72918378656734        0.30119129353861        0.00270917975086
C            0.02644178086530        1.50455337415195       -0.03044066965175
O            0.48214159194656        2.65500925436718       -0.04219848972772
N           -1.40605374405858        1.20643245530357       -0.04484502636415
C           -2.14094000398404        2.51145691604270       -0.05122049569571
C           -2.02990666256646       -0.06426949624336       -0.05480122524845
O           -3.23225303497146       -0.09911099240871       -0.06734572600825
N           -1.17501072990042       -1.41125550344901       -0.04160151633961
C           -1.01277901210352       -3.06968745837746       -0.05811298586151
H            3.77036071029794        0.92907205183068        0.97026282682736
H            3.78290472911743        1.00410763432752       -0.80881045955566
H            2.70186179523783        2.08224424782737        0.11621710123294
H            3.23970743765341       -1.78700805148903        0.08373729552019
H           -1.35661672266709        3.27968187256508       -0.00166579865830
H           -2.69844521031306        2.72358782749407       -0.96175388314082
H           -2.78568217133834        2.68507740553351        0.80624198433607
H           -0.50542897249426       -3.49204249928544        0.84099443772968
H           -0.39361314926650       -3.47848827574489       -0.89462255614074
H           -1.85371169724618       -3.76369111841018       -0.12709259397604
H            0.90002700384294       -2.84107486338342        0.03234333846231
25
 energy: 93.243763375679 xtb: 6.6.1 (8d0f1dd)
C            3.12485495613473        1.08187304271069        0.07189799203044
N            2.07374880040618        0.11834121821325        0.02604845477646
C            2.30235062181961       -1.23100533779907        0.03672506959847
N            1.10905620635073       -1.84579036936592        0.03666626162968
C            0.09619881079953       -0.97368051025668        0.00301965273777
C            0.68497784771670        0.31368575319259        0.00140416131204
C            0.04327031942075        1.53317978502741       -0.02705225586850
O            0.51075725476110        2.68739769440197       -0.03376384943317
N           -1.40172792922303        1.26406499559810       -0.04343883035574
C           -2.12259036196655        2.57907634472280       -0.04982216757782
C           -2.03443576254223        0.00802701512963       -0.05260017944206
O           -3.23697397087313        0.00569736569958       -0.06291396050788
N           -1.20629094360189       -1.45045277771112       -0.04133680949539
C           -0.97656544911205       -3.19104485244431       -0.06404353302972
H            3.75558997554640        0.90038692338270        0.94004907684784
H            3.74496569550367        0.99567754125265       -0.82384879742401
H            2.70813707403460        2.08051580300861        0.12153536282409
H            3.21216909322519       -1.75754652871340        0.10101957881903
H           -1.33178124080288        3.34908599764392        0.00773529340697
H           -2.67078530920624        2.79790037311378       -0.96310281013001
H           -2.77513531245062        2.75572776652738        0.80276450883066
H           -0.46630261311379       -3.63829857054848        0.83826240135312
H           -0.33772623781132       -3.61608067550761       -0.89486241901073
H           -1.75234472403778       -3.95030135862257       -0.14192233076391
H            0.85879786695824       -2.82740803648380        0.03861402501967
25
 energy: 107.447251648960 xtb: 6.6.1 (8d0f1dd)
C            3.11107689430172        1.07060688689921        0.06799519868455
N            2.04112965058859        0.12009447843344        0.03037904274402
C            2.26394453257632       -1.21633803068432        0.04105579387724
N            1.07523743172528       -1.83428350717201        0.03986902069289
C            0.05089227065212       -0.96709028679264        0.00394638506343
C            0.65246466428898        0.32366082377850        0.00135119173760
C            0.04728691289707        1.56530307602502       -0.02480636573110
O            0.53960300683808        2.70873702407400       -0.02868753429934
N           -1.39763485148881        1.33069156466630       -0.04310098665249
C           -2.11331356244334        2.64655263144271       -0.04983458018892
C           -2.04417539594295        0.08040551110745       -0.05036836149668
O           -3.24552655341402        0.10369267691489       -0.06036099338797
N           -1.23526942956824       -1.46186888351352       -0.04021016769326
C           -0.91606615712504       -3.31372690044832       -0.06635973341310
H            3.74600544744616        0.87287380060677        0.92599097806975
H            3.72196026249697        0.97558256154820       -0.83209398499889
H            2.71777036826168        2.07708936087688        0.12429515120642
H            3.17778308484794       -1.73929925938167        0.10626694147240
H           -1.32864210070834        3.42080295286298        0.01108314850771
H           -2.65656302933734        2.85741796391251       -0.96403083399283
H           -2.76830017112394        2.81385163739258        0.80031419986564
H           -0.41068725602786       -3.76756429119691        0.84272631362840
H           -0.27313105551787       -3.74269567022859       -0.89725146367797
H           -1.65029637279529       -4.11510859385276       -0.14911170276525
H            0.80666607650806       -2.82035892509861        0.03797723889507
25
 energy: 115.162570445712 xtb: 6.6.1 (8d0f1dd)
C            3.10291151627279        1.05828303664914        0.06692380624630
N            2.01368304157595        0.11968944025111        0.03454160257459
C            2.22104422626652       -1.20578591809939        0.04489749923107
N            1.03742704452659       -1.82438990095292        0.03907133617393
C            0.00535066418830       -0.95135684563292        0.00264183707993
C            0.62716293856253        0.33869794258122        0.00196184853002
C            0.04646018551704        1.59862886565412       -0.02193982052430
O            0.56013473368947        2.72948452056348       -0.02518918940020
N           -1.39206887568948        1.39601107893513       -0.04121893436324
C           -2.10549252314348        2.70957140798476       -0.04991935285755
C           -2.05394846782024        0.14745574779055       -0.04826819205148
O           -3.25528462806065        0.19242539662715       -0.05767619585792
N           -1.26155132905249       -1.45298776020922       -0.04027093072773
C           -0.84507678347217       -3.43579837689819       -0.06670983028943
H            3.73484481815663        0.85576371944684        0.92228439129431
H            3.71281309687462        0.94987286584064       -0.83076243626473
H            2.73080031862351        2.07223714399226        0.11762046623852
H            3.13740253328118       -1.73048308908866        0.10339620149240
H           -1.32614269385387        3.48855552860525        0.01164984019659
H           -2.64991071092907        2.90971681209799       -0.96481229132967
H           -2.76428088816957        2.86675796373401        0.79937631164044
H           -0.34335015617916       -3.89472362883519        0.84744985365634
H           -0.20059535868636       -3.87031166120283       -0.89834466769513
H           -1.55693220342703       -4.26032462425088       -0.15120273155726
H            0.73681416888432       -2.81796106341134        0.03153347471149
25
 energy: 120.973528522216 xtb: 6.6.1 (8d0f1dd)
C            3.10226237756558        1.05046746564086        0.06783290369610
N            1.99705423962456        0.12230452205753        0.03681670610511
C            2.18254918572070       -1.20102261666654        0.04840010098601
N            1.00023745801368       -1.81378620548028        0.03627829603186
C           -0.03041286461132       -0.92688189028251        0.00088588442671
C            0.61253031254952        0.36127657640855        0.00293529929361
C            0.05097985918926        1.63187505160157       -0.01866536665835
O            0.57533065151466        2.75476804253620       -0.02247721865675
N           -1.38481776790249        1.45249159376834       -0.03797631215171
C           -2.09992254432237        2.76008323518324       -0.04993637168721
C           -2.05958947212278        0.20692364803490       -0.04619159917617
O           -3.26025285049157        0.26678112351049       -0.05507886372660
N           -1.28251978887761       -1.42775805610104       -0.04125363092558
C           -0.77765669575296       -3.54935350898154       -0.06601776497662
H            3.72644927529015        0.85215533946722        0.92666597021463
H            3.71757199905814        0.92750420143601       -0.82321120011018
H            2.74665859525714        2.07031695559402        0.10419640363819
H            3.09921717445686       -1.73033084914062        0.09594730367068
H           -1.32967425637608        3.54723790037181        0.01052785082740
H           -2.64898204658980        2.94631628561678       -0.96502067431164
H           -2.76330720081394        2.90527903367435        0.79887876863041
H           -0.28756879722342       -4.02689548246573        0.84944501768492
H           -0.14294222445939       -4.00517611408285       -0.89707070848788
H           -1.48210806230716       -4.36844220213038       -0.15019551436917
H            0.65112811154651       -2.81710544739827        0.02131861617952
25