      -----------------------------------------------------------      
     |                   =====================                   |     
     |                           x T B                           |     
     |                   =====================                   |     
     |                         S. Grimme                         |     
     |          Mulliken Center for Theoretical Chemistry        |     
     |                    University of Bonn                     |     
      -----------------------------------------------------------      

   * xtb version 6.6.1 (8d0f1dd) compiled by 'conda@1efc2f54142f' on 2023-08-01

   xtb is free software: you can redistribute it and/or modify it under
   the terms of the GNU Lesser General Public License as published by
   the Free Software Foundation, either version 3 of the License, or
   (at your option) any later version.
   
   xtb is distributed in the hope that it will be useful,
   but WITHOUT ANY WARRANTY; without even the implied warranty of
   MERCHANTABILITY or FITNESS FOR A PARTICULAR PURPOSE.  See the
   GNU Lesser General Public License for more details.
   
   Cite this work as:
   * C. Bannwarth, E. Caldeweyher, S. Ehlert, A. Hansen, P. Pracht,
     J. Seibert, S. Spicher, S. Grimme, WIREs Comput. Mol. Sci., 2020, 11,
     e01493. DOI: 10.1002/wcms.1493
   
   for GFN2-xTB:
   * C. Bannwarth, S. Ehlert and S. Grimme., J. Chem. Theory Comput., 2019,
     15, 1652-1671. DOI: 10.1021/acs.jctc.8b01176
   for GFN1-xTB:
   * S. Grimme, C. Bannwarth, P. Shushkov, J. Chem. Theory Comput., 2017,
     13, 1989-2009. DOI: 10.1021/acs.jctc.7b00118
   for GFN0-xTB:
   * P. Pracht, E. Caldeweyher, S. Ehlert, S. Grimme, ChemRxiv, 2019, preprint.
     DOI: 10.26434/chemrxiv.8326202.v1
   for GFN-FF:
   * S. Spicher and S. Grimme, Angew. Chem. Int. Ed., 2020, 59, 15665-15673.
     DOI: 10.1002/anie.202004239
   
   for ALPB and GBSA implicit solvation:
   * S. Ehlert, M. Stahn, S. Spicher, S. Grimme, J. Chem. Theory Comput.,
     2021, 17, 4250-4261. DOI: 10.1021/acs.jctc.1c00471
   
   for DFT-D4:
   * E. Caldeweyher, C. Bannwarth and S. Grimme, J. Chem. Phys., 2017,
     147, 034112. DOI: 10.1063/1.4993215
   * E. Caldeweyher, S. Ehlert, A. Hansen, H. Neugebauer, S. Spicher,
     C. Bannwarth and S. Grimme, J. Chem. Phys., 2019, 150, 154122.
     DOI: 10.1063/1.5090222
   * E. Caldeweyher, J.-M. Mewes, S. Ehlert and S. Grimme, Phys. Chem. Chem. Phys.
     2020, 22, 8499-8512. DOI: 10.1039/D0CP00502A
   
   for sTDA-xTB:
   * S. Grimme and C. Bannwarth, J. Chem. Phys., 2016, 145, 054103.
     DOI: 10.1063/1.4959605
   
   in the mass-spec context:
   * V. Asgeirsson, C. Bauer and S. Grimme, Chem. Sci., 2017, 8, 4879.
     DOI: 10.1039/c7sc00601b
   * J. Koopman and S. Grimme, ACS Omega 2019, 4, 12, 15120-15133.
     DOI: 10.1021/acsomega.9b02011
   
   for metadynamics refer to:
   * S. Grimme, J. Chem. Theory Comput., 2019, 155, 2847-2862
     DOI: 10.1021/acs.jctc.9b00143
   
   for SPH calculations refer to:
   * S. Spicher and S. Grimme, J. Chem. Theory Comput., 2021, 17, 1701-1714
     DOI: 10.1021/acs.jctc.0c01306
   
   with help from (in alphabetical order)
   P. Atkinson, C. Bannwarth, F. Bohle, G. Brandenburg, E. Caldeweyher
   M. Checinski, S. Dohm, S. Ehlert, S. Ehrlich, I. Gerasimov, C. Hölzer
   A. Katbashev, J. Koopman, C. Lavigne, S. Lehtola, F. März, M. Müller,
   F. Musil, H. Neugebauer, J. Pisarek, C. Plett, P. Pracht, F. Pultar,
   J. Seibert, P. Shushkov, S. Spicher, M. Stahn, M. Steiner, T. Strunk,
   J. Stückrath, T. Rose, and J. Unsleber
   
 * started run on 2024/06/05 at 19:58:04.594     

           -------------------------------------------------
          |                Calculation Setup                |
           -------------------------------------------------

          program call               : xtb struc.xyz --opt loose --input .xc1 --gfn2
          hostname                   : n-62-31-11
          coordinate file            : struc.xyz
          omp threads                :                     1

   ID    Z sym.   atoms
    1    6 C      1, 3, 5-7, 10, 11, 14
    2    7 N      2, 4, 9, 13
    3    8 O      8, 12
    4    1 H      15-25
constraining bond 4 15 to    4.6866700 Å, actual value:    4.0274197 Å

           -------------------------------------------------
          |                 G F N 2 - x T B                 |
           -------------------------------------------------

        Reference                      10.1021/acs.jctc.8b01176
      * Hamiltonian:
        H0-scaling (s, p, d)           1.850000    2.230000    2.230000
        zeta-weighting                 0.500000
      * Dispersion:
        s8                             2.700000
        a1                             0.520000
        a2                             5.000000
        s9                             5.000000
      * Repulsion:
        kExp                           1.500000    1.000000
        rExp                           1.000000
      * Coulomb:
        alpha                          2.000000
        third order                    shell-resolved
        anisotropic                    true
        a3                             3.000000
        a5                             4.000000
        cn-shift                       1.200000
        cn-exp                         4.000000
        max-rad                        5.000000


          ...................................................
          :                      SETUP                      :
          :.................................................:
          :  # basis functions                  67          :
          :  # atomic orbitals                  67          :
          :  # shells                           39          :
          :  # electrons                        74          :
          :  max. iterations                   250          :
          :  Hamiltonian                  GFN2-xTB          :
          :  restarted?                      false          :
          :  GBSA solvation                  false          :
          :  PC potential                    false          :
          :  electronic temp.         5000.0000000     K    :
          :  accuracy                    1.0000000          :
          :  -> integral cutoff          0.2500000E+02      :
          :  -> integral neglect         0.1000000E-07      :
          :  -> SCF convergence          0.1000000E-05 Eh   :
          :  -> wf. convergence          0.1000000E-03 e    :
          :  Broyden damping             0.4000000          :
          ...................................................

 iter      E             dE          RMSdq      gap      omega  full diag
   1    -42.5894031 -0.425894E+02  0.445E+00    3.52       0.0  T
   2    -42.7683054 -0.178902E+00  0.251E+00    3.36       1.0  T
   3    -42.7759211 -0.761567E-02  0.147E+00    3.35       1.0  T
   4    -42.7728404  0.308066E-02  0.553E-01    3.33       1.0  T
   5    -42.7789548 -0.611444E-02  0.112E-01    3.35       1.0  T
   6    -42.7790473 -0.924914E-04  0.614E-02    3.33       1.0  T
   7    -42.7790721 -0.247928E-04  0.258E-02    3.34       1.0  T
   8    -42.7790772 -0.508996E-05  0.938E-03    3.34       2.1  T
   9    -42.7790779 -0.669422E-06  0.448E-03    3.34       4.5  T
  10    -42.7790780 -0.821510E-07  0.115E-03    3.34      17.4  T
  11    -42.7790780 -0.322663E-08  0.553E-04    3.34      36.2  T
  12    -42.7790780 -0.287051E-08  0.180E-04    3.34     111.1  T

   *** convergence criteria satisfied after 12 iterations ***

         #    Occupation            Energy/Eh            Energy/eV
      -------------------------------------------------------------
         1        2.0000           -0.9185990             -24.9964
       ...           ...                  ...                  ...
        31        1.9996           -0.6230278             -16.9534
        32        1.9995           -0.6194601             -16.8564
        33        1.9979           -0.5974976             -16.2587
        34        1.9932           -0.5789629             -15.7544
        35        1.9817           -0.5631863             -15.3251
        36        1.9779           -0.5602245             -15.2445
        37        1.9748           -0.5581234             -15.1873 (HOMO)
        38        0.0652           -0.4353579             -11.8467 (LUMO)
        39        0.0099           -0.4050467             -11.0219
        40        0.0013           -0.3732218             -10.1559
        41        0.0000           -0.2886859              -7.8555
        42                         -0.2065804              -5.6213
       ...                                ...                  ...
        67                          0.5625656              15.3082
      -------------------------------------------------------------
                  HL-Gap            0.1227656 Eh            3.3406 eV
             Fermi-level           -0.4890455 Eh          -13.3076 eV

 SCC (total)                   0 d,  0 h,  0 min,  0.037 sec
 SCC setup                      ...        0 min,  0.000 sec (  0.686%)
 Dispersion                     ...        0 min,  0.000 sec (  0.805%)
 classical contributions        ...        0 min,  0.000 sec (  0.215%)
 integral evaluation            ...        0 min,  0.005 sec ( 13.524%)
 iterations                     ...        0 min,  0.017 sec ( 47.060%)
 molecular gradient             ...        0 min,  0.014 sec ( 37.233%)
 printout                       ...        0 min,  0.000 sec (  0.445%)

         :::::::::::::::::::::::::::::::::::::::::::::::::::::
         ::                     SUMMARY                     ::
         :::::::::::::::::::::::::::::::::::::::::::::::::::::
         :: total energy             -43.023870299202 Eh    ::
         :: gradient norm              1.759725833989 Eh/a0 ::
         :: HOMO-LUMO gap              3.340621582928 eV    ::
         ::.................................................::
         :: SCC energy               -42.779077977399 Eh    ::
         :: -> isotropic ES            0.141123876439 Eh    ::
         :: -> anisotropic ES         -0.005230418907 Eh    ::
         :: -> anisotropic XC          0.011966818540 Eh    ::
         :: -> dispersion             -0.022657731803 Eh    ::
         :: repulsion energy           0.531105277918 Eh    ::
         :: add. restraining          -0.776011758730 Eh    ::
         :: total charge               1.000000000002 e     ::
         :::::::::::::::::::::::::::::::::::::::::::::::::::::

      ----------------------------------------------------------- 
     |                   =====================                   |
     |                        A N C O P T                        |
     |                   =====================                   |
     |               Approximate Normal Coordinate               |
     |                Rational Function Optimizer                |
      ----------------------------------------------------------- 

          ...................................................
          :                      SETUP                      :
          :.................................................:
          :   optimization level             loose          :
          :   max. optcycles                   200          :
          :   ANC micro-cycles                  20          :
          :   degrees of freedom                69          :
          :.................................................:
          :   RF solver                   davidson          :
          :   write xtbopt.log                true          :
          :   linear?                        false          :
          :   energy convergence         0.5000000E-04 Eh   :
          :   grad. convergence          0.4000000E-02 Eh/α :
          :   maxmium RF displ.          1.0000000          :
          :   Hlow (freq-cutoff)         0.1000000E-01      :
          :   Hmax (freq-cutoff)         5.0000000          :
          :   S6 in model hess.         20.0000000          :
          ...................................................

generating ANC from model Hessian ...
Using Lindh-Hessian (1995)
 Shifting diagonal of input Hessian by    1.5390187232964656     
 Lowest  eigenvalues of input Hessian
    0.010000    0.000000    0.000000    0.000000    0.000000    0.000000
    0.000000    1.543353    1.544606    1.547840    1.549542    1.550404
    1.553166    1.555813    1.560621    1.565446    1.568262    1.578222
 Highest eigenvalues
    3.628882    3.680578    3.743884    3.835791    3.961154    4.080624


........................................................................
.............................. CYCLE    1 ..............................
........................................................................

 iter      E             dE          RMSdq      gap      omega  full diag
   1    -42.7790780 -0.427791E+02  0.626E-05    3.34       0.0  T
   2    -42.7790780 -0.124416E-10  0.329E-05    3.34     607.4  T
   3    -42.7790780  0.127898E-12  0.193E-05    3.34    1034.2  T
     SCC iter.                  ...        0 min,  0.005 sec
     gradient                   ...        0 min,  0.014 sec
 * total energy  :   -43.0238703 Eh     change       -0.6650680E-10 Eh
   gradient norm :     1.7597260 Eh/α   predicted     0.0000000E+00 (-100.00%)
   displ. norm   :     0.9870782 α      lambda       -0.1708398E+01
   maximum displ.:     0.9810978 α      in ANC's #1, #61, #62, ...

........................................................................
.............................. CYCLE    2 ..............................
........................................................................

 iter      E             dE          RMSdq      gap      omega  full diag
   1    -42.7263256 -0.427263E+02  0.131E+00    3.55       0.0  T
   2    -42.7364472 -0.101215E-01  0.688E-01    3.57       1.0  T
   3    -42.7374021 -0.954904E-03  0.352E-01    3.57       1.0  T
   4    -42.7378484 -0.446290E-03  0.841E-02    3.57       1.0  T
   5    -42.7379553 -0.106928E-03  0.300E-02    3.57       1.0  T
   6    -42.7379584 -0.310107E-05  0.157E-02    3.57       1.3  T
   7    -42.7379591 -0.732223E-06  0.443E-03    3.57       4.5  T
   8    -42.7379595 -0.361418E-06  0.104E-03    3.57      19.2  T
   9    -42.7379595 -0.338340E-08  0.452E-04    3.57      44.2  T
  10    -42.7379595 -0.792227E-09  0.174E-04    3.57     115.0  T
     SCC iter.                  ...        0 min,  0.014 sec
     gradient                   ...        0 min,  0.014 sec
 * total energy  :   -45.5231542 Eh     change       -0.2499284E+01 Eh
   gradient norm :     3.3232695 Eh/α   predicted    -0.1686465E+01 ( -32.52%)
   displ. norm   :     0.9948591 α      lambda       -0.3295852E+01
   maximum displ.:     0.9904782 α      in ANC's #1, #50, #52, ...

........................................................................
.............................. CYCLE    3 ..............................
........................................................................

 iter      E             dE          RMSdq      gap      omega  full diag
   1    -42.4833027 -0.424833E+02  0.168E+00    2.86       0.0  T
   2    -42.5043795 -0.210768E-01  0.878E-01    2.93       1.0  T
   3    -42.5101683 -0.578884E-02  0.471E-01    3.02       1.0  T
   4    -42.5121529 -0.198454E-02  0.241E-01    3.03       1.0  T
   5    -42.5129323 -0.779460E-03  0.505E-02    3.02       1.0  T
   6    -42.5129469 -0.145342E-04  0.179E-02    3.02       1.1  T
   7    -42.5129470 -0.118092E-06  0.654E-03    3.02       3.1  T
   8    -42.5129476 -0.597830E-06  0.186E-03    3.02      10.7  T
   9    -42.5129476 -0.149075E-07  0.694E-04    3.02      28.8  T
  10    -42.5129476 -0.311592E-08  0.167E-04    3.02     120.0  T
     SCC iter.                  ...        0 min,  0.013 sec
     gradient                   ...        0 min,  0.014 sec
 * total energy  :   -49.5773565 Eh     change       -0.4054202E+01 Eh
   gradient norm :     4.9406646 Eh/α   predicted    -0.3279062E+01 ( -19.12%)
   displ. norm   :     0.9910389 α      lambda       -0.4873673E+01
   maximum displ.:     0.9769291 α      in ANC's #1, #67, #47, ...

........................................................................
.............................. CYCLE    4 ..............................
........................................................................

 iter      E             dE          RMSdq      gap      omega  full diag
   1    -42.1365716 -0.421366E+02  0.233E+00    1.82       0.0  T
   2    -42.1529407 -0.163690E-01  0.162E+00    1.76       1.0  T
   3    -42.1933025 -0.403618E-01  0.797E-01    1.77       1.0  T
   4    -42.2024983 -0.919582E-02  0.474E-01    1.79       1.0  T
   5    -42.2064878 -0.398952E-02  0.176E-01    1.74       1.0  T
   6    -42.2069883 -0.500444E-03  0.449E-02    1.76       1.0  T
   7    -42.2069956 -0.728804E-05  0.162E-02    1.77       1.2  T
   8    -42.2069983 -0.276249E-05  0.495E-03    1.77       4.0  T
   9    -42.2069985 -0.158628E-06  0.187E-03    1.77      10.7  T
  10    -42.2069985 -0.169394E-07  0.832E-04    1.77      24.0  T
  11    -42.2069985 -0.681048E-08  0.248E-04    1.77      80.6  T
     SCC iter.                  ...        0 min,  0.015 sec
     gradient                   ...        0 min,  0.014 sec
 * total energy  :   -55.3772647 Eh     change       -0.5799908E+01 Eh
   gradient norm :     6.9259006 Eh/α   predicted    -0.4830196E+01 ( -16.72%)
   displ. norm   :     0.9914968 α      lambda       -0.6845839E+01
   maximum displ.:     0.9707894 α      in ANC's #1, #66, #52, ...

........................................................................
.............................. CYCLE    5 ..............................
........................................................................

 iter      E             dE          RMSdq      gap      omega  full diag
   1    -41.9976713 -0.419977E+02  0.246E+00    0.31       0.0  T
   2    -41.9259305  0.717407E-01  0.223E+00    1.19       1.0  T
   3    -42.0366689 -0.110738E+00  0.120E+00    0.25       1.0  T
   4    -42.0599543 -0.232853E-01  0.706E-01    0.83       1.0  T
   5    -42.0694560 -0.950174E-02  0.182E-01    0.60       1.0  T
   6    -42.0701205 -0.664473E-03  0.730E-02    0.61       1.0  T
   7    -42.0701651 -0.446403E-04  0.338E-02    0.60       1.0  T
   8    -42.0701832 -0.180878E-04  0.102E-02    0.60       2.0  T
   9    -42.0701848 -0.160899E-05  0.380E-03    0.59       5.3  T
  10    -42.0701850 -0.141927E-06  0.206E-03    0.59       9.7  T
  11    -42.0701850 -0.639498E-07  0.654E-04    0.59      30.6  T
  12    -42.0701850 -0.329414E-08  0.320E-04    0.59      62.6  T
     SCC iter.                  ...        0 min,  0.016 sec
     gradient                   ...        0 min,  0.014 sec
 * total energy  :   -63.2722371 Eh     change       -0.7894972E+01 Eh
   gradient norm :     9.0229258 Eh/α   predicted    -0.6788046E+01 ( -14.02%)
   displ. norm   :     0.9921682 α      lambda       -0.8932749E+01
   maximum displ.:     0.9671473 α      in ANC's #1, #66, #50, ...

........................................................................
.............................. CYCLE    6 ..............................
........................................................................

 iter      E             dE          RMSdq      gap      omega  full diag
   1    -41.9633375 -0.419633E+02  0.278E+00    0.70       0.0  T
   2    -41.9000827  0.632547E-01  0.232E+00    1.76       1.0  T
   3    -42.0020350 -0.101952E+00  0.151E+00    0.71       1.0  T
   4    -42.0398045 -0.377696E-01  0.921E-01    1.11       1.0  T
   5    -42.0618583 -0.220538E-01  0.244E-01    0.90       1.0  T
   6    -42.0621969 -0.338572E-03  0.138E-01    0.91       1.0  T
   7    -42.0625200 -0.323139E-03  0.548E-02    0.90       1.0  T
   8    -42.0625728 -0.527456E-04  0.240E-02    0.90       1.0  T
   9    -42.0625793 -0.656171E-05  0.755E-03    0.90       2.6  T
  10    -42.0625798 -0.437981E-06  0.285E-03    0.90       7.0  T
  11    -42.0625799 -0.103602E-06  0.126E-03    0.90      15.9  T
  12    -42.0625799 -0.123745E-07  0.407E-04    0.90      49.2  T
  13    -42.0625799 -0.305016E-08  0.147E-04    0.90     136.0  T
     SCC iter.                  ...        0 min,  0.017 sec
     gradient                   ...        0 min,  0.013 sec
 * total energy  :   -71.6824450 Eh     change       -0.8410208E+01 Eh
   gradient norm :     3.0970092 Eh/α   predicted    -0.8863066E+01 (   5.38%)
   displ. norm   :     0.6739966 α      lambda       -0.1898171E+01
   maximum displ.:     0.3355472 α      in ANC's #1, #32, #66, ...

........................................................................
.............................. CYCLE    7 ..............................
........................................................................

 iter      E             dE          RMSdq      gap      omega  full diag
   1    -42.0135239 -0.420135E+02  0.260E+00    0.44       0.0  T
   2    -41.8545202  0.159004E+00  0.349E+00    1.24       1.0  T
   3    -42.1880856 -0.333565E+00  0.112E+00    0.28       1.0  T
   4    -42.1894565 -0.137081E-02  0.912E-01    0.64       1.0  T
   5    -42.1964102 -0.695371E-02  0.694E-01    0.25       1.0  T
   6    -42.2076919 -0.112817E-01  0.238E-01    0.37       1.0  T
   7    -42.2099848 -0.229286E-02  0.488E-02    0.37       1.0  T
   8    -42.2099651  0.196541E-04  0.536E-02    0.38       1.0  T
   9    -42.2100140 -0.489133E-04  0.272E-02    0.38       1.0  T
  10    -42.2100289 -0.148623E-04  0.790E-03    0.37       2.5  T
  11    -42.2100303 -0.141504E-05  0.304E-03    0.38       6.6  T
  12    -42.2100306 -0.294394E-06  0.735E-04    0.38      27.2  T
  13    -42.2100306 -0.430993E-08  0.253E-04    0.38      79.0  T
     SCC iter.                  ...        0 min,  0.017 sec
     gradient                   ...        0 min,  0.014 sec
 * total energy  :   -67.7376760 Eh     change        0.3944769E+01 Eh
   gradient norm :    49.1895202 Eh/α   predicted    -0.1380237E+01 (-134.99%)
   displ. norm   :     0.3003609 α      lambda       -0.1378575E+02
   maximum displ.:     0.1975905 α      in ANC's #1, #44, #40, ...

........................................................................
.............................. CYCLE    8 ..............................
........................................................................

 iter      E             dE          RMSdq      gap      omega  full diag
   1    -42.1615846 -0.421616E+02  0.751E-01    0.46       0.0  T
   2    -42.1118147  0.497700E-01  0.135E+00    0.31       1.0  T
   3    -42.1795421 -0.677274E-01  0.350E-01    0.45       1.0  T
   4    -42.1782846  0.125743E-02  0.314E-01    0.39       1.0  T
   5    -42.1782177  0.669345E-04  0.280E-01    0.45       1.0  T
   6    -42.1804689 -0.225115E-02  0.536E-02    0.43       1.0  T
   7    -42.1805375 -0.686408E-04  0.217E-02    0.42       1.0  T
   8    -42.1805473 -0.977241E-05  0.837E-03    0.42       2.4  T
   9    -42.1805475 -0.258464E-06  0.437E-03    0.42       4.6  T
  10    -42.1805479 -0.362388E-06  0.130E-03    0.42      15.4  T
  11    -42.1805479 -0.511481E-07  0.538E-04    0.42      37.2  T
  12    -42.1805479 -0.427404E-08  0.199E-04    0.42     100.7  T
     SCC iter.                  ...        0 min,  0.016 sec
     gradient                   ...        0 min,  0.013 sec
 * total energy  :   -72.2751602 Eh     change       -0.4537484E+01 Eh
   gradient norm :     0.7414241 Eh/α   predicted    -0.7514732E+01 (  65.61%)
   displ. norm   :     0.1944040 α      lambda       -0.8533020E-01
   maximum displ.:     0.0650852 α      in ANC's #42, #41, #32, ...

........................................................................
.............................. CYCLE    9 ..............................
........................................................................

 iter      E             dE          RMSdq      gap      omega  full diag
   1    -42.1854623 -0.421855E+02  0.395E-01    0.35       0.0  T
   2    -42.1838474  0.161488E-02  0.410E-01    0.35       1.0  T
   3    -42.1867927 -0.294532E-02  0.236E-01    0.40       1.0  T
   4    -42.1870983 -0.305561E-03  0.210E-01    0.33       1.0  T
   5    -42.1880490 -0.950759E-03  0.889E-02    0.37       1.0  T
   6    -42.1882037 -0.154678E-03  0.305E-02    0.37       1.0  T
   7    -42.1882347 -0.309889E-04  0.191E-02    0.36       1.0  T
   8    -42.1882433 -0.858047E-05  0.547E-03    0.36       3.7  T
   9    -42.1882437 -0.426483E-06  0.179E-03    0.36      11.2  T
  10    -42.1882438 -0.816424E-07  0.820E-04    0.37      24.4  T
  11    -42.1882438 -0.102180E-07  0.350E-04    0.37      57.1  T
     SCC iter.                  ...        0 min,  0.015 sec
     gradient                   ...        0 min,  0.013 sec
 * total energy  :   -72.3399250 Eh     change       -0.6476480E-01 Eh
   gradient norm :     0.3911910 Eh/α   predicted    -0.4427791E-01 ( -31.63%)
   displ. norm   :     0.2975870 α      lambda       -0.7705431E-01
   maximum displ.:     0.0929101 α      in ANC's #42, #32, #41, ...

........................................................................
.............................. CYCLE   10 ..............................
........................................................................

 iter      E             dE          RMSdq      gap      omega  full diag
   1    -42.1978032 -0.421978E+02  0.621E-01    0.29       0.0  T
   2    -42.1947507  0.305255E-02  0.666E-01    0.28       1.0  T
   3    -42.2036201 -0.886942E-02  0.339E-01    0.37       1.0  T
   4    -42.2032835  0.336596E-03  0.342E-01    0.26       1.0  T
   5    -42.2061298 -0.284627E-02  0.115E-01    0.32       1.0  T
   6    -42.2063305 -0.200708E-03  0.492E-02    0.32       1.0  T
   7    -42.2063920 -0.615548E-04  0.379E-02    0.31       1.0  T
   8    -42.2064303 -0.382820E-04  0.120E-02    0.31       1.7  T
   9    -42.2064326 -0.226416E-05  0.661E-03    0.31       3.0  T
  10    -42.2064334 -0.860307E-06  0.161E-03    0.31      12.4  T
  11    -42.2064335 -0.424885E-07  0.521E-04    0.31      38.4  T
  12    -42.2064335 -0.812435E-09  0.176E-04    0.31     113.5  T
     SCC iter.                  ...        0 min,  0.016 sec
     gradient                   ...        0 min,  0.014 sec
 * total energy  :   -72.3978903 Eh     change       -0.5796527E-01 Eh
   gradient norm :     0.2132380 Eh/α   predicted    -0.4193917E-01 ( -27.65%)
   displ. norm   :     0.3984544 α      lambda       -0.7440619E-01
   maximum displ.:     0.1237309 α      in ANC's #52, #42, #66, ...

........................................................................
.............................. CYCLE   11 ..............................
........................................................................

 iter      E             dE          RMSdq      gap      omega  full diag
   1    -42.2436751 -0.422437E+02  0.696E-01    0.45       0.0  T
   2    -42.2321845  0.114905E-01  0.781E-01    0.35       1.0  T
   3    -42.2477041 -0.155195E-01  0.390E-01    0.45       1.0  T
   4    -42.2492694 -0.156534E-02  0.274E-01    0.33       1.0  T
   5    -42.2503314 -0.106201E-02  0.122E-01    0.41       1.0  T
   6    -42.2508710 -0.539548E-03  0.487E-02    0.38       1.0  T
   7    -42.2509461 -0.751520E-04  0.136E-02    0.38       1.5  T
   8    -42.2509470 -0.915849E-06  0.889E-03    0.38       2.2  T
   9    -42.2509491 -0.205189E-05  0.203E-03    0.38       9.8  T
  10    -42.2509492 -0.771841E-07  0.775E-04    0.38      25.8  T
  11    -42.2509492 -0.545304E-08  0.368E-04    0.38      54.4  T
     SCC iter.                  ...        0 min,  0.015 sec
     gradient                   ...        0 min,  0.014 sec
 * total energy  :   -72.4395798 Eh     change       -0.4168953E-01 Eh
   gradient norm :     1.2804237 Eh/α   predicted    -0.4311029E-01 (   3.41%)
   displ. norm   :     0.3392465 α      lambda       -0.6120537E-01
   maximum displ.:     0.1098724 α      in ANC's #52, #50, #66, ...

........................................................................
.............................. CYCLE   12 ..............................
........................................................................

 iter      E             dE          RMSdq      gap      omega  full diag
   1    -42.2223373 -0.422223E+02  0.143E+00    0.73       0.0  T
   2    -42.1359177  0.864196E-01  0.216E+00    0.74       1.0  T
   3    -42.2697341 -0.133816E+00  0.443E-01    0.61       1.0  T
   4    -42.2714438 -0.170960E-02  0.222E-01    0.65       1.0  T
   5    -42.2715341 -0.903227E-04  0.194E-01    0.60       1.0  T
   6    -42.2724278 -0.893757E-03  0.514E-02    0.62       1.0  T
   7    -42.2724799 -0.520198E-04  0.216E-02    0.62       1.0  T
   8    -42.2724761  0.377636E-05  0.240E-02    0.62       1.0  T
   9    -42.2724949 -0.188561E-04  0.614E-03    0.62       3.3  T
  10    -42.2724953 -0.355178E-06  0.325E-03    0.62       6.1  T
  11    -42.2724955 -0.238165E-06  0.619E-04    0.62      32.3  T
  12    -42.2724955 -0.191093E-08  0.355E-04    0.62      56.3  T
     SCC iter.                  ...        0 min,  0.016 sec
     gradient                   ...        0 min,  0.014 sec
 * total energy  :   -72.4811594 Eh     change       -0.4157964E-01 Eh
   gradient norm :     0.2146380 Eh/α   predicted    -0.3412518E-01 ( -17.93%)
   displ. norm   :     0.5800789 α      lambda       -0.5794868E-01
   maximum displ.:     0.2214983 α      in ANC's #52, #50, #66, ...

........................................................................
.............................. CYCLE   13 ..............................
........................................................................

 iter      E             dE          RMSdq      gap      omega  full diag
   1    -42.2414479 -0.422414E+02  0.181E+00    0.93       0.0  T
   2    -41.9810934  0.260354E+00  0.336E+00    0.71       1.0  T
   3    -42.3029446 -0.321851E+00  0.733E-01    0.81       1.0  T
   4    -42.3118021 -0.885750E-02  0.365E-01    0.77       1.0  T
   5    -42.3127844 -0.982260E-03  0.162E-01    0.75       1.0  T
   6    -42.3134872 -0.702844E-03  0.784E-02    0.73       1.0  T
   7    -42.3136227 -0.135468E-03  0.361E-02    0.74       1.0  T
   8    -42.3136278 -0.512718E-05  0.249E-02    0.74       1.0  T
   9    -42.3136463 -0.184987E-04  0.174E-02    0.74       1.2  T
  10    -42.3136531 -0.680998E-05  0.471E-03    0.74       4.2  T
  11    -42.3136535 -0.380093E-06  0.191E-03    0.74      10.4  T
  12    -42.3136536 -0.630477E-07  0.888E-04    0.74      22.5  T
  13    -42.3136536 -0.134047E-07  0.285E-04    0.74      70.2  T
     SCC iter.                  ...        0 min,  0.017 sec
     gradient                   ...        0 min,  0.013 sec
 * total energy  :   -72.5241402 Eh     change       -0.4298072E-01 Eh
   gradient norm :     0.6001251 Eh/α   predicted    -0.3872422E-01 (  -9.90%)
   displ. norm   :     0.4293414 α      lambda       -0.4407396E-01
   maximum displ.:     0.1788277 α      in ANC's #52, #33, #34, ...

........................................................................
.............................. CYCLE   14 ..............................
........................................................................

 iter      E             dE          RMSdq      gap      omega  full diag
   1    -42.3286733 -0.423287E+02  0.816E-01    0.94       0.0  T
   2    -42.2852695  0.434039E-01  0.135E+00    0.69       1.0  T
   3    -42.3370848 -0.518153E-01  0.364E-01    0.86       1.0  T
   4    -42.3385304 -0.144566E-02  0.231E-01    0.82       1.0  T
   5    -42.3397548 -0.122433E-02  0.467E-02    0.82       1.0  T
   6    -42.3397882 -0.334500E-04  0.269E-02    0.82       1.0  T
   7    -42.3397964 -0.814733E-05  0.196E-02    0.82       1.0  T
   8    -42.3398007 -0.438616E-05  0.102E-02    0.82       2.0  T
   9    -42.3398046 -0.384588E-05  0.423E-03    0.82       4.7  T
  10    -42.3398049 -0.337493E-06  0.105E-03    0.82      19.1  T
  11    -42.3398049 -0.934496E-08  0.499E-04    0.82      40.0  T
  12    -42.3398049 -0.549070E-08  0.166E-04    0.82     120.4  T
     SCC iter.                  ...        0 min,  0.016 sec
     gradient                   ...        0 min,  0.014 sec
 * total energy  :   -72.5591591 Eh     change       -0.3501894E-01 Eh
   gradient norm :     0.2371114 Eh/α   predicted    -0.2609928E-01 ( -25.47%)
   displ. norm   :     0.4120885 α      lambda       -0.5021304E-01
   maximum displ.:     0.1801770 α      in ANC's #52, #46, #33, ...

........................................................................
.............................. CYCLE   15 ..............................
........................................................................

 iter      E             dE          RMSdq      gap      omega  full diag
   1    -42.3786000 -0.423786E+02  0.593E-01    1.17       0.0  T
   2    -42.3734453  0.515476E-02  0.550E-01    0.95       1.0  T
   3    -42.3799329 -0.648764E-02  0.343E-01    1.11       1.0  T
   4    -42.3809660 -0.103309E-02  0.197E-01    1.03       1.0  T
   5    -42.3821737 -0.120766E-02  0.343E-02    1.03       1.0  T
   6    -42.3821728  0.842489E-06  0.278E-02    1.04       1.0  T
   7    -42.3821929 -0.200445E-04  0.960E-03    1.04       2.1  T
   8    -42.3821951 -0.221930E-05  0.258E-03    1.04       7.7  T
   9    -42.3821952 -0.102107E-06  0.131E-03    1.04      15.3  T
  10    -42.3821952 -0.172041E-07  0.559E-04    1.04      35.8  T
  11    -42.3821952 -0.568595E-08  0.194E-04    1.04     102.9  T
     SCC iter.                  ...        0 min,  0.015 sec
     gradient                   ...        0 min,  0.013 sec
 * total energy  :   -72.5908528 Eh     change       -0.3169371E-01 Eh
   gradient norm :     1.2255324 Eh/α   predicted    -0.2937046E-01 (  -7.33%)
   displ. norm   :     0.4140180 α      lambda       -0.6511702E-01
   maximum displ.:     0.1606429 α      in ANC's #52, #32, #24, ...

........................................................................
.............................. CYCLE   16 ..............................
........................................................................

 iter      E             dE          RMSdq      gap      omega  full diag
   1    -42.4372450 -0.424372E+02  0.567E-01    1.48       0.0  T
   2    -42.4332744  0.397057E-02  0.480E-01    1.21       1.0  T
   3    -42.4401540 -0.687963E-02  0.277E-01    1.42       1.0  T
   4    -42.4411886 -0.103457E-02  0.143E-01    1.33       1.0  T
   5    -42.4417832 -0.594568E-03  0.254E-02    1.34       1.0  T
   6    -42.4417892 -0.605898E-05  0.178E-02    1.34       1.1  T
   7    -42.4417938 -0.455738E-05  0.746E-03    1.34       2.7  T
   8    -42.4417949 -0.114012E-05  0.220E-03    1.34       9.1  T
   9    -42.4417950 -0.630551E-07  0.118E-03    1.34      17.0  T
  10    -42.4417950 -0.140870E-07  0.445E-04    1.34      44.9  T
  11    -42.4417950 -0.262153E-08  0.143E-04    1.34     140.1  T
     SCC iter.                  ...        0 min,  0.015 sec
     gradient                   ...        0 min,  0.014 sec
 * total energy  :   -72.6433601 Eh     change       -0.5250724E-01 Eh
   gradient norm :     0.7220649 Eh/α   predicted    -0.3813946E-01 ( -27.36%)
   displ. norm   :     0.5793721 α      lambda       -0.9253989E-01
   maximum displ.:     0.1857202 α      in ANC's #66, #24, #46, ...

........................................................................
.............................. CYCLE   17 ..............................
........................................................................

 iter      E             dE          RMSdq      gap      omega  full diag
   1    -42.5130574 -0.425131E+02  0.102E+00    1.68       0.0  T
   2    -42.5052759  0.778155E-02  0.866E-01    1.35       1.0  T
   3    -42.5244562 -0.191803E-01  0.439E-01    1.74       1.0  T
   4    -42.5259513 -0.149510E-02  0.258E-01    1.59       1.0  T
   5    -42.5272145 -0.126319E-02  0.671E-02    1.66       1.0  T
   6    -42.5273042 -0.897613E-04  0.166E-02    1.64       1.2  T
   7    -42.5273037  0.503639E-06  0.147E-02    1.64       1.4  T
   8    -42.5273077 -0.391639E-05  0.427E-03    1.64       4.7  T
   9    -42.5273080 -0.320659E-06  0.223E-03    1.64       9.0  T
  10    -42.5273081 -0.953599E-07  0.588E-04    1.64      34.0  T
  11    -42.5273081 -0.233165E-08  0.238E-04    1.64      84.0  T
     SCC iter.                  ...        0 min,  0.015 sec
     gradient                   ...        0 min,  0.013 sec
 * total energy  :   -72.7100716 Eh     change       -0.6671155E-01 Eh
   gradient norm :     0.3790326 Eh/α   predicted    -0.6180351E-01 (  -7.36%)
   displ. norm   :     0.5268926 α      lambda       -0.4178476E-01
   maximum displ.:     0.1575125 α      in ANC's #52, #46, #24, ...

........................................................................
.............................. CYCLE   18 ..............................
........................................................................

 iter      E             dE          RMSdq      gap      omega  full diag
   1    -42.5582028 -0.425582E+02  0.810E-01    1.73       0.0  T
   2    -42.5576699  0.532864E-03  0.538E-01    1.49       1.0  T
   3    -42.5623624 -0.469245E-02  0.375E-01    1.75       1.0  T
   4    -42.5636291 -0.126673E-02  0.216E-01    1.63       1.0  T
   5    -42.5644999 -0.870853E-03  0.508E-02    1.68       1.0  T
   6    -42.5645630 -0.630934E-04  0.120E-02    1.66       1.7  T
   7    -42.5645631 -0.442199E-07  0.124E-02    1.67       1.6  T
   8    -42.5645660 -0.292472E-05  0.306E-03    1.67       6.5  T
   9    -42.5645662 -0.241254E-06  0.140E-03    1.67      14.3  T
  10    -42.5645663 -0.313826E-07  0.356E-04    1.67      56.2  T
  11    -42.5645663 -0.141216E-08  0.150E-04    1.67     133.2  T
     SCC iter.                  ...        0 min,  0.015 sec
     gradient                   ...        0 min,  0.013 sec
 * total energy  :   -72.7373060 Eh     change       -0.2723438E-01 Eh
   gradient norm :     0.3031464 Eh/α   predicted    -0.2669217E-01 (  -1.99%)
   displ. norm   :     0.1927815 α      lambda       -0.1238877E-01
   maximum displ.:     0.0544227 α      in ANC's #30, #21, #46, ...

........................................................................
.............................. CYCLE   19 ..............................
........................................................................

 iter      E             dE          RMSdq      gap      omega  full diag
   1    -42.5755241 -0.425755E+02  0.236E-01    1.72       0.0  T
   2    -42.5754708  0.533438E-04  0.181E-01    1.65       1.0  T
   3    -42.5759313 -0.460556E-03  0.116E-01    1.71       1.0  T
   4    -42.5760755 -0.144169E-03  0.637E-02    1.68       1.0  T
   5    -42.5761286 -0.531021E-04  0.241E-02    1.70       1.0  T
   6    -42.5761427 -0.141081E-04  0.558E-03    1.69       3.6  T
   7    -42.5761432 -0.513763E-06  0.430E-03    1.69       4.7  T
   8    -42.5761436 -0.331302E-06  0.123E-03    1.69      16.3  T
   9    -42.5761436 -0.280083E-07  0.325E-04    1.69      61.5  T
  10    -42.5761436 -0.161459E-08  0.143E-04    1.69     139.6  T
     SCC iter.                  ...        0 min,  0.013 sec
     gradient                   ...        0 min,  0.013 sec
 * total energy  :   -72.7465732 Eh     change       -0.9267169E-02 Eh
   gradient norm :     0.2718460 Eh/α   predicted    -0.6425041E-02 ( -30.67%)
   displ. norm   :     0.2000479 α      lambda       -0.1911036E-01
   maximum displ.:     0.0599804 α      in ANC's #32, #21, #50, ...

........................................................................
.............................. CYCLE   20 ..............................
........................................................................

 iter      E             dE          RMSdq      gap      omega  full diag
   1    -42.5942510 -0.425943E+02  0.248E-01    1.77       0.0  T
   2    -42.5944488 -0.197844E-03  0.239E-01    1.75       1.0  T
   3    -42.5954302 -0.981393E-03  0.112E-01    1.78       1.0  T
   4    -42.5952933  0.136881E-03  0.926E-02    1.74       1.0  T
   5    -42.5954649 -0.171571E-03  0.284E-02    1.78       1.0  T
   6    -42.5954850 -0.200771E-04  0.755E-03    1.77       2.7  T
   7    -42.5954854 -0.448468E-06  0.540E-03    1.77       3.7  T
   8    -42.5954859 -0.527922E-06  0.129E-03    1.77      15.5  T
   9    -42.5954860 -0.196919E-07  0.354E-04    1.77      56.4  T
  10    -42.5954860 -0.856367E-09  0.198E-04    1.77     101.1  T
     SCC iter.                  ...        0 min,  0.013 sec
     gradient                   ...        0 min,  0.013 sec
 * total energy  :   -72.7589746 Eh     change       -0.1240143E-01 Eh
   gradient norm :     0.2142519 Eh/α   predicted    -0.9937344E-02 ( -19.87%)
   displ. norm   :     0.1842977 α      lambda       -0.1104357E-01
   maximum displ.:     0.0760223 α      in ANC's #66, #67, #21, ...
 * RMSD in coord.:     1.2827479 α      energy gain  -0.2973510E+02 Eh

generating ANC from model Hessian ...
Using Lindh-Hessian (1995)
 Shifting diagonal of input Hessian by    8.5113066557357502E-003
 Lowest  eigenvalues of input Hessian
    0.000000    0.000000    0.000000    0.000000    0.000000    0.000000
    0.010000    0.011834    0.013627    0.013749    0.015361    0.017661
    0.017905    0.020681    0.021395    0.023093    0.026774    0.032936
 Highest eigenvalues
    2.046038    2.150007    2.322497    2.530346   21.634549   26.925333


........................................................................
.............................. CYCLE   21 ..............................
........................................................................

 iter      E             dE          RMSdq      gap      omega  full diag
   1    -42.6207521 -0.426208E+02  0.309E-01    2.10       0.0  T
   2    -42.6197968  0.955305E-03  0.306E-01    1.78       1.0  T
   3    -42.6225793 -0.278249E-02  0.120E-01    2.01       1.0  T
   4    -42.6226583 -0.790484E-04  0.767E-02    1.98       1.0  T
   5    -42.6227453 -0.869772E-04  0.195E-02    1.97       1.0  T
   6    -42.6227561 -0.107876E-04  0.665E-03    1.97       3.0  T
   7    -42.6227568 -0.718958E-06  0.276E-03    1.97       7.3  T
   8    -42.6227568 -0.143322E-07  0.100E-03    1.98      19.9  T
   9    -42.6227568 -0.194115E-07  0.263E-04    1.98      76.2  T
  10    -42.6227568 -0.672870E-09  0.155E-04    1.98     129.0  T
     SCC iter.                  ...        0 min,  0.013 sec
     gradient                   ...        0 min,  0.013 sec
 * total energy  :   -72.7645009 Eh     change       -0.5526301E-02 Eh
   gradient norm :     0.4359644 Eh/α   predicted     0.0000000E+00 (-100.00%)
   displ. norm   :     0.3564678 α      lambda       -0.1088300E+00
   maximum displ.:     0.1493803 α      in ANC's #63, #59, #45, ...

........................................................................
.............................. CYCLE   22 ..............................
........................................................................

 iter      E             dE          RMSdq      gap      omega  full diag
   1    -42.6383101 -0.426383E+02  0.449E-01    2.15       0.0  T
   2    -42.6385899 -0.279782E-03  0.284E-01    2.16       1.0  T
   3    -42.6385794  0.105180E-04  0.238E-01    2.13       1.0  T
   4    -42.6394776 -0.898196E-03  0.799E-02    2.16       1.0  T
   5    -42.6395641 -0.865364E-04  0.210E-02    2.16       1.0  T
   6    -42.6395726 -0.848534E-05  0.816E-03    2.16       2.5  T
   7    -42.6395728 -0.123149E-06  0.233E-03    2.16       8.6  T
   8    -42.6395729 -0.114626E-06  0.868E-04    2.16      23.1  T
   9    -42.6395729 -0.677367E-08  0.482E-04    2.16      41.5  T
     SCC iter.                  ...        0 min,  0.012 sec
     gradient                   ...        0 min,  0.013 sec
 * total energy  :   -70.6478617 Eh     change        0.2116639E+01 Eh
   gradient norm :    26.9403555 Eh/α   predicted    -0.6134003E-01 (-102.90%)
   displ. norm   :     0.2009067 α      lambda       -0.5406544E+01
   maximum displ.:     0.1401332 α      in ANC's #59, #63, #45, ...

........................................................................
.............................. CYCLE   23 ..............................
........................................................................

 iter      E             dE          RMSdq      gap      omega  full diag
   1    -42.6494875 -0.426495E+02  0.286E-01    2.19       0.0  T
   2    -42.6493200  0.167540E-03  0.189E-01    2.08       1.0  T
   3    -42.6496630 -0.342991E-03  0.149E-01    2.19       1.0  T
   4    -42.6500124 -0.349391E-03  0.483E-02    2.18       1.0  T
   5    -42.6500554 -0.430318E-04  0.130E-02    2.17       1.5  T
   6    -42.6500569 -0.151394E-05  0.699E-03    2.17       2.9  T
   7    -42.6500576 -0.708219E-06  0.267E-03    2.17       7.5  T
   8    -42.6500577 -0.667280E-07  0.626E-04    2.17      32.0  T
   9    -42.6500577 -0.132562E-08  0.368E-04    2.17      54.3  T
     SCC iter.                  ...        0 min,  0.012 sec
     gradient                   ...        0 min,  0.013 sec
 * total energy  :   -72.7852832 Eh     change       -0.2137422E+01 Eh
   gradient norm :     0.4287232 Eh/α   predicted    -0.2812386E+01 (  31.58%)
   displ. norm   :     0.5752251 α      lambda       -0.2512789E-01
   maximum displ.:     0.2508985 α      in ANC's #7, #9, #2, ...

........................................................................
.............................. CYCLE   24 ..............................
........................................................................

 iter      E             dE          RMSdq      gap      omega  full diag
   1    -42.6626755 -0.426627E+02  0.489E-01    2.30       0.0  T
   2    -42.6630836 -0.408137E-03  0.319E-01    2.30       1.0  T
   3    -42.6628305  0.253183E-03  0.229E-01    2.31       1.0  T
   4    -42.6635184 -0.687965E-03  0.916E-02    2.31       1.0  T
   5    -42.6637007 -0.182232E-03  0.184E-02    2.34       1.1  T
   6    -42.6637070 -0.635597E-05  0.662E-03    2.33       3.0  T
   7    -42.6637070 -0.155651E-09  0.266E-03    2.33       7.5  T
   8    -42.6637072 -0.152317E-06  0.633E-04    2.33      31.6  T
   9    -42.6637072 -0.490154E-08  0.367E-04    2.33      54.4  T
     SCC iter.                  ...        0 min,  0.012 sec
     gradient                   ...        0 min,  0.013 sec
 * total energy  :   -72.8056578 Eh     change       -0.2037463E-01 Eh
   gradient norm :     0.2243453 Eh/α   predicted    -0.1672248E-01 ( -17.92%)
   displ. norm   :     0.5966453 α      lambda       -0.2673985E-01
   maximum displ.:     0.2469162 α      in ANC's #18, #7, #13, ...

........................................................................
.............................. CYCLE   25 ..............................
........................................................................

 iter      E             dE          RMSdq      gap      omega  full diag
   1    -42.6787606 -0.426788E+02  0.607E-01    2.44       0.0  T
   2    -42.6797127 -0.952093E-03  0.399E-01    2.29       1.0  T
   3    -42.6796451  0.675659E-04  0.268E-01    2.41       1.0  T
   4    -42.6803947 -0.749612E-03  0.119E-01    2.32       1.0  T
   5    -42.6806541 -0.259342E-03  0.306E-02    2.35       1.0  T
   6    -42.6806762 -0.221540E-04  0.105E-02    2.34       1.9  T
   7    -42.6806767 -0.479389E-06  0.470E-03    2.34       4.3  T
   8    -42.6806772 -0.476040E-06  0.934E-04    2.34      21.4  T
   9    -42.6806772 -0.135076E-07  0.405E-04    2.34      49.4  T
     SCC iter.                  ...        0 min,  0.012 sec
     gradient                   ...        0 min,  0.013 sec
 * total energy  :   -72.8231995 Eh     change       -0.1754173E-01 Eh
   gradient norm :     0.5714886 Eh/α   predicted    -0.1812963E-01 (   3.35%)
   displ. norm   :     0.3991060 α      lambda       -0.9235607E-02
   maximum displ.:     0.1904023 α      in ANC's #7, #2, #4, ...

........................................................................
.............................. CYCLE   26 ..............................
........................................................................

 iter      E             dE          RMSdq      gap      omega  full diag
   1    -42.6821466 -0.426821E+02  0.372E-01    2.34       0.0  T
   2    -42.6822462 -0.995872E-04  0.216E-01    2.26       1.0  T
   3    -42.6818172  0.428993E-03  0.162E-01    2.35       1.0  T
   4    -42.6823148 -0.497653E-03  0.400E-02    2.28       1.0  T
   5    -42.6823514 -0.365843E-04  0.137E-02    2.29       1.5  T
   6    -42.6823550 -0.355111E-05  0.480E-03    2.29       4.2  T
   7    -42.6823550 -0.264644E-07  0.251E-03    2.29       8.0  T
   8    -42.6823551 -0.134525E-06  0.374E-04    2.29      53.4  T
   9    -42.6823551 -0.557051E-09  0.217E-04    2.29      92.3  T
     SCC iter.                  ...        0 min,  0.012 sec
     gradient                   ...        0 min,  0.013 sec
 * total energy  :   -72.8305050 Eh     change       -0.7305440E-02 Eh
   gradient norm :     0.5897598 Eh/α   predicted    -0.5353366E-02 ( -26.72%)
   displ. norm   :     0.4765065 α      lambda       -0.1492814E-01
   maximum displ.:     0.2071879 α      in ANC's #18, #4, #39, ...

........................................................................
.............................. CYCLE   27 ..............................
........................................................................

 iter      E             dE          RMSdq      gap      omega  full diag
   1    -42.6947826 -0.426948E+02  0.423E-01    2.22       0.0  T
   2    -42.6948540 -0.714100E-04  0.241E-01    2.19       1.0  T
   3    -42.6944006  0.453416E-03  0.154E-01    2.17       1.0  T
   4    -42.6948803 -0.479745E-03  0.413E-02    2.21       1.0  T
   5    -42.6949230 -0.427079E-04  0.122E-02    2.18       1.6  T
   6    -42.6949252 -0.214885E-05  0.547E-03    2.19       3.7  T
   7    -42.6949252 -0.154799E-07  0.239E-03    2.19       8.4  T
   8    -42.6949254 -0.155925E-06  0.449E-04    2.19      44.6  T
   9    -42.6949254 -0.140240E-09  0.265E-04    2.19      75.4  T
     SCC iter.                  ...        0 min,  0.012 sec
     gradient                   ...        0 min,  0.013 sec
 * total energy  :   -72.8394630 Eh     change       -0.8958050E-02 Eh
   gradient norm :     0.1721348 Eh/α   predicted    -0.9158846E-02 (   2.24%)
   displ. norm   :     0.4663991 α      lambda       -0.9634390E-02
   maximum displ.:     0.1726172 α      in ANC's #18, #2, #7, ...

........................................................................
.............................. CYCLE   28 ..............................
........................................................................

 iter      E             dE          RMSdq      gap      omega  full diag
   1    -42.7056124 -0.427056E+02  0.447E-01    2.26       0.0  T
   2    -42.7056104  0.195033E-05  0.277E-01    2.19       1.0  T
   3    -42.7044576  0.115276E-02  0.263E-01    2.32       1.0  T
   4    -42.7059361 -0.147849E-02  0.281E-02    2.22       1.0  T
   5    -42.7059636 -0.274444E-04  0.100E-02    2.23       2.0  T
   6    -42.7059648 -0.120589E-05  0.453E-03    2.23       4.4  T
   7    -42.7059649 -0.842486E-07  0.202E-03    2.23       9.9  T
   8    -42.7059649 -0.643604E-07  0.330E-04    2.23      60.7  T
   9    -42.7059649 -0.147935E-09  0.167E-04    2.23     119.7  T
     SCC iter.                  ...        0 min,  0.012 sec
     gradient                   ...        0 min,  0.013 sec
 * total energy  :   -72.8444333 Eh     change       -0.4970267E-02 Eh
   gradient norm :     0.0944875 Eh/α   predicted    -0.5865075E-02 (  18.00%)
   displ. norm   :     0.4138453 α      lambda       -0.8872760E-02
   maximum displ.:     0.1990727 α      in ANC's #18, #2, #4, ...

........................................................................
.............................. CYCLE   29 ..............................
........................................................................

 iter      E             dE          RMSdq      gap      omega  full diag
   1    -42.7150275 -0.427150E+02  0.331E-01    2.25       0.0  T
   2    -42.7150538 -0.263393E-04  0.208E-01    2.24       1.0  T
   3    -42.7147385  0.315327E-03  0.140E-01    2.26       1.0  T
   4    -42.7151514 -0.412857E-03  0.314E-02    2.23       1.0  T
   5    -42.7151708 -0.194590E-04  0.124E-02    2.24       1.6  T
   6    -42.7151719 -0.103381E-05  0.447E-03    2.24       4.5  T
   7    -42.7151721 -0.263733E-06  0.912E-04    2.24      21.9  T
   8    -42.7151721 -0.105916E-07  0.331E-04    2.24      60.3  T
     SCC iter.                  ...        0 min,  0.011 sec
     gradient                   ...        0 min,  0.013 sec
 * total energy  :   -72.8497665 Eh     change       -0.5333185E-02 Eh
   gradient norm :     0.3552272 Eh/α   predicted    -0.5196198E-02 (  -2.57%)
   displ. norm   :     0.3289540 α      lambda       -0.7519465E-02
   maximum displ.:     0.1908730 α      in ANC's #2, #4, #18, ...

........................................................................
.............................. CYCLE   30 ..............................
........................................................................

 iter      E             dE          RMSdq      gap      omega  full diag
   1    -42.7252095 -0.427252E+02  0.270E-01    2.21       0.0  T
   2    -42.7256085 -0.398962E-03  0.187E-01    2.33       1.0  T
   3    -42.7258528 -0.244291E-03  0.101E-01    2.28       1.0  T
   4    -42.7258737 -0.209192E-04  0.453E-02    2.30       1.0  T
   5    -42.7259001 -0.264335E-04  0.162E-02    2.29       1.2  T
   6    -42.7259065 -0.641175E-05  0.370E-03    2.29       5.4  T
   7    -42.7259066 -0.241863E-07  0.221E-03    2.29       9.0  T
   8    -42.7259066 -0.420306E-07  0.304E-04    2.29      65.8  T
   9    -42.7259066 -0.120463E-08  0.140E-04    2.29     142.6  T
     SCC iter.                  ...        0 min,  0.012 sec
     gradient                   ...        0 min,  0.013 sec
 * total energy  :   -72.8533837 Eh     change       -0.3617231E-02 Eh
   gradient norm :     0.0652112 Eh/α   predicted    -0.4166606E-02 (  15.19%)
   displ. norm   :     0.4380472 α      lambda       -0.4663493E-02
   maximum displ.:     0.2138724 α      in ANC's #2, #18, #7, ...

........................................................................
.............................. CYCLE   31 ..............................
........................................................................

 iter      E             dE          RMSdq      gap      omega  full diag
   1    -42.7193240 -0.427193E+02  0.370E-01    2.26       0.0  T
   2    -42.7193434 -0.194047E-04  0.218E-01    2.25       1.0  T
   3    -42.7189449  0.398551E-03  0.125E-01    2.29       1.0  T
   4    -42.7193799 -0.435028E-03  0.126E-02    2.25       1.6  T
   5    -42.7193824 -0.250722E-05  0.631E-03    2.26       3.2  T
   6    -42.7193825 -0.592912E-07  0.256E-03    2.26       7.8  T
   7    -42.7193826 -0.114191E-06  0.485E-04    2.26      41.2  T
   8    -42.7193826 -0.246885E-08  0.205E-04    2.26      97.8  T
     SCC iter.                  ...        0 min,  0.011 sec
     gradient                   ...        0 min,  0.013 sec
 * total energy  :   -72.8564747 Eh     change       -0.3090964E-02 Eh
   gradient norm :     0.1512171 Eh/α   predicted    -0.2779166E-02 ( -10.09%)
   displ. norm   :     0.3467693 α      lambda       -0.3858104E-02
   maximum displ.:     0.1285014 α      in ANC's #1, #2, #18, ...

........................................................................
.............................. CYCLE   32 ..............................
........................................................................

 iter      E             dE          RMSdq      gap      omega  full diag
   1    -42.7317257 -0.427317E+02  0.261E-01    2.26       0.0  T
   2    -42.7318540 -0.128358E-03  0.161E-01    2.26       1.0  T
   3    -42.7317667  0.873146E-04  0.705E-02    2.28       1.0  T
   4    -42.7318710 -0.104247E-03  0.272E-02    2.25       1.0  T
   5    -42.7318862 -0.152176E-04  0.671E-03    2.26       3.0  T
   6    -42.7318868 -0.633011E-06  0.380E-03    2.26       5.3  T
   7    -42.7318870 -0.140223E-06  0.893E-04    2.26      22.4  T
   8    -42.7318870 -0.738481E-08  0.199E-04    2.26     100.5  T
     SCC iter.                  ...        0 min,  0.011 sec
     gradient                   ...        0 min,  0.013 sec
 * total energy  :   -72.8581144 Eh     change       -0.1639775E-02 Eh
   gradient norm :     0.3168208 Eh/α   predicted    -0.2161018E-02 (  31.79%)
   displ. norm   :     0.3447299 α      lambda       -0.3960600E-02
   maximum displ.:     0.1597632 α      in ANC's #2, #13, #18, ...

........................................................................
.............................. CYCLE   33 ..............................
........................................................................

 iter      E             dE          RMSdq      gap      omega  full diag
   1    -42.7189494 -0.427189E+02  0.300E-01    2.27       0.0  T
   2    -42.7191072 -0.157774E-03  0.191E-01    2.18       1.0  T
   3    -42.7189124  0.194790E-03  0.126E-01    2.26       1.0  T
   4    -42.7191957 -0.283314E-03  0.376E-02    2.21       1.0  T
   5    -42.7192294 -0.337250E-04  0.885E-03    2.21       2.3  T
   6    -42.7192311 -0.162836E-05  0.412E-03    2.21       4.9  T
   7    -42.7192311 -0.758894E-07  0.160E-03    2.21      12.5  T
   8    -42.7192312 -0.401549E-07  0.208E-04    2.21      96.1  T
   9    -42.7192312 -0.298087E-09  0.116E-04    2.21     172.3  T
     SCC iter.                  ...        0 min,  0.012 sec
     gradient                   ...        0 min,  0.013 sec
 * total energy  :   -72.8582156 Eh     change       -0.1011632E-03 Eh
   gradient norm :     0.1896277 Eh/α   predicted    -0.2215654E-02 (2090.18%)
   displ. norm   :     0.1572586 α      lambda       -0.3502964E-02
   maximum displ.:     0.0802962 α      in ANC's #1, #12, #13, ...

........................................................................
.............................. CYCLE   34 ..............................
........................................................................

 iter      E             dE          RMSdq      gap      omega  full diag
   1    -42.7277481 -0.427277E+02  0.153E-01    2.15       0.0  T
   2    -42.7278913 -0.143174E-03  0.120E-01    2.26       1.0  T
   3    -42.7280172 -0.125898E-03  0.666E-02    2.20       1.0  T
   4    -42.7280282 -0.109603E-04  0.371E-02    2.22       1.0  T
   5    -42.7280466 -0.184353E-04  0.939E-03    2.22       2.1  T
   6    -42.7280486 -0.199894E-05  0.235E-03    2.22       8.5  T
   7    -42.7280486 -0.253913E-07  0.116E-03    2.22      17.2  T
   8    -42.7280486 -0.173199E-07  0.231E-04    2.22      86.4  T
   9    -42.7280486 -0.329067E-09  0.110E-04    2.22     181.8  T
     SCC iter.                  ...        0 min,  0.012 sec
     gradient                   ...        0 min,  0.013 sec
 * total energy  :   -72.8598832 Eh     change       -0.1667631E-02 Eh
   gradient norm :     0.0453692 Eh/α   predicted    -0.1794819E-02 (   7.63%)
   displ. norm   :     0.1924640 α      lambda       -0.1250757E-02
   maximum displ.:     0.1221518 α      in ANC's #2, #4, #39, ...

........................................................................
.............................. CYCLE   35 ..............................
........................................................................

 iter      E             dE          RMSdq      gap      omega  full diag
   1    -42.7298735 -0.427299E+02  0.139E-01    2.22       0.0  T
   2    -42.7298752 -0.172642E-05  0.847E-02    2.20       1.0  T
   3    -42.7297867  0.885019E-04  0.672E-02    2.23       1.0  T
   4    -42.7298960 -0.109293E-03  0.855E-03    2.21       2.3  T
   5    -42.7298976 -0.156267E-05  0.294E-03    2.21       6.8  T
   6    -42.7298976 -0.666236E-07  0.159E-03    2.21      12.6  T
   7    -42.7298977 -0.179409E-07  0.290E-04    2.21      69.0  T
   8    -42.7298977 -0.152894E-08  0.997E-05    2.21     200.5  T
     SCC iter.                  ...        0 min,  0.011 sec
     gradient                   ...        0 min,  0.013 sec
 * total energy  :   -72.8600644 Eh     change       -0.1811778E-03 Eh
   gradient norm :     0.2023627 Eh/α   predicted    -0.6485528E-03 ( 257.96%)
   displ. norm   :     0.1028632 α      lambda       -0.1097010E-02
   maximum displ.:     0.0646530 α      in ANC's #1, #18, #6, ...

........................................................................
.............................. CYCLE   36 ..............................
........................................................................

 iter      E             dE          RMSdq      gap      omega  full diag
   1    -42.7338125 -0.427338E+02  0.622E-02    2.21       0.0  T
   2    -42.7338260 -0.134042E-04  0.375E-02    2.22       1.0  T
   3    -42.7338238  0.210973E-05  0.216E-02    2.22       1.0  T
   4    -42.7338280 -0.417385E-05  0.672E-03    2.22       3.0  T
   5    -42.7338294 -0.137772E-05  0.218E-03    2.22       9.2  T
   6    -42.7338295 -0.818716E-07  0.899E-04    2.22      22.2  T
   7    -42.7338295 -0.349494E-08  0.317E-04    2.22      63.2  T
     SCC iter.                  ...        0 min,  0.010 sec
     gradient                   ...        0 min,  0.013 sec
 * total energy  :   -72.8606365 Eh     change       -0.5720306E-03 Eh
   gradient norm :     0.0358623 Eh/α   predicted    -0.5543118E-03 (  -3.10%)
   displ. norm   :     0.2326765 α      lambda       -0.6908504E-03
   maximum displ.:     0.0970701 α      in ANC's #1, #4, #2, ...

........................................................................
.............................. CYCLE   37 ..............................
........................................................................

 iter      E             dE          RMSdq      gap      omega  full diag
   1    -42.7291959 -0.427292E+02  0.181E-01    2.19       0.0  T
   2    -42.7292045 -0.863582E-05  0.105E-01    2.18       1.0  T
   3    -42.7291579  0.466316E-04  0.493E-02    2.20       1.0  T
   4    -42.7292107 -0.527859E-04  0.776E-03    2.18       2.6  T
   5    -42.7292120 -0.130908E-05  0.408E-03    2.19       4.9  T
   6    -42.7292122 -0.223533E-06  0.166E-03    2.18      12.1  T
   7    -42.7292123 -0.295977E-07  0.252E-04    2.18      79.5  T
   8    -42.7292123 -0.888456E-09  0.107E-04    2.18     186.2  T
     SCC iter.                  ...        0 min,  0.011 sec
     gradient                   ...        0 min,  0.013 sec
 * total energy  :   -72.8609925 Eh     change       -0.3560846E-03 Eh
   gradient norm :     0.0413244 Eh/α   predicted    -0.3641292E-03 (   2.26%)
   displ. norm   :     0.2067835 α      lambda       -0.4602174E-03
   maximum displ.:     0.1056623 α      in ANC's #1, #2, #6, ...

........................................................................
.............................. CYCLE   38 ..............................
........................................................................

 iter      E             dE          RMSdq      gap      omega  full diag
   1    -42.7302472 -0.427302E+02  0.127E-01    2.16       0.0  T
   2    -42.7302506 -0.338209E-05  0.723E-02    2.15       1.0  T
   3    -42.7302387  0.118466E-04  0.261E-02    2.16       1.0  T
   4    -42.7302530 -0.142343E-04  0.333E-03    2.16       6.0  T
   5    -42.7302530 -0.792873E-07  0.174E-03    2.16      11.5  T
   6    -42.7302530  0.202823E-07  0.141E-03    2.16      14.2  T
   7    -42.7302531 -0.453879E-07  0.152E-04    2.16     132.0  T
   8    -42.7302531 -0.319673E-09  0.698E-05    2.16     286.4  T
     SCC iter.                  ...        0 min,  0.011 sec
     gradient                   ...        0 min,  0.013 sec
 * total energy  :   -72.8613413 Eh     change       -0.3487226E-03 Eh
   gradient norm :     0.0219291 Eh/α   predicted    -0.2399521E-03 ( -31.19%)
   displ. norm   :     0.3576447 α      lambda       -0.6596303E-03
   maximum displ.:     0.2190403 α      in ANC's #1, #2, #4, ...

........................................................................
.............................. CYCLE   39 ..............................
........................................................................

 iter      E             dE          RMSdq      gap      omega  full diag
   1    -42.7325687 -0.427326E+02  0.210E-01    2.15       0.0  T
   2    -42.7325664  0.227591E-05  0.126E-01    2.13       1.0  T
   3    -42.7323454  0.221008E-03  0.958E-02    2.18       1.0  T
   4    -42.7325950 -0.249609E-03  0.703E-03    2.14       2.8  T
   5    -42.7325957 -0.660485E-06  0.344E-03    2.14       5.8  T
   6    -42.7325957 -0.419009E-07  0.150E-03    2.14      13.3  T
   7    -42.7325958 -0.346378E-07  0.264E-04    2.14      75.8  T
   8    -42.7325958 -0.526889E-09  0.149E-04    2.14     134.5  T
     SCC iter.                  ...        0 min,  0.011 sec
     gradient                   ...        0 min,  0.013 sec
 * total energy  :   -72.8616290 Eh     change       -0.2877353E-03 Eh
   gradient norm :     0.0773230 Eh/α   predicted    -0.3720080E-03 (  29.29%)
   displ. norm   :     0.1132775 α      lambda       -0.3282107E-03
   maximum displ.:     0.0682055 α      in ANC's #1, #6, #2, ...

........................................................................
.............................. CYCLE   40 ..............................
........................................................................

 iter      E             dE          RMSdq      gap      omega  full diag
   1    -42.7331895 -0.427332E+02  0.598E-02    2.13       0.0  T
   2    -42.7331906 -0.112948E-05  0.337E-02    2.12       1.0  T
   3    -42.7331821  0.848630E-05  0.216E-02    2.12       1.0  T
   4    -42.7331920 -0.986185E-05  0.309E-03    2.13       6.5  T
   5    -42.7331921 -0.164345E-06  0.204E-03    2.12       9.8  T
   6    -42.7331922 -0.581202E-07  0.822E-04    2.12      24.3  T
   7    -42.7331922 -0.366637E-08  0.163E-04    2.12     122.8  T
     SCC iter.                  ...        0 min,  0.010 sec
     gradient                   ...        0 min,  0.013 sec
 * total energy  :   -72.8618415 Eh     change       -0.2124600E-03 Eh
   gradient norm :     0.0496109 Eh/α   predicted    -0.1662160E-03 ( -21.77%)
   displ. norm   :     0.1184241 α      lambda       -0.2926265E-03
   maximum displ.:     0.0833404 α      in ANC's #1, #5, #6, ...

........................................................................
.............................. CYCLE   41 ..............................
........................................................................

 iter      E             dE          RMSdq      gap      omega  full diag
   1    -42.7336195 -0.427336E+02  0.529E-02    2.11       0.0  T
   2    -42.7336226 -0.304234E-05  0.312E-02    2.12       1.0  T
   3    -42.7336183  0.426638E-05  0.144E-02    2.11       1.4  T
   4    -42.7336224 -0.408743E-05  0.644E-03    2.12       3.1  T
   5    -42.7336235 -0.108042E-05  0.102E-03    2.11      19.6  T
   6    -42.7336235 -0.169954E-08  0.619E-04    2.11      32.3  T
   7    -42.7336235 -0.390156E-08  0.196E-04    2.11     102.1  T
     SCC iter.                  ...        0 min,  0.010 sec
     gradient                   ...        0 min,  0.013 sec
 * total energy  :   -72.8620035 Eh     change       -0.1620376E-03 Eh
   gradient norm :     0.0376015 Eh/α   predicted    -0.1483712E-03 (  -8.43%)
   displ. norm   :     0.3743170 α      lambda       -0.5106694E-03
   maximum displ.:     0.2232773 α      in ANC's #1, #2, #18, ...

........................................................................
.............................. CYCLE   42 ..............................
........................................................................

 iter      E             dE          RMSdq      gap      omega  full diag
   1    -42.7285093 -0.427285E+02  0.221E-01    2.10       0.0  T
   2    -42.7285112 -0.195424E-05  0.132E-01    2.07       1.0  T
   3    -42.7282959  0.215317E-03  0.967E-02    2.14       1.0  T
   4    -42.7285401 -0.244133E-03  0.914E-03    2.09       2.2  T
   5    -42.7285412 -0.110491E-05  0.436E-03    2.09       4.6  T
   6    -42.7285413 -0.125426E-06  0.232E-03    2.09       8.6  T
   7    -42.7285413 -0.531525E-07  0.416E-04    2.09      48.1  T
   8    -42.7285413 -0.182636E-08  0.233E-04    2.09      85.7  T
     SCC iter.                  ...        0 min,  0.011 sec
     gradient                   ...        0 min,  0.013 sec
 * total energy  :   -72.8621161 Eh     change       -0.1126441E-03 Eh
   gradient norm :     0.0916742 Eh/α   predicted    -0.2911123E-03 ( 158.44%)
   displ. norm   :     0.1626980 α      lambda       -0.4472378E-03
   maximum displ.:     0.1026029 α      in ANC's #1, #2, #18, ...
 * RMSD in coord.:     1.0085583 α      energy gain  -0.1031415E+00 Eh

generating ANC from model Hessian ...
Using Lindh-Hessian (1995)
 Shifting diagonal of input Hessian by    7.6978937742808303E-003
 Lowest  eigenvalues of input Hessian
    0.000000    0.000000    0.000000    0.000000    0.000000    0.000000
    0.010000    0.010734    0.012979    0.013748    0.015892    0.017709
    0.019677    0.020406    0.021845    0.023217    0.023753    0.030395
 Highest eigenvalues
    2.180240    2.373524    2.544745    2.659962   21.317124   27.769596


........................................................................
.............................. CYCLE   43 ..............................
........................................................................

 iter      E             dE          RMSdq      gap      omega  full diag
   1    -42.7338950 -0.427339E+02  0.106E-01    2.13       0.0  T
   2    -42.7339021 -0.710959E-05  0.604E-02    2.13       1.0  T
   3    -42.7338944  0.766895E-05  0.197E-02    2.13       1.0  T
   4    -42.7339029 -0.849511E-05  0.716E-03    2.12       2.8  T
   5    -42.7339042 -0.124308E-05  0.200E-03    2.13      10.0  T
   6    -42.7339042 -0.250850E-07  0.123E-03    2.12      16.2  T
   7    -42.7339042 -0.174308E-07  0.299E-04    2.13      66.8  T
   8    -42.7339042 -0.197304E-08  0.941E-05    2.13     212.6  T
     SCC iter.                  ...        0 min,  0.011 sec
     gradient                   ...        0 min,  0.013 sec
 * total energy  :   -72.8623053 Eh     change       -0.1892006E-03 Eh
   gradient norm :     0.0168097 Eh/α   predicted     0.0000000E+00 (-100.00%)
   displ. norm   :     0.1181528 α      lambda       -0.4860263E-03
   maximum displ.:     0.0459316 α      in ANC's #10, #6, #1, ...

........................................................................
.............................. CYCLE   44 ..............................
........................................................................

 iter      E             dE          RMSdq      gap      omega  full diag
   1    -42.7337342 -0.427337E+02  0.107E-01    2.12       0.0  T
   2    -42.7337365 -0.223103E-05  0.629E-02    2.12       1.0  T
   3    -42.7337329  0.355748E-05  0.131E-02    2.12       1.5  T
   4    -42.7337368 -0.390394E-05  0.469E-03    2.12       4.3  T
   5    -42.7337373 -0.433395E-06  0.224E-03    2.12       8.9  T
   6    -42.7337373 -0.551238E-07  0.784E-04    2.12      25.5  T
   7    -42.7337373 -0.832538E-08  0.208E-04    2.12      96.1  T
     SCC iter.                  ...        0 min,  0.010 sec
     gradient                   ...        0 min,  0.013 sec
 * total energy  :   -72.8613986 Eh     change        0.9067755E-03 Eh
   gradient norm :     0.3556601 Eh/α   predicted    -0.2464234E-03 (-127.18%)
   displ. norm   :     0.2835404 α      lambda       -0.3353125E-02
   maximum displ.:     0.1153604 α      in ANC's #10, #6, #4, ...

........................................................................
.............................. CYCLE   45 ..............................
........................................................................

 iter      E             dE          RMSdq      gap      omega  full diag
   1    -42.7273512 -0.427274E+02  0.259E-01    2.09       0.0  T
   2    -42.7273698 -0.186448E-04  0.152E-01    2.09       1.0  T
   3    -42.7273448  0.250024E-04  0.360E-02    2.09       1.0  T
   4    -42.7273745 -0.296927E-04  0.103E-02    2.09       1.9  T
   5    -42.7273760 -0.148588E-05  0.473E-03    2.09       4.2  T
   6    -42.7273761 -0.693606E-07  0.277E-03    2.09       7.2  T
   7    -42.7273762 -0.186660E-06  0.670E-04    2.09      29.9  T
   8    -42.7273763 -0.600590E-08  0.269E-04    2.09      74.4  T
     SCC iter.                  ...        0 min,  0.011 sec
     gradient                   ...        0 min,  0.013 sec
 * total energy  :   -72.8601222 Eh     change        0.1276365E-02 Eh
   gradient norm :     0.2503120 Eh/α   predicted    -0.1811376E-02 (-241.92%)
   displ. norm   :     0.3431474 α      lambda       -0.5690969E-02
   maximum displ.:     0.1302958 α      in ANC's #10, #6, #13, ...

........................................................................
.............................. CYCLE   46 ..............................
........................................................................

 iter      E             dE          RMSdq      gap      omega  full diag
   1    -42.7348896 -0.427349E+02  0.329E-01    2.12       0.0  T
   2    -42.7349051 -0.154899E-04  0.193E-01    2.12       1.0  T
   3    -42.7348791  0.260221E-04  0.359E-02    2.11       1.0  T
   4    -42.7349099 -0.307632E-04  0.116E-02    2.12       1.7  T
   5    -42.7349115 -0.163768E-05  0.651E-03    2.11       3.1  T
   6    -42.7349121 -0.558874E-06  0.201E-03    2.12       9.9  T
   7    -42.7349121 -0.633656E-07  0.546E-04    2.12      36.7  T
   8    -42.7349121 -0.663171E-09  0.237E-04    2.12      84.5  T
     SCC iter.                  ...        0 min,  0.011 sec
     gradient                   ...        0 min,  0.013 sec
 * total energy  :   -72.8620923 Eh     change       -0.1970076E-02 Eh
   gradient norm :     0.1859655 Eh/α   predicted    -0.3180568E-02 (  61.44%)
   displ. norm   :     0.1102235 α      lambda       -0.1495287E-02
   maximum displ.:     0.0478314 α      in ANC's #6, #1, #7, ...

........................................................................
.............................. CYCLE   47 ..............................
........................................................................

 iter      E             dE          RMSdq      gap      omega  full diag
   1    -42.7346176 -0.427346E+02  0.101E-01    2.12       0.0  T
   2    -42.7346189 -0.124033E-05  0.599E-02    2.11       1.0  T
   3    -42.7345999  0.189878E-04  0.265E-02    2.13       1.0  T
   4    -42.7346206 -0.207190E-04  0.364E-03    2.11       5.5  T
   5    -42.7346207 -0.457111E-07  0.204E-03    2.12       9.8  T
   6    -42.7346207 -0.507963E-07  0.545E-04    2.11      36.7  T
   7    -42.7346207 -0.580930E-08  0.173E-04    2.11     115.4  T
     SCC iter.                  ...        0 min,  0.010 sec
     gradient                   ...        0 min,  0.013 sec
 * total energy  :   -72.8624701 Eh     change       -0.3777928E-03 Eh
   gradient norm :     0.1449115 Eh/α   predicted    -0.7567871E-03 ( 100.32%)
   displ. norm   :     0.0237943 α      lambda       -0.3649025E-03
   maximum displ.:     0.0117348 α      in ANC's #4, #1, #3, ...

........................................................................
.............................. CYCLE   48 ..............................
........................................................................

 iter      E             dE          RMSdq      gap      omega  full diag
   1    -42.7345701 -0.427346E+02  0.173E-02    2.11       0.0  T
   2    -42.7345701 -0.639819E-07  0.103E-02    2.11       1.9  T
   3    -42.7345692  0.921227E-06  0.604E-03    2.12       3.3  T
   4    -42.7345702 -0.100823E-05  0.858E-04    2.11      23.3  T
   5    -42.7345703 -0.165987E-07  0.284E-04    2.11      70.4  T
   6    -42.7345703 -0.312568E-10  0.147E-04    2.11     135.8  T
     SCC iter.                  ...        0 min,  0.008 sec
     gradient                   ...        0 min,  0.013 sec
 * total energy  :   -72.8626747 Eh     change       -0.2045925E-03 Eh
   gradient norm :     0.0121625 Eh/α   predicted    -0.1825689E-03 ( -10.76%)
   displ. norm   :     0.0422541 α      lambda       -0.5819433E-04
   maximum displ.:     0.0292535 α      in ANC's #1, #7, #4, ...

........................................................................
.............................. CYCLE   49 ..............................
........................................................................

 iter      E             dE          RMSdq      gap      omega  full diag
   1    -42.7344455 -0.427344E+02  0.353E-02    2.11       0.0  T
   2    -42.7344457 -0.188948E-06  0.204E-02    2.11       1.0  T
   3    -42.7344439  0.184387E-05  0.838E-03    2.11       2.4  T
   4    -42.7344459 -0.204723E-05  0.109E-03    2.11      18.3  T
   5    -42.7344459 -0.763370E-08  0.523E-04    2.11      38.2  T
   6    -42.7344459 -0.140670E-08  0.183E-04    2.11     109.2  T
     SCC iter.                  ...        0 min,  0.008 sec
     gradient                   ...        0 min,  0.013 sec
 * total energy  :   -72.8627294 Eh     change       -0.5475753E-04 Eh
   gradient norm :     0.0157545 Eh/α   predicted    -0.2915744E-04 ( -46.75%)
   displ. norm   :     0.4287062 α      lambda       -0.5743013E-03
   maximum displ.:     0.2806403 α      in ANC's #1, #7, #5, ...

........................................................................
.............................. CYCLE   50 ..............................
........................................................................

 iter      E             dE          RMSdq      gap      omega  full diag
   1    -42.7314390 -0.427314E+02  0.358E-01    2.08       0.0  T
   2    -42.7314638 -0.248130E-04  0.207E-01    2.06       1.0  T
   3    -42.7312445  0.219308E-03  0.930E-02    2.11       1.0  T
   4    -42.7314883 -0.243800E-03  0.127E-02    2.07       1.6  T
   5    -42.7314902 -0.188851E-05  0.620E-03    2.07       3.2  T
   6    -42.7314904 -0.191296E-06  0.263E-03    2.07       7.6  T
   7    -42.7314905 -0.126646E-06  0.673E-04    2.07      29.7  T
   8    -42.7314905 -0.354063E-08  0.307E-04    2.07      65.2  T
     SCC iter.                  ...        0 min,  0.011 sec
     gradient                   ...        0 min,  0.013 sec
 * total energy  :   -72.8632196 Eh     change       -0.4902254E-03 Eh
   gradient norm :     0.0486954 Eh/α   predicted    -0.3399657E-03 ( -30.65%)
   displ. norm   :     0.6293514 α      lambda       -0.8305171E-03
   maximum displ.:     0.4003976 α      in ANC's #1, #7, #4, ...

........................................................................
.............................. CYCLE   51 ..............................
........................................................................

 iter      E             dE          RMSdq      gap      omega  full diag
   1    -42.7225018 -0.427225E+02  0.515E-01    2.02       0.0  T
   2    -42.7225804 -0.785895E-04  0.299E-01    1.97       1.0  T
   3    -42.7220090  0.571436E-03  0.154E-01    2.07       1.0  T
   4    -42.7226482 -0.639249E-03  0.237E-02    1.99       1.0  T
   5    -42.7226606 -0.123464E-04  0.106E-02    2.00       1.9  T
[...]
N           -1.33336595301473        0.97889465690544       -0.00155431357270
C           -2.22313777538947        2.12296799023029        0.12420126371266
C           -1.95805558063179       -0.25062332234282       -0.10663375157648
O           -3.15173812582203       -0.36735439297623       -0.09240555237940
N           -1.10721125270597       -1.35939785629271       -0.23421394338044
C           -1.72048737864649       -2.66305919453281       -0.39078002519394
H            4.58030636946155       -0.64745162532779        1.09476976693767
H            3.86944842302284        1.33411563989596       -0.34495847873657
H            2.32190659434235        1.79020616812441       -1.28224685036257
H            2.28188547044100       -1.40445983118647        1.40420271864625
H           -1.61712048154753        3.01790953105099        0.24306606450938
H           -2.84833566727134        2.20516116893709       -0.76529441766681
H           -2.87493602277149        1.98520510531049        0.98689254783763
H           -1.39334768120425       -3.33497855740017        0.40223079017911
H           -1.45837284051511       -3.09121207436284       -1.35850498826217
H           -2.80114263557014       -2.53952618343743       -0.33501978429177
H            0.79487261032868       -2.15000257617726       -0.32150374918469

 Bond Distances (Angstroems)
 ---------------------------
C1-N2=1.3098         C1-H16=1.0786        C1-H17=1.0748        N2-C1=1.3098         N2-C3=1.4338         N2-C6=1.4047         
C3-N2=1.4338         C3-N4=1.2415         C3-H18=1.0928        N4-C3=1.2415         N4-H15=0.4032        C5-C6=1.3632         
C5-N13=1.3414        C5-H25=1.0825        C6-N2=1.4047         C6-C5=1.3632         C6-C7=1.4707         C7-C6=1.4707         
C7-O8=1.2114         C7-N9=1.3783         O8-C7=1.2114         N9-C7=1.3783         N9-C10=1.4548        N9-C11=1.3831        
C10-N9=1.4548        C10-H19=1.0873       C10-H20=1.0903       C10-H21=1.0900       C11-N9=1.3831        C11-O12=1.1995       
C11-N13=1.4034       O12-C11=1.1995       N13-C5=1.3414        N13-C11=1.4034       N13-C14=1.4492       C14-N13=1.4492       
C14-H22=1.0897       C14-H23=1.0902       C14-H24=1.0891       H15-N4=0.4032        H16-C1=1.0786        H17-C1=1.0748        
H18-C3=1.0928        H19-C10=1.0873       H20-C10=1.0903       H21-C10=1.0900       H22-C14=1.0897       H23-C14=1.0902       
H24-C14=1.0891       H25-C5=1.0825        
 C  H  Rav=1.0865 sigma=0.0056  Rmin=1.0748  Rmax=1.0928    10
 C  C  Rav=1.4169 sigma=0.0538  Rmin=1.3632  Rmax=1.4707     2
 N  H  Rav=0.4032 sigma=0.0000  Rmin=0.4032  Rmax=0.4032     1
 N  C  Rav=1.3800 sigma=0.0633  Rmin=1.2415  Rmax=1.4548    10
 O  C  Rav=1.2054 sigma=0.0060  Rmin=1.1995  Rmax=1.2114     2

 selected bond angles (degree)
 --------------------
H16-C1-N2=118.39               H17-C1-N2=121.51               H17-C1-H16=120.11              C3-N2-C1=120.17                
C6-N2-C1=121.05                C6-N2-C3=118.37                N4-C3-N2=122.85                H18-C3-N2=111.42               
H18-C3-N4=125.72               H15-N4-C3=176.40               N13-C5-C6=121.92               H25-C5-C6=121.90               
H25-C5-N13=116.14              C5-C6-N2=123.53                C7-C6-N2=116.34                C7-C6-C5=120.04                
O8-C7-C6=122.89                N9-C7-C6=114.05                N9-C7-O8=123.05                C10-N9-C7=118.38               
C11-N9-C7=126.19               C11-N9-C10=115.43              H19-C10-N9=108.41              H20-C10-N9=109.84              
H20-C10-H19=110.29             H21-C10-N9=109.56              H21-C10-H19=110.54             H21-C10-H20=108.20             

 selected dihedral angles (degree)
 ---------------------------------
C3-N2-C1-H16=357.19           C3-N2-C1-H17=177.66           C6-N2-C1-H16=169.80           C6-N2-C1-H17=350.27           
N4-C3-N2-C1=352.10            N4-C3-N2-C6=179.29            H18-C3-N2-C1=171.00           H18-C3-N2-C6=358.19           
H15-N4-C3-N2=166.22           H15-N4-C3-H18=347.47          C5-C6-N2-C1=143.19            C5-C6-N2-C3=315.94            
C7-C6-N2-C1=319.81            C7-C6-N2-C3=132.55            N2-C6-C5-N13=176.06           N2-C6-C5-H25=353.86           
C7-C6-C5-N13=359.57           C7-C6-C5-H25=177.36           O8-C7-C6-N2=  4.95            O8-C7-C6-C5=181.69            
N9-C7-C6-N2=185.94            N9-C7-C6-C5=  2.68            C10-N9-C7-C6=178.11           C10-N9-C7-O8=359.10           
C11-N9-C7-C6=357.18           C11-N9-C7-O8=178.17           H19-C10-N9-C7=356.66          H19-C10-N9-C11=177.50         
H20-C10-N9-C7=117.23          H20-C10-N9-C11=298.07         H21-C10-N9-C7=235.95          H21-C10-N9-C11= 56.79         
           -------------------------------------------------
          |                Final Singlepoint                |
           -------------------------------------------------

          ...................................................
          :                      SETUP                      :
          :.................................................:
          :  # basis functions                  67          :
          :  # atomic orbitals                  67          :
          :  # shells                           39          :
          :  # electrons                        74          :
          :  max. iterations                   250          :
          :  Hamiltonian                  GFN2-xTB          :
          :  restarted?                      false          :
          :  GBSA solvation                  false          :
          :  PC potential                    false          :
          :  electronic temp.         5000.0000000     K    :
          :  accuracy                    1.0000000          :
          :  -> integral cutoff          0.2500000E+02      :
          :  -> integral neglect         0.1000000E-07      :
          :  -> SCF convergence          0.1000000E-05 Eh   :
          :  -> wf. convergence          0.1000000E-03 e    :
          :  Broyden damping             0.4000000          :
          ...................................................

 iter      E             dE          RMSdq      gap      omega  full diag
   1    -42.7403076 -0.427403E+02  0.515E-05    1.76       0.0  T
   2    -42.7403076 -0.105089E-10  0.390E-05    1.76     512.4  T
   3    -42.7403076 -0.365077E-10  0.186E-05    1.76    1076.9  T

   *** convergence criteria satisfied after 3 iterations ***

         #    Occupation            Energy/Eh            Energy/eV
      -------------------------------------------------------------
         1        2.0000           -0.8860736             -24.1113
       ...           ...                  ...                  ...
        31        1.9982           -0.6263636             -17.0442
        32        1.9949           -0.6101710             -16.6036
        33        1.9770           -0.5860259             -15.9466
        34        1.9615           -0.5777570             -15.7216
        35        1.9489           -0.5731777             -15.5970
        36        1.9299           -0.5680044             -15.4562
        37        1.8452           -0.5547513             -15.0956 (HOMO)
        38        0.3335           -0.4900366             -13.3346 (LUMO)
        39        0.0124           -0.4350666             -11.8388
        40        0.0018           -0.4040457             -10.9946
        41        0.0004           -0.3807435             -10.3606
        42        0.0000           -0.3041633              -8.2767
       ...           ...                  ...                  ...
        67                          7.1957606             195.8066
      -------------------------------------------------------------
                  HL-Gap            0.0647147 Eh            1.7610 eV
             Fermi-level           -0.5155097 Eh          -14.0277 eV

 SCC (total)                   0 d,  0 h,  0 min,  0.023 sec
 SCC setup                      ...        0 min,  0.000 sec (  0.869%)
 Dispersion                     ...        0 min,  0.000 sec (  0.756%)
 classical contributions        ...        0 min,  0.000 sec (  0.312%)
 integral evaluation            ...        0 min,  0.005 sec ( 19.730%)
 iterations                     ...        0 min,  0.005 sec ( 20.248%)
 molecular gradient             ...        0 min,  0.013 sec ( 57.488%)
 printout                       ...        0 min,  0.000 sec (  0.550%)

         :::::::::::::::::::::::::::::::::::::::::::::::::::::
         ::                     SUMMARY                     ::
         :::::::::::::::::::::::::::::::::::::::::::::::::::::
         :: total energy             -72.871815641892 Eh    ::
         :: gradient norm              0.003519085135 Eh/a0 ::
         :: HOMO-LUMO gap              1.760977043396 eV    ::
         ::.................................................::
         :: SCC energy               -42.740307559983 Eh    ::
         :: -> isotropic ES            0.138041561269 Eh    ::
         :: -> anisotropic ES         -0.008758545256 Eh    ::
         :: -> anisotropic XC          0.018016229277 Eh    ::
         :: -> dispersion             -0.021966252157 Eh    ::
         :: repulsion energy           2.628830196443 Eh    ::
         :: add. restraining         -32.760433594260 Eh    ::
         :: total charge               1.000000000188 e     ::
         :::::::::::::::::::::::::::::::::::::::::::::::::::::

           -------------------------------------------------
          |                Property Printout                |
           -------------------------------------------------

    * Orbital Energies and Occupations

         #    Occupation            Energy/Eh            Energy/eV
      -------------------------------------------------------------
         1        2.0000           -0.8860736             -24.1113
       ...           ...                  ...                  ...
        25        1.9999           -0.6774107             -18.4333
        26        1.9999           -0.6672437             -18.1566
        27        1.9997           -0.6539796             -17.7957
        28        1.9995           -0.6465216             -17.5927
        29        1.9992           -0.6385738             -17.3765
        30        1.9983           -0.6278724             -17.0853
        31        1.9982           -0.6263636             -17.0442
        32        1.9949           -0.6101710             -16.6036
        33        1.9770           -0.5860259             -15.9466
        34        1.9615           -0.5777570             -15.7216
        35        1.9489           -0.5731777             -15.5970
        36        1.9299           -0.5680044             -15.4562
        37        1.8452           -0.5547513             -15.0956 (HOMO)
        38        0.3335           -0.4900366             -13.3346 (LUMO)
        39        0.0124           -0.4350666             -11.8388
        40        0.0018           -0.4040457             -10.9946
        41        0.0004           -0.3807435             -10.3606
        42        0.0000           -0.3041633              -8.2767
        43                         -0.2060373              -5.6066
        44                         -0.1571674              -4.2767
        45                         -0.1329915              -3.6189
        46                         -0.0887465              -2.4149
        47                         -0.0723623              -1.9691
        48                         -0.0284201              -0.7734
       ...                                ...                  ...
        67                          7.1957606             195.8066
      -------------------------------------------------------------
                  HL-Gap            0.0647147 Eh            1.7610 eV
             Fermi-level           -0.5155097 Eh          -14.0277 eV

     #   Z          covCN         q      C6AA      α(0)
     1   6 C        2.810    -0.007    28.182     8.698
     2   7 N        2.739     0.086    19.750     6.600
     3   6 C        2.824     0.110    25.572     8.286
     4   7 N        1.778    -0.244    27.191     7.722
     5   6 C        2.856     0.023    27.493     8.594
     6   6 C        2.923    -0.014    28.373     8.735
     7   6 C        2.772     0.270    22.448     7.760
     8   8 O        0.858    -0.364    20.970     6.140
     9   7 N        2.741    -0.066    22.513     7.047
    10   6 C        3.708    -0.063    21.858     6.682
    11   6 C        2.724     0.316    21.623     7.612
    12   8 O        0.859    -0.345    20.603     6.086
    13   7 N        2.743    -0.011    21.464     6.881
    14   6 C        3.703    -0.079    22.170     6.732
    15   1 H        0.912     0.263     0.830     1.425
    16   1 H        0.926     0.137     1.482     1.904
    17   1 H        0.926     0.145     1.425     1.867
    18   1 H        0.924     0.087     1.904     2.158
    19   1 H        0.925     0.116     1.649     2.008
    20   1 H        0.924     0.106     1.729     2.056
    21   1 H        0.925     0.107     1.723     2.053
    22   1 H        0.925     0.097     1.812     2.105
    23   1 H        0.925     0.099     1.795     2.095
    24   1 H        0.925     0.127     1.556     1.951
    25   1 H        0.925     0.103     1.754     2.071

 Mol. C6AA /au·bohr⁶  :       6651.305473
 Mol. C8AA /au·bohr⁸  :     153142.250588
 Mol. α(0) /au        :        125.268622


Wiberg/Mayer (AO) data.
largest (>0.10) Wiberg bond orders for each atom

 ---------------------------------------------------------------------------
     #   Z sym  total        # sym  WBO       # sym  WBO       # sym  WBO
 ---------------------------------------------------------------------------
     1   6 C    3.597 --     2 N    1.500    17 H    0.954    16 H    0.954
     2   7 N    3.658 --     1 C    1.500     6 C    1.044     3 C    0.991
     3   6 C    3.887 --     4 N    1.931     2 N    0.991    18 H    0.919
     4   7 N    3.012 --     3 C    1.931    15 H    0.925
     5   6 C    3.927 --     6 C    1.522    13 N    1.285    25 H    0.948
     6   6 C    3.883 --     5 C    1.522     2 N    1.044     7 C    1.038
     7   6 C    3.953 --     8 O    1.671     9 N    1.136     6 C    1.038
     8   8 O    2.026 --     7 C    1.671     9 N    0.138
     9   7 N    3.555 --     7 C    1.136    11 C    1.110    10 C    0.971
                             8 O    0.138    12 O    0.131
    10   6 C    3.897 --     9 N    0.971    19 H    0.966    21 H    0.957
                            20 H    0.955
    11   6 C    3.957 --    12 O    1.704     9 N    1.110    13 N    1.052
    12   8 O    2.034 --    11 C    1.704     9 N    0.131    13 N    0.109
    13   7 N    3.590 --     5 C    1.285    11 C    1.052    14 C    0.978
                            12 O    0.109
    14   6 C    3.910 --    13 N    0.978    24 H    0.963    22 H    0.963
                            23 H    0.961
    15   1 H    0.931 --     4 N    0.925
    16   1 H    0.980 --     1 C    0.954
    17   1 H    0.977 --     1 C    0.954
    18   1 H    0.968 --     3 C    0.919
    19   1 H    0.983 --    10 C    0.966
    20   1 H    0.976 --    10 C    0.955
    21   1 H    0.977 --    10 C    0.957
    22   1 H    0.982 --    14 C    0.963
    23   1 H    0.980 --    14 C    0.961
    24   1 H    0.982 --    14 C    0.963
    25   1 H    0.987 --     5 C    0.948
 ---------------------------------------------------------------------------

Topologies differ in total number of bonds
Writing topology from bond orders to xtbtopo.mol

molecular dipole:
                 x           y           z       tot (Debye)
 q only:        1.986      -1.162      -0.175
   full:        2.144      -1.348      -0.181       6.454
molecular quadrupole (traceless):
                xx          xy          yy          xz          yz          zz
 q only:       14.352      -1.032       0.389       1.434      -1.163     -14.741
  q+dip:       11.701      -1.782      -0.216       1.533      -1.935     -11.484
   full:       10.249      -2.222      -0.673       1.291      -1.058      -9.576

           -------------------------------------------------
          |                Geometry Summary                 |
           -------------------------------------------------

      molecular mass/u    :      195.1988581
   center of mass at/Å    :        0.1329182       0.0562382       0.0244761
  moments of inertia/u·Å² :        0.4193075E+03   0.9876145E+03   0.1343165E+04
rotational constants/cm⁻¹ :        0.4020351E-01   0.1706904E-01   0.1255068E-01

 * 23 selected distances

     #   Z          #   Z                                           value/Å
     1   6 C        2   7 N                                       1.3097882
     3   6 C        4   7 N                                       1.2415291
     2   7 N        6   6 C                                       1.4046898
     5   6 C        6   6 C                                       1.3631646
     7   6 C        8   8 O                                       1.2113765
     7   6 C        9   7 N                                       1.3783080
     9   7 N       10   6 C                                       1.4547895 (max)
     9   7 N       11   6 C                                       1.3831101
    11   6 C       12   8 O                                       1.1994611
     5   6 C       13   7 N                                       1.3413650
    11   6 C       13   7 N                                       1.4034223
    13   7 N       14   6 C                                       1.4491907
     4   7 N       15   1 H                                       0.4032467 (min)
     1   6 C       16   1 H                                       1.0785510
     1   6 C       17   1 H                                       1.0748132
     3   6 C       18   1 H                                       1.0927784
    10   6 C       19   1 H                                       1.0873391
    10   6 C       20   1 H                                       1.0903352
    10   6 C       21   1 H                                       1.0899798
    14   6 C       22   1 H                                       1.0896616
    14   6 C       23   1 H                                       1.0901884
    14   6 C       24   1 H                                       1.0891215
     5   6 C       25   1 H                                       1.0824957

 * 5 distinct bonds (by element types)

   Z      Z             #   av. dist./Å        max./Å        min./Å
   1 H    6 C          10     1.0865264     1.0927784     1.0748132
   6 C    6 C           1     1.3631646     1.3631646     1.3631646
   1 H    7 N           1     0.4032467     0.4032467     0.4032467
   6 C    7 N           9     1.3740214     1.4547895     1.2415291
   6 C    8 O           2     1.2054188     1.2113765     1.1994611


optimized geometry written to: xtbopt.xyz


           -------------------------------------------------
          | TOTAL ENERGY              -72.871815641892 Eh   |
          | GRADIENT NORM               0.003519085135 Eh/α |
          | HOMO-LUMO GAP               1.760977043396 eV   |
           -------------------------------------------------

------------------------------------------------------------------------
 * finished run on 2024/06/05 at 19:58:07.636     
------------------------------------------------------------------------
 total:
 * wall-time:     0 d,  0 h,  0 min,  3.042 sec
 *  cpu-time:     0 d,  0 h,  0 min,  3.021 sec
 * ratio c/w:     0.993 speedup
 SCF:
 * wall-time:     0 d,  0 h,  0 min,  0.037 sec
 *  cpu-time:     0 d,  0 h,  0 min,  0.037 sec
 * ratio c/w:     1.000 speedup
 ANC optimizer:
 * wall-time:     0 d,  0 h,  0 min,  2.977 sec
 *  cpu-time:     0 d,  0 h,  0 min,  2.972 sec
 * ratio c/w:     0.999 speedup

