25
 energy: -42.151289184450 gnorm: 0.006922100790 xtb: 6.6.1 (8d0f1dd)
C            2.79168474292786        1.28564935793125       -0.46222336464101
N            2.21407364461453        0.21838105273739        0.03140461718544
C            3.00818978027791       -0.74013851800613        0.70696038537081
N            4.25177920720527       -0.65205252455988        0.61881023584810
C            0.22745961675909       -1.19085811623109       -0.13154349010693
C            0.82002020461489        0.03560577969736       -0.02382022622738
C           -0.02236986769799        1.23997812417950        0.06598991390931
O            0.42398610659982        2.35635290093862        0.20987083293370
N           -1.37848440965361        0.99317872046939       -0.01239158798060
C           -2.28760430796949        2.12918657545983        0.00265026359911
C           -1.97933506728193       -0.24393012705977       -0.14270255504905
O           -3.16834829973062       -0.37862440395758       -0.22789252464154
N           -1.10483467343144       -1.34209070354190       -0.17053616421236
C           -1.69225796595074       -2.66072059273675       -0.29888644405902
H            4.84052816950803       -1.32491322485422        1.10013018059952
H            3.85154207066538        1.40023383709018       -0.29021901325632
H            2.23672744018705        2.02520064313453       -1.00923585597715
H            2.42398370184984       -1.47940843520051        1.26880866896371
H           -1.70795588301299        3.03216854735072        0.17930674869785
H           -2.80625813204939        2.19415825796928       -0.95498468663438
H           -3.03353279833484        1.99481483270689        0.78572496440014
H           -1.42724169180312       -3.28036257446098        0.55792245411664
H           -1.35022498402815       -3.14275698739141       -1.21451594736690
H           -2.77510655525150       -2.54792402618101       -0.33752796494332
H            0.80401146508387       -2.10288985387841       -0.21992782262689
