25
 energy: 0.000000000000 xtb: 6.6.1 (8d0f1dd)
C            3.23720163006194        1.16630919979326        0.08434469647475
N            2.29877817382611        0.07527477071623        0.03981603040599
C            2.58028210190900       -1.21425402444508        0.03006176031096
N            1.43813958087363       -1.93419271955128        0.00098261760884
C            0.39035688448383       -1.05887472636071       -0.00790371836672
C            0.93510056364412        0.21347819449412        0.01709077491437
C            0.09450143893243        1.40504303904423       -0.00410947031874
O            0.49712751527797        2.54126714362870       -0.00342325688240
N           -1.25076640035757        1.06271879480407       -0.03085478223738
C           -2.21907211982101        2.15522099834493       -0.05001256985998
C           -1.81739487048744       -0.20012725993278       -0.04692818574614
O           -2.99983886758376       -0.37846417018721       -0.07008878229737
N           -0.92618586207120       -1.30210215599479       -0.03682761578324
C           -1.46982264913417       -2.64643102187190       -0.06029820460571
H            3.71247264356769        1.21471455160235        1.06488849150277
H            4.00791497605742        1.03430808813993       -0.67357694370751
H            2.69910007168542        2.09770118228144       -0.09130154882931
H            3.56654120610678       -1.63682992603973        0.04233140067262
H           -1.67107961066214        3.09322851271934       -0.02552706933167
H           -2.82428953597071        2.09428624779827       -0.95318082946668
H           -2.87644029173232        2.07745725625962        0.81450067533302
H           -1.17061996399332       -3.19584890659852        0.83242232437030
H           -1.14560257411436       -3.17511610292205       -0.95688275822323
H           -2.55549792440841       -2.55659984320617       -0.07459039797972
H            1.38130855184625       -2.94313852034425       -0.01389874181052
25
 energy: -5.232189818023 xtb: 6.6.1 (8d0f1dd)
C            3.24778619494862        1.18784476256982        0.08683969831931
N            2.31442378027718        0.10217395088840        0.03810077592281
C            2.61037970123420       -1.22458480438952        0.03051715058809
N            1.44068999664326       -1.93741233399761        0.00131336661281
C            0.40346923787823       -1.06005204154435       -0.00807157648201
C            0.93556081495794        0.22211751957361        0.01554331494902
C            0.10667133261517        1.39494149958370       -0.00507217037405
O            0.50120212894031        2.56171628889477       -0.00441528341323
N           -1.25387241494207        1.04639997489109       -0.03103623707972
C           -2.21624371907361        2.14058140065175       -0.04991874805817
C           -1.81533528738495       -0.20590898555572       -0.04721334452879
O           -3.01178289492151       -0.38804663040607       -0.07036028810026
N           -0.92987025294401       -1.30934450640396       -0.03708739271587
C           -1.49689021275212       -2.64683228263557       -0.06090184012460
H            3.72815062883241        1.23549672283641        1.06793737835278
H            4.01624621673604        1.05699175356185       -0.67669097937416
H            2.69966034127920        2.11200087439986       -0.08731635265262
H            3.59089928956398       -1.64588989097174        0.04338207453992
H           -1.65749111224088        3.07352899379425       -0.02553877877140
H           -2.82134577587034        2.08518065971274       -0.95434132315513
H           -2.87350869102804        2.06862132408754        0.81596742061966
H           -1.21469937588419       -3.21123233229038        0.83029344655180
H           -1.18980594569193       -3.19032292859722       -0.95698798508181
H           -2.58141788138421       -2.53792540245123       -0.07499378514869
H            1.37933856814757       -2.94101498403041       -0.01291464524841
25
 energy: -5.500487130704 xtb: 6.6.1 (8d0f1dd)
C            3.25956832412911        1.21541235657823        0.08945446903873
N            2.33258399146451        0.12812944934462        0.03496217725082
C            2.64393161452854       -1.22584301058057        0.03184277512663
N            1.45436912233429       -1.93346098999715        0.00269412850267
C            0.42175359753431       -1.06654325760327       -0.00827057889905
C            0.93951769310467        0.22721294958882        0.01329333444960
C            0.12368185298654        1.37641190221206       -0.00670728021156
O            0.49609248697046        2.56342972911233       -0.00653962433526
N           -1.25312492113118        1.02401740330003       -0.03146206207921
C           -2.20853066368788        2.11909150806457       -0.04987790049857
C           -1.80191035760907       -0.21836701755083       -0.04748708561597
O           -3.00475684128540       -0.40415120039330       -0.07049678056579
N           -0.92736059346675       -1.32434677357178       -0.03738986831017
C           -1.54429212044593       -2.64655338011873       -0.06201316723715
H            3.75134510883192        1.26935354738555        1.06743289450815
H            4.02773043439939        1.10052424162818       -0.67997519142932
H            2.70184894122623        2.13529494613320       -0.07753327218446
H            3.62176197714465       -1.64157785723154        0.04556856810960
H           -1.63649263262219        3.04488955825682       -0.02572923573949
H           -2.81399950970690        2.06818741887053       -0.95483952354437
H           -2.86570407174709        2.05202152375141        0.81696773797999
H           -1.30014396434525       -3.23582994965849        0.82749428077712
H           -1.27539873671215       -3.21432698902161       -0.95853065709470
H           -2.62636860869165       -2.48929585121396       -0.07554355514684
H            1.39611254473305       -2.93465165511311       -0.01028068670411
25
 energy: -2.409846712091 xtb: 6.6.1 (8d0f1dd)
C            3.26873356532619        1.24867559509965        0.09150844721451
N            2.35348882371497        0.15000676258125        0.03146183726656
C            2.68131063690296       -1.21878987700899        0.03400366123016
N            1.48544702821312       -1.92905103951038        0.00526895806211
C            0.44509130263987       -1.08256169170707       -0.00831350682438
C            0.94958369840600        0.22460271936407        0.01107532193393
C            0.14347063707083        1.35869707097567       -0.00873286727622
O            0.49045009743300        2.55771916350544       -0.00935962279750
N           -1.24559412636100        1.00049658659459       -0.03221490782804
C           -2.19679079030986        2.09317541667142       -0.05009746881541
C           -1.78016135512566       -0.23719227211967       -0.04780156149984
O           -2.98668960112628       -0.42321215839250       -0.07070125866468
N           -0.91701797836068       -1.34985960876909       -0.03765894771696
C           -1.61070536475750       -2.64721144807466       -0.06356762001484
H            3.77483616970394        1.31021464020316        1.06389306461320
H            4.03635025942575        1.16122325399930       -0.68503584410630
H            2.69989787053267        2.16550087639404       -0.06229831952643
H            3.66208504137468       -1.62301647474618        0.04860354405942
H           -1.61460790337003        3.01274371839596       -0.02640853868787
H           -2.80227012671461        2.04290155433605       -0.95508969612394
H           -2.85289420936108        2.02719981086321        0.81762710023517
H           -1.42498347101019       -3.26700108110054        0.82420144959856
H           -1.40042412663084       -3.24442001640350       -0.96149556676751
H           -2.68686728794280       -2.41117884437124       -0.07605888106159
H            1.44047587826278       -2.93063405460800       -0.00577488035479
25
 energy: 4.285473336909 xtb: 6.6.1 (8d0f1dd)
C            3.27337890624129        1.29059026579727        0.09340413001822
N            2.37531459737738        0.17304603642749        0.02698312148967
C            2.72287553515683       -1.20276731616804        0.03729276585644
N            1.53110053708429       -1.92244530043616        0.00929627578870
C            0.46970447534442       -1.10842957091315       -0.00826835008850
C            0.96124354278014        0.21539660348028        0.00841339031855
C            0.16556656951772        1.34125585138278       -0.01119993531619
O            0.48212184233548        2.54720564396001       -0.01252069275405
N           -1.23396543129888        0.97424516329390       -0.03329252083736
C           -2.17529770448728        2.06905920803174       -0.05063272505646
C           -1.75409017987392       -0.26230416983962       -0.04819922755420
O           -2.96510308260254       -0.43666262924113       -0.07092633756889
N           -0.90602539301292       -1.39241539402035       -0.03796246934559
C           -1.69608915513879       -2.66039463804050       -0.06565003196234
H            3.79849051375509        1.35753957169556        1.05726837659112
H            4.03768193586619        1.24077206238215       -0.69360516637685
H            2.69151582792970        2.20488503786518       -0.03941729094196
H            3.71146755596767       -1.58822463485493        0.05236006960285
H           -1.57505767730114        2.97745590671665       -0.02839042398570
H           -2.78121658546524        2.02444986499183       -0.95530198861629
H           -2.82962601527155        2.01068063051014        0.81867389456018
H           -1.58480321048306       -3.31188244115038        0.81777058499762
H           -1.55968225739389       -3.28799147393231       -0.96282487902641
H           -2.75910089696054       -2.33769787725261       -0.07728456559993
H            1.51181041786980       -2.92633779851379        0.00104789195469
25
 energy: 14.083823306682 xtb: 6.6.1 (8d0f1dd)
C            3.27223554060295        1.33413661935972        0.09475385536653
N            2.39471328512388        0.19260525491661        0.02266341012250
C            2.76114253419402       -1.17665798192587        0.04173946405982
N            1.58675695147065       -1.91313072081536        0.01440879857673
C            0.49013904643652       -1.14067332742014       -0.00832471685541
C            0.97397479466681        0.19957424868388        0.00571790716176
C            0.18890066728947        1.32843230211704       -0.01357722471032
O            0.47888212503766        2.53226575566169       -0.01493827605082
N           -1.21593537992874        0.95011055338201       -0.03460715041799
C           -2.14655597540343        2.04931677964410       -0.05153411455205
C           -1.72744580998542       -0.28884787394128       -0.04870852390727
O           -2.94331480203951       -0.43375405181275       -0.07112357830079
N           -0.89891144864216       -1.44787273988419       -0.03844836922342
C           -1.79126317621254       -2.68699848853656       -0.06810723848618
H            3.81803400038056        1.40226649154959        1.04795114229470
H            4.02875594992536        1.32584177981562       -0.70489807477429
H            2.67700691953964        2.24586147265317       -0.01182621397883
H            3.76227842561734       -1.53716505947561        0.05619695614989
H           -1.52867522704458        2.94619041542183       -0.03167653997353
H           -2.75310463365197        2.01217841204385       -0.95537515195523
H           -2.79824434868545        2.00161505179440        0.81973097864053
H           -1.75878449940395       -3.36050203767946        0.80842532218180
H           -1.73263841500828       -3.33544409061790       -0.96188756856942
H           -2.83176853508911       -2.28970017834205       -0.07896044326724
H            1.60603667874648       -2.92061998442033        0.00943924661582
25
 energy: 24.986700435751 xtb: 6.6.1 (8d0f1dd)
C            3.26832306669105        1.36721677665403        0.09487546816802
N            2.41055808590012        0.20237282866377        0.02123732389342
C            2.78802817934805       -1.14032745714147        0.04730918947625
N            1.64533690816803       -1.90173166336623        0.01955999075673
C            0.50491975576549       -1.17020188092728       -0.00865627605416
C            0.99088935050451        0.18082019097827        0.00393238780925
C            0.21228123019164        1.32551154017737       -0.01485076033761
O            0.49460568787964        2.51735091232098       -0.01491002382904
N           -1.18628242501920        0.93378413045136       -0.03586870724085
C           -2.12061371185804        2.02990705514799       -0.05271689510653
C           -1.70193005560739       -0.31116290584229       -0.04930321084101
O           -2.92025369631159       -0.41520475185008       -0.07120896643288
N           -0.89479635858034       -1.50151650628168       -0.03929363674487
C           -1.88341874942479       -2.71648420088639       -0.07073847121607
H            3.82916685759168        1.43106482174669        1.03794384213485
H            4.01139287423899        1.39014120670466       -0.71593168506256
H            2.66115173417273        2.27401861138076        0.01190295853716
H            3.80390802089772       -1.47413467437322        0.05932984793176
H           -1.50868066335649        2.92847107626333       -0.03531493127645
H           -2.72725772578776        1.99022092619798       -0.95518539562871
H           -2.76893950243138        1.98238655455230        0.81976021560093
H           -1.92028812346951       -3.39410527615896        0.79802897254448
H           -1.89403121176089       -3.36819565008608       -0.96008807823119
H           -2.89312292687043       -2.25989990465716       -0.08004016015493
H            1.71126806706436       -2.91127315749670        0.01726089745127
25
 energy: 36.965913146654 xtb: 6.6.1 (8d0f1dd)
C            3.27080166384887        1.39107951135771        0.09426953267328
N            2.42800670904097        0.21242053615180        0.02348617584880
C            2.81445486919681       -1.10714105185532        0.05291846004220
N            1.69517358376610       -1.89463350322471        0.02338849120199
C            0.52524436409665       -1.18739411443512       -0.00876215019815
C            1.01081095887384        0.17089109535532        0.00343299118547
C            0.23366115553797        1.32135807056441       -0.01485382633003
O            0.52476772679850        2.51243293234188       -0.01264743761613
N           -1.15121552933528        0.91810321911296       -0.03676459997071
C           -2.10660820485172        1.99968662167194       -0.05380788876428
C           -1.67573882897975       -0.32856629298776       -0.04988253123931
O           -2.89427991326956       -0.40897455718707       -0.07129589329280
N           -0.88562210156735       -1.53285932505243       -0.04013002957589
C           -1.96416550506435       -2.72642944923971       -0.07329583174911
H            3.83956454033830        1.45005217665684        1.03118672069180
H            4.00043895376395        1.42794205601613       -0.72511388722949
H            2.65017962827149        2.28845944565763        0.02554995709328
H            3.83963932194877       -1.41972039592471        0.06239613589758
H           -1.52496709240525        2.91684245628936       -0.03763896047195
H           -2.71283871775527        1.94204528435114       -0.95545247180253
H           -2.75260150837276        1.93466978305563        0.81888463348183
H           -2.06360225797927       -3.41208379732159        0.79188698695163
H           -2.03855555004472       -3.38425111790107       -0.96307906285070
H           -2.94804851600353       -2.19449680668684       -0.08012244705910
H            1.79771491808281       -2.90040417459445        0.02248082922954
25
 energy: 41.295840997627 xtb: 6.6.1 (8d0f1dd)
C            3.27721496394536        1.39029167508897        0.09193809864148
N            2.43306147690264        0.21267803792667        0.02920058530444
C            2.81650177206950       -1.08453700986199        0.05761195205182
N            1.71390604709186       -1.88947944191283        0.02437444093365
C            0.53134914223647       -1.18518021393441       -0.00885400210160
C            1.02260403259000        0.17209652025829        0.00447427650021
C            0.23724507840111        1.32752126559094       -0.01288158230696
O            0.55294317121082        2.51638669735135       -0.00756422270362
N           -1.12468281661447        0.92034710024984       -0.03684520676322
C           -2.10614457155427        1.98513359048511       -0.05431657716965
C           -1.66528570941342       -0.32712070345430       -0.05015882224130
O           -2.88260362301823       -0.38442578628969       -0.07115926056266
N           -0.88720854979012       -1.53569180797803       -0.04090511012993
C           -2.00134631108601       -2.73316335783375       -0.07505937798292
H            3.84426742012461        1.44474193918236        1.02760691678765
H            3.99898098005066        1.41632139190763       -0.72802679070682
H            2.65605943504633        2.28286573043514        0.02290839907596
H            3.84493935943402       -1.39053068946071        0.06453903229028
H           -1.56175640729652        2.92663851402971       -0.03780282199516
H           -2.71148267114255        1.90262256555291       -0.95570540828277
H           -2.75182686599331        1.89390536480843        0.81734072618851
H           -2.11055805509395       -3.40326521020769        0.78554132717364
H           -2.08709913396338       -3.37328036624142       -0.96202524942401
H           -2.96159135776894       -2.20683518077402       -0.08002481679285
H            1.83472786156804       -2.88901202274653        0.02282739036312
25
 energy: 46.240564620762 xtb: 6.6.1 (8d0f1dd)
C            3.28514365009698        1.40125205309042        0.09133759542590
N            2.44123370231467        0.22417043823907        0.03164764472038
C            2.83290346588068       -1.08079840052968        0.05998970307951
N            1.72606749952653       -1.88957509119149        0.02484603711185
C            0.54430037297251       -1.18578683972476       -0.00859866899852
C            1.02746761478197        0.17618641509635        0.00495876145088
C            0.23881663433128        1.32183140820656       -0.01198880206804
O            0.55916568362857        2.51788703968327       -0.00568440767804
N           -1.11816438849328        0.91429127600161       -0.03696627921423
C           -2.10571003978450        1.97296441602640       -0.05459241525192
C           -1.65577221814963       -0.33204901503258       -0.05026054423564
O           -2.87481909155595       -0.38890301208532       -0.07134470528283
N           -0.88316450359861       -1.53797708833741       -0.04118759732889
C           -2.03013234701831       -2.73422688525184       -0.07628001571547
H            3.85610303147222        1.45768760214378        1.02622193479979
H            4.00727960261985        1.42790067555139       -0.73148864738479
H            2.66000409011864        2.29203707134384        0.02385185944687
H            3.86123318503366       -1.38343572995801        0.06692233929449
H           -1.56879081245619        2.91938327509165       -0.03732338125343
H           -2.70991714353860        1.88143806680470       -0.95633438579335
H           -2.75152070958759        1.87177892196928        0.81655439938106
H           -2.15977701708972       -3.41508540949734        0.78454038538426
H           -2.13713264541343       -3.38275273401442       -0.96555226484840
H           -2.98456989661961       -2.17261556392093       -0.07978289491094
H            1.85196694846409       -2.88657428753261        0.02354824601672
25
 energy: 46.258763696307 xtb: 6.6.1 (8d0f1dd)
C            3.29149436449950        1.40110512480421        0.09059000861129
N            2.44160354290276        0.22873029247250        0.03456891456689
C            2.83461776840548       -1.08307613722346        0.06057077054704
N            1.72234071011844       -1.88835816048008        0.02388318571464
C            0.54739133293773       -1.17976818340801       -0.00834791055732
C            1.02675848697471        0.18199730640048        0.00618515581022
C            0.23113034680492        1.32258550683678       -0.01037839787341
O            0.55642027526734        2.51973279481246       -0.00388435327458
N           -1.12240209826979        0.91714568148590       -0.03664278585353
C           -2.10937756315977        1.97594090762900       -0.05457206543477
C           -1.65657301199303       -0.33210620535117       -0.05007480981556
O           -2.87606512926566       -0.39233777751429       -0.07145519223376
N           -0.88415648435875       -1.53239235450415       -0.04133676755593
C           -2.03309535677711       -2.74057408789894       -0.07674527580066
H            3.86150605431043        1.45991793214595        1.02666559492509
H            4.01758766248036        1.41984975569135       -0.73044801426880
H            2.67076550563359        2.29480044502311        0.01798362550358
H            3.86104037973683       -1.38881017986322        0.06722614649439
H           -1.57134074440394        2.92063633482529       -0.03608792643172
H           -2.71244037246995        1.88415898835502       -0.95661362488792
H           -2.75602957300961        1.87351245067179        0.81552063761701
H           -2.15490664724034       -3.42087055632711        0.78382009156241
H           -2.13312853129785       -3.38721445074809       -0.96627029125334
H           -2.98599370964583       -2.18031764878843       -0.07928310410607
H            1.84506745975577       -2.88525917687491        0.02216028414205
25
 energy: 50.919628826623 xtb: 6.6.1 (8d0f1dd)
C            3.30456742972497        1.40778414395081        0.08916665882582
N            2.44616668403427        0.24053272312097        0.04165060627808
C            2.84316510938945       -1.07665023940002        0.06271075722818
N            1.72775965762888       -1.88109990187323        0.02276115898894
C            0.55738897965998       -1.17226102739943       -0.00767926669225
C            1.03058450228313        0.19003539300776        0.00903772520858
C            0.22246124967965        1.32493494757168       -0.00692276242634
O            0.55683598424826        2.52123032852011        0.00039825726610
N           -1.12186866403079        0.91963820091330       -0.03605610389496
C           -2.11147520410015        1.97642772117852       -0.05474279567833
C           -1.65170023922108       -0.33692848218164       -0.04981956529815
O           -2.87295754800510       -0.39270993122477       -0.07165556170170
N           -0.88485635951771       -1.53179093086522       -0.04182308731627
C           -2.06218702755884       -2.76344812991608       -0.07830490205231
H            3.87363132258306        1.47106831964021        1.02626504580773
H            4.03612453465245        1.41319315440238       -0.72904466755552
H            2.69218188250585        2.30672692660542        0.00769553963276
H            3.86923409433650       -1.38203317033955        0.06725017095568
H           -1.57477886376623        2.92078357236457       -0.03429451662082
H           -2.71264395794014        1.88354837263244       -0.95747067346252
H           -2.75967070843309        1.87130306759356        0.81355980397356
H           -2.18288157419764       -3.44333508375766        0.78082089036960
H           -2.16333416019915       -3.40641246919115       -0.96847894633418
H           -3.00412325520709       -2.19330130700344       -0.07829455738616
H            1.85459079938681       -2.87820759617761        0.02030468803171
25
 energy: 58.275465706429 xtb: 6.6.1 (8d0f1dd)
C            3.31849761464970        1.41801660844158        0.08831730903248
N            2.45347443962227        0.25432366997591        0.04929663227981
C            2.85470831636362       -1.06480743680641        0.06427101855211
N            1.73984534232231       -1.87028884946005        0.02154404879761
C            0.57051847897627       -1.16530385959500       -0.00694552995129
C            1.03798893290936        0.19755063684233        0.01223697744385
C            0.21881065106875        1.32900988240945       -0.00365593484925
O            0.55756826575773        2.52347993853698        0.00436286811953
N           -1.11874807533591        0.91965873677385       -0.03544388351908
C           -2.11099456299938        1.97472576785147       -0.05477274142896
C           -1.64371801549871       -0.34601314716856       -0.04966556805506
O           -2.86570617257658       -0.39884908706503       -0.07181266713108
N           -0.88215756622404       -1.53476758338994       -0.04241369361904
C           -2.10595440232849       -2.79313295308385       -0.07991854488310
H            3.88416188482566        1.48641052657051        1.02721478166534
H            4.05552908629110        1.40949307043291       -0.72584059220724
H            2.71491086064490        2.32203441764490       -0.00443829332416
H            3.88165426566374       -1.36701215846131        0.06569045342447
H           -1.57511646531878        2.91931006972131       -0.03265871873058
H           -2.71063511722028        1.88362814064809       -0.95840525484071
H           -2.76058592653834        1.86992953050478        0.81221145345209
H           -2.22895436910337       -3.47292425995548        0.77743425292588
H           -2.21168503209801       -3.43282781500044       -0.97041862870377
H           -3.03369018140504       -2.20535515232756       -0.07720835213472
H            1.87249241548778       -2.86726009186848        0.01805250383214
25
 energy: 68.269267907114 xtb: 6.6.1 (8d0f1dd)
C            3.33782195964715        1.43478065293407        0.08741269011195
N            2.46621622128007        0.27460218752576        0.05875305626208
C            2.87468715811250       -1.04643199614589        0.06670508807761
N            1.76141693799087       -1.85587621827488        0.02016555899588
C            0.59184411265855       -1.15641629858180       -0.00652151002782
C            1.05067478234300        0.20852162112155        0.01587115474072
C            0.21743894434606        1.33402186863940        0.00018060655920
O            0.56228122289252        2.52797055710995        0.00901423172100
N           -1.10938001288923        0.91874995257907       -0.03473270071610
C           -2.10880607974812        1.96829261496585       -0.05481085675923
C           -1.62830079875910       -0.35782276356258       -0.04964139725255
O           -2.85159164183727       -0.40384833689820       -0.07190111617350
N           -0.87533488998871       -1.53978985383509       -0.04373520376686
C           -2.17655898990584       -2.83374934336293       -0.08213833232746
H            3.90012312557643        1.50938341816306        1.02829117008041
H            4.08076452640913        1.41104759089150       -0.72291839791614
H            2.74205172651604        2.34318696052740       -0.01746930627173
H            3.90302674048905       -1.34321642328525        0.06443337872928
H           -1.57946010494382        2.91639199452111       -0.03076125276985
H           -2.70653357009260        1.87467486545436       -0.95930072457547
H           -2.75978419368461        1.85908572616942        0.81053098107610
H           -2.30817392541819       -3.51452669966360        0.77243217105690
H           -2.29346426406501       -3.47058156094392       -0.97246170393402
H           -3.08198521351759       -2.21782482984334       -0.07604842349883
H            1.90324089452499       -2.85159708403304        0.01568473472568
25
 energy: 77.571630798168 xtb: 6.6.1 (8d0f1dd)
C            3.37628015790324        1.46135751663254        0.08525419788932
N            2.48949190957208        0.31169579210957        0.08000861660992
C            2.90990706346078       -1.01312002925640        0.06931720116193
N            1.79578350403781       -1.82611705349221        0.01595360270778
C            0.64194592074361       -1.12149271147923       -0.00518015176637
C            1.08097128739379        0.23796386311650        0.02327481770040
C            0.20255794533665        1.35153709592338        0.00761482301813
O            0.57510721253481        2.53953728134599        0.01715711444296
N           -1.08901939320334        0.92938493691316       -0.03363972417911
C           -2.10976112413883        1.96369249783122       -0.05503676263714
C           -1.59222913540304       -0.38035107914936       -0.04894583609652
O           -2.81630415927888       -0.41747326771443       -0.07137868840281
N           -0.84969145698413       -1.53105013125954       -0.04547356670499
C           -2.32091317547509       -2.93010044436415       -0.08679800092265
H            3.92712744762279        1.54378483436192        1.03221025315913
H            4.13086919636278        1.40191869386908       -0.71884561561217
H            2.79222647122865        2.37783548995674       -0.04353621933907
H            3.93715477156035       -1.30691526723243        0.06195982020914
H           -1.59952695299419        2.92129809420445       -0.02732898774318
H           -2.70444447404649        1.86066798703204       -0.96016966220454
H           -2.76370275390173        1.84136803673333        0.80640622802325
H           -2.44084774323447       -3.60086753906935        0.76439607029733
H           -2.43031458143027       -3.54920113899177       -0.97701034495723
H           -3.17503379921694       -2.25697131266560       -0.07400699752372
H            1.94458052948638       -2.81935354318350        0.01083170901747
25