25
 energy: -42.166205629132 gnorm: 0.006858097402 xtb: 6.6.1 (8d0f1dd)
C            3.26888730538277        1.14622986835601       -0.00911262901501
N            2.42045864051426        0.15602121664733        0.01286771782339
C            2.57738507221914       -1.09260585624924        0.51306089746370
N            1.40989373094687       -1.79309801950609        0.39637971484198
C            0.47760289667515       -1.07442743396859       -0.21265535452555
C            1.07149090241541        0.24697625750308       -0.53339037298723
C            0.17455116375122        1.35174756037765        0.10563039202100
O            0.63340568507472        2.33977242595506        0.59786528921739
N           -1.15122016284968        1.06227620047586       -0.02634629641876
C           -2.11478016389251        2.12855730751657        0.24843412362342
C           -1.72303089479192       -0.17690705235590       -0.33563307691940
O           -2.89456259962958       -0.31357209867217       -0.53095301056977
N           -0.85104306659586       -1.28005791222465       -0.31014224467400
C           -1.42369558850489       -2.61383990015772       -0.23663239429392
H            4.24242130428228        1.01461922187273        0.42488834361804
H            1.08591883779260        0.49753787913688       -1.60072627816317
H            2.98343099237117        2.09001406016308       -0.42902086621708
H            3.47622651451467       -1.47726351594864        0.94122745584039
H           -1.58034130525809        3.07324245473186        0.29154657050828
H           -2.85642446566032        2.14422137775795       -0.54815916209283
H           -2.61939584405859        1.94764161327843        1.19627473544282
H           -1.38444302630656       -2.99883705611384        0.78372396135636
H           -0.89400700659296       -3.28359110790894       -0.91163790655917
H           -2.46603758962932       -2.54109956513908       -0.54336083895491
H            1.29774018193010       -2.73531938392700        0.74704284753453
