25
 energy: -40.428892999900 gnorm: 8.787919270510 xtb: 6.6.1 (8d0f1dd)
C            3.27295220539462        1.15019684380513       -0.11482455172093
N            2.42519579468349        0.16433925441220       -0.03840579398442
C            2.55905107750218       -1.04820400615483        0.54697725500804
N            1.38823894103344       -1.74070503695616        0.45080927770977
C            0.47586035502926       -1.06398043425792       -0.23413388648516
C            1.08105874882863        0.24413931583747       -0.69862719615674
C            0.17323926775317        1.33003034033086        0.09800658493162
O            0.67872828925522        2.25003048964186        0.66239502060738
N           -1.14273195606374        1.06508649642005       -0.06626657433814
C           -2.10267513495572        2.11276346363081        0.28492937524720
C           -1.71948498513903       -0.17341784425441       -0.40598553677233
O           -2.88593742842646       -0.29199808155356       -0.63304090977727
N           -0.85432377248146       -1.27424153127200       -0.35225988082717
C           -1.42756822768068       -2.60871877294667       -0.28379126324045
H            4.24328610649313        1.05365446516471        0.33368832796077
H            1.08448349990535        0.34847206851775       -1.11001556820131
H            2.99296779964459        2.05839612742164       -0.61046482060176
H            3.42717384989879       -1.39312161103592        1.06314023570187
H           -1.57209850036602        3.05824370258532        0.35478897730381
H           -2.86530992148800        2.15918176411395       -0.49000692366716
H           -2.57873265947582        1.88679851374294        1.23822860479355
H           -1.36619734103281       -3.00604964286385        0.73025941924501
H           -0.91335969393991       -3.27060593109615       -0.97810968311888
H           -2.47521724679865       -2.53170932062000       -0.56897842480443
H            1.26183244652655       -2.66034209101263        0.85285955308758
25
 energy: -42.142154589144 gnorm: 0.124754187671 xtb: 6.6.1 (8d0f1dd)
C            3.27283032427010        1.15027753850046       -0.11522599447342
N            2.42827987162085        0.16211376197489       -0.03163251819278
C            2.55993454746912       -1.04869058329107        0.54763419598564
N            1.38817370513914       -1.74183527828128        0.45142035437648
C            0.47478569402636       -1.06889324249096       -0.22805830661061
C            1.07843485372142        0.17334433670214       -0.41502274648392
C            0.17228367360869        1.33052299681406        0.10208066330884
O            0.67857705600588        2.25053062670717        0.66240998543812
N           -1.14278711430433        1.06511387427025       -0.06633751827526
C           -2.10268115852802        2.11278702432270        0.28486562594303
C           -1.71946607659641       -0.17342472407375       -0.40582167812133
O           -2.88593146208151       -0.29199224702581       -0.63305597166476
N           -0.85444944424218       -1.27426033392273       -0.35249346889470
C           -1.42759238548197       -2.60871927901095       -0.28388380491702
H            4.24333330059895        1.05367280143943        0.33355866991083
H            1.08560458544205        0.42708912743473       -1.41091037768146
H            2.99285790685597        2.05842283251026       -0.61040196317996
H            3.42727444635141       -1.39319888462422        1.06308495838623
H           -1.57209899203229        3.05824558076731        0.35478823365109
H           -2.86531127982123        2.15918365532124       -0.49000928927185
H           -2.57873497421410        1.88679833088560        1.23822507980960
H           -1.36620807674780       -3.00604709894666        0.73026102055758
H           -0.91334719867609       -3.27061138442166       -0.97811338595243
H           -2.47522259907967       -2.53170848025382       -0.56899095968646
H            1.26189231079578       -2.66048240970671        0.85280081393897
25
 energy: -42.159504194278 gnorm: 0.062251945466 xtb: 6.6.1 (8d0f1dd)
C            3.26859665467397        1.14314437366874       -0.09788815901972
N            2.42158323988308        0.15659614509151       -0.01071290876908
C            2.56702336086704       -1.07031786759754        0.55636966986977
N            1.40093190520161       -1.77621179656904        0.45598524543458
C            0.48122389832848       -1.08580814314834       -0.21721246277398
C            1.06636768092083        0.22921181166357       -0.46452627475565
C            0.16825039933282        1.34692778939352        0.13664702178812
O            0.65486833114517        2.30444462848025        0.66257462237308
N           -1.14267127498126        1.06907747436033       -0.05585147016791
C           -2.10813985410932        2.11751953890431        0.27412724987529
C           -1.71161784728433       -0.17581996586222       -0.39409318349660
O           -2.87631523330744       -0.29419150779593       -0.63093655361210
N           -0.85027736861319       -1.28229775808835       -0.34019486766012
C           -1.42839030903493       -2.61363527310518       -0.27798445054183
H            4.25001870036370        1.03657732197850        0.32200511459646
H            1.07331601468782        0.48590821583887       -1.46329701673424
H            2.98882197784367        2.05034253006059       -0.59709738912905
H            3.44086922710723       -1.41970308321265        1.05884495905290
H           -1.57627352685946        3.06238542931015        0.34409845573669
H           -2.86752592239068        2.15990994156916       -0.50374625099735
H           -2.58576375651596        1.89422487694043        1.22739011432750
H           -1.36900902343527       -3.00955960146296        0.73673165222607
H           -0.91358685586750       -3.27622845774029       -0.97106093471114
H           -2.47537943638678       -2.53349442797326       -0.56510797940163
H            1.28351053253083       -2.70076365310359        0.84610741439038
25
 energy: -42.163423541632 gnorm: 0.056700877271 xtb: 6.6.1 (8d0f1dd)
C            3.27063709780593        1.13827689140676       -0.08233061252040
N            2.41790389219730        0.15647070832646        0.01058930417011
C            2.56905382304327       -1.07379772387179        0.56571985536547
N            1.40289164303289       -1.77962007278819        0.46099297880265
C            0.48065372789724       -1.08391991667818       -0.20051129350121
C            1.06625449973676        0.24354848007205       -0.51317298232646
C            0.17039284080366        1.34702444396174        0.14055954832493
O            0.64576151373938        2.32162558636160        0.64646448665105
N           -1.14391527141228        1.06891556910920       -0.04893470179549
C           -2.11208149834671        2.11833513680891        0.27300573060505
C           -1.71114628327792       -0.17564183745075       -0.38209934188779
O           -2.87575434054411       -0.29578895238206       -0.62014650017963
N           -0.84986152825882       -1.28154220155053       -0.32522905903914
C           -1.42870575651375       -2.61332054597448       -0.27254134300504
H            4.25637978333826        1.02801534654820        0.32726863824100
H            1.07520983191353        0.49643887497426       -1.51899554824279
H            2.98507725063901        2.05086261885465       -0.56844302525282
H            3.45256775288658       -1.43444836966931        1.04502832989844
H           -1.58087462552709        3.06397074378047        0.33800082608110
H           -2.86856615065094        2.15656941604389       -0.50756946405212
H           -2.59550809093930        1.90382289177911        1.22568135773292
H           -1.37499496145364       -3.01606162800472        0.73997277998153
H           -0.91068240794233       -3.27311594766581       -0.96630762187248
H           -2.47424182672599       -2.53333593463541       -0.56545438367545
H            1.29398059865921       -2.71504503575546        0.82962365939703
25
 energy: -42.164174883442 gnorm: 0.054075602318 xtb: 6.6.1 (8d0f1dd)
C            3.27615099006732        1.13542620380773       -0.07363645186129
N            2.41984091490399        0.15644992599596        0.01508802405443
C            2.56843104012574       -1.07342711546466        0.56462230649927
N            1.40112696115109       -1.77677187630727        0.45692698337877
C            0.47900159622387       -1.07996276227450       -0.19701641309088
C            1.07078389711081        0.24547867943783       -0.53593193238442
C            0.17217895394684        1.34741875452567        0.12836412776406
O            0.64364781283532        2.32138197566859        0.63426373979327
N           -1.14592657604873        1.06780230314431       -0.04554115190363
C           -2.11423182852532        2.11792356636278        0.27367728174711
C           -1.71342093578123       -0.17559365821181       -0.37427615261532
O           -2.87923961557392       -0.29901354904104       -0.60619898775939
N           -0.85046425887733       -1.28003640317133       -0.31913783009904
C           -1.42856402758520       -2.61254017665825       -0.26686251485940
H            4.25698617299247        1.02565685726758        0.34682950359229
H            1.08148351496142        0.49588103314501       -1.54855325641584
H            2.98727435431396        2.05571859389666       -0.54294691939260
H            3.45560956457438       -1.44069440199421        1.03212566441151
H           -1.58457738948017        3.06498398931971        0.33222309125019
H           -2.86956401300295        2.15034493879832       -0.50863182819366
H           -2.59968814453982        1.90934659019037        1.22648292427841
H           -1.37805675333226       -3.01777443576163        0.74494417897648
H           -0.90898747766659       -3.27154396855925       -0.96047925116969
H           -2.47344177194894       -2.53203359833295       -0.56207258896570
H            1.29407853325539       -2.71618292418299        0.81690907086552
25
 energy: -42.164746803238 gnorm: 0.046862362804 xtb: 6.6.1 (8d0f1dd)
C            3.27921654966134        1.13556587347081       -0.06084631374088
N            2.42153845106729        0.15676934989865        0.01553514331683
C            2.56796897772131       -1.07410907234406        0.55721284891811
N            1.40004202983890       -1.77531715119939        0.44632408829151
C            0.47752235078794       -1.07648838039600       -0.19844628996190
C            1.07425771159682        0.24464028042871       -0.54980690802399
C            0.17449478659593        1.34749056188423        0.11620060494323
O            0.64255193455692        2.32188390314420        0.62282916573963
N           -1.14746602986611        1.06541721669558       -0.04007579766443
C           -2.11497943698731        2.11841350718122        0.27158606822696
C           -1.71636432201066       -0.17603606427228       -0.36425977402037
O           -2.88386757820312       -0.30313836948718       -0.58775559954432
N           -0.85101456674730       -1.27917934984990       -0.31495159902563
C           -1.42795416882573       -2.61234853137877       -0.26023339869511
H            4.25549095454178        1.02358704311158        0.37086105038082
H            1.08629531911646        0.49366110460176       -1.57202896177134
H            2.99000621249825        2.06334953933448       -0.51459861289058
H            3.45786307344113       -1.44689928514183        1.01448659395925
H           -1.58657068271583        3.06657282315020        0.32347142407129
H           -2.86858994280849        2.14418694021917       -0.51325712249597
H           -2.60303721059274        1.91664683932688        1.22419039347289
H           -1.38014357003938       -3.01704066864582        0.75191000880419
H           -0.90698608167875       -3.27185216064958       -0.95240593188450
H           -2.47238521144835       -2.53138582069683       -0.55705827271021
H            1.29254196459980       -2.71615158678521        0.80228881020500
25
 energy: -42.165436771363 gnorm: 0.032351356917 xtb: 6.6.1 (8d0f1dd)
C            3.27906154244371        1.13875507078872       -0.04013390543628
N            2.42269983109453        0.15693559973155        0.01346424756835
C            2.56922273434571       -1.07814533061940        0.54155863804399
N            1.40111092030423       -1.77743495876253        0.42696884453223
C            0.47656408704779       -1.07317411203246       -0.20419513852107
C            1.07620417168289        0.24359002163925       -0.55621258136594
C            0.17662072703196        1.34752667704791        0.10450630192070
O            0.64032302992624        2.32452883385057        0.61017970692400
N           -1.14930146366683        1.06206702756179       -0.03172199606630
C           -2.11499153345606        2.12082646727214        0.26521615749690
C           -1.72022585420717       -0.17661905692835       -0.35059997095581
O           -2.89002280071219       -0.30862754263230       -0.56128023154032
N           -0.85135571219679       -1.27877873676505       -0.31167201874341
C           -1.42646163797744       -2.61266194875422       -0.25067544888453
H            4.25088509454462        1.02058688076117        0.40192243081596
H            1.08948494245864        0.49230834961311       -1.59472239996213
H            2.99207767234475        2.07490225648628       -0.47690390461011
H            3.46246075764391       -1.45702375136499        0.98642925188142
H           -1.58630320070928        3.06903064855010        0.30974649479556
H           -2.86483481717255        2.13901658668382       -0.52409245938106
H           -2.60845619362574        1.92898763725650        1.21677979668999
H           -1.38199710353494       -3.01254284321374        0.76350109741072
H           -0.90312625990407       -3.27480473837356       -0.93838548499107
H           -2.47032461587024       -2.53272808182027       -0.55007533755831
H            1.29111719626440       -2.71828241437544        0.78156952783700
25
 energy: -42.165967751692 gnorm: 0.016346981362 xtb: 6.6.1 (8d0f1dd)
C            3.27424388453061        1.14352685556203       -0.01998650722117
N            2.42203235370537        0.15665454971255        0.01161478570043
C            2.57299169848525       -1.08555749436990        0.52399982780513
N            1.40520608786339       -1.78471853920119        0.40732318183718
C            0.47680778526229       -1.07251446381683       -0.21052101679198
C            1.07464672524840        0.24442463818443       -0.54844775976626
C            0.17660524746844        1.34875363901138        0.10131924817204
O            0.63679611668666        2.33119237724328        0.60156579987723
N           -1.15062769729605        1.06055917567450       -0.02579251781019
C           -2.11455192638506        2.12494525745370        0.25599399655128
C           -1.72277161058642       -0.17695259523768       -0.33959491710257
O           -2.89404691792235       -0.31258009392644       -0.53951881639834
N           -0.85126488661970       -1.27928149131246       -0.31042794702821
C           -1.42467156094011       -2.61340537302737       -0.24190041382312
H            4.24510509115287        1.01722653039898        0.42243507344964
H            1.08863843768362        0.49412473606936       -1.60432839976718
H            2.98964305897902        2.08515897561852       -0.44531975054051
H            3.46949617224859       -1.46857645371340        0.95837929812997
H           -1.58315759438218        3.07150815257058        0.29721409123426
H           -2.85965694998075        2.13938379437212       -0.53789305954175
H           -2.61464179871725        1.94144262448808        1.20569458480803
H           -1.38321129831506       -3.00524048656582        0.77562739523336
H           -0.89811517328988       -3.27969048311287       -0.92289127791516
H           -2.46782220047090       -2.53673744046325       -0.54488653723091
H            1.29275846969129       -2.72540785001166        0.76151325603927
25
 energy: -42.166205628387 gnorm: 0.006857921686 xtb: 6.6.1 (8d0f1dd)
C            3.26888730538277        1.14622986835601       -0.00911262901501
N            2.42045864051426        0.15602121664733        0.01286771782339
C            2.57738507221914       -1.09260585624924        0.51306089746370
N            1.40989373094687       -1.79309801950609        0.39637971484198
C            0.47760289667515       -1.07442743396859       -0.21265535452555
C            1.07149090241541        0.24697625750308       -0.53339037298723
C            0.17455116375122        1.35174756037765        0.10563039202100
O            0.63340568507472        2.33977242595506        0.59786528921739
N           -1.15122016284968        1.06227620047586       -0.02634629641876
C           -2.11478016389251        2.12855730751657        0.24843412362342
C           -1.72303089479192       -0.17690705235590       -0.33563307691940
O           -2.89456259962958       -0.31357209867217       -0.53095301056977
N           -0.85104306659586       -1.28005791222465       -0.31014224467400
C           -1.42369558850489       -2.61383990015772       -0.23663239429392
H            4.24242130428228        1.01461922187273        0.42488834361804
H            1.08591883779260        0.49753787913688       -1.60072627816317
H            2.98343099237117        2.09001406016308       -0.42902086621708
H            3.47622651451467       -1.47726351594864        0.94122745584039
H           -1.58034130525809        3.07324245473186        0.29154657050828
H           -2.85642446566032        2.14422137775795       -0.54815916209283
H           -2.61939584405859        1.94764161327843        1.19627473544282
H           -1.38444302630656       -2.99883705611384        0.78372396135636
H           -0.89400700659296       -3.28359110790894       -0.91163790655917
H           -2.46603758962932       -2.54109956513908       -0.54336083895491
H            1.29774018193010       -2.73531938392700        0.74704284753453
