      -----------------------------------------------------------      
     |                   =====================                   |     
     |                           x T B                           |     
     |                   =====================                   |     
     |                         S. Grimme                         |     
     |          Mulliken Center for Theoretical Chemistry        |     
     |                    University of Bonn                     |     
      -----------------------------------------------------------      

   * xtb version 6.6.1 (8d0f1dd) compiled by 'conda@1efc2f54142f' on 2023-08-01

   xtb is free software: you can redistribute it and/or modify it under
   the terms of the GNU Lesser General Public License as published by
   the Free Software Foundation, either version 3 of the License, or
   (at your option) any later version.
   
   xtb is distributed in the hope that it will be useful,
   but WITHOUT ANY WARRANTY; without even the implied warranty of
   MERCHANTABILITY or FITNESS FOR A PARTICULAR PURPOSE.  See the
   GNU Lesser General Public License for more details.
   
   Cite this work as:
   * C. Bannwarth, E. Caldeweyher, S. Ehlert, A. Hansen, P. Pracht,
     J. Seibert, S. Spicher, S. Grimme, WIREs Comput. Mol. Sci., 2020, 11,
     e01493. DOI: 10.1002/wcms.1493
   
   for GFN2-xTB:
   * C. Bannwarth, S. Ehlert and S. Grimme., J. Chem. Theory Comput., 2019,
     15, 1652-1671. DOI: 10.1021/acs.jctc.8b01176
   for GFN1-xTB:
   * S. Grimme, C. Bannwarth, P. Shushkov, J. Chem. Theory Comput., 2017,
     13, 1989-2009. DOI: 10.1021/acs.jctc.7b00118
   for GFN0-xTB:
   * P. Pracht, E. Caldeweyher, S. Ehlert, S. Grimme, ChemRxiv, 2019, preprint.
     DOI: 10.26434/chemrxiv.8326202.v1
   for GFN-FF:
   * S. Spicher and S. Grimme, Angew. Chem. Int. Ed., 2020, 59, 15665-15673.
     DOI: 10.1002/anie.202004239
   
   for ALPB and GBSA implicit solvation:
   * S. Ehlert, M. Stahn, S. Spicher, S. Grimme, J. Chem. Theory Comput.,
     2021, 17, 4250-4261. DOI: 10.1021/acs.jctc.1c00471
   
   for DFT-D4:
   * E. Caldeweyher, C. Bannwarth and S. Grimme, J. Chem. Phys., 2017,
     147, 034112. DOI: 10.1063/1.4993215
   * E. Caldeweyher, S. Ehlert, A. Hansen, H. Neugebauer, S. Spicher,
     C. Bannwarth and S. Grimme, J. Chem. Phys., 2019, 150, 154122.
     DOI: 10.1063/1.5090222
   * E. Caldeweyher, J.-M. Mewes, S. Ehlert and S. Grimme, Phys. Chem. Chem. Phys.
     2020, 22, 8499-8512. DOI: 10.1039/D0CP00502A
   
   for sTDA-xTB:
   * S. Grimme and C. Bannwarth, J. Chem. Phys., 2016, 145, 054103.
     DOI: 10.1063/1.4959605
   
   in the mass-spec context:
   * V. Asgeirsson, C. Bauer and S. Grimme, Chem. Sci., 2017, 8, 4879.
     DOI: 10.1039/c7sc00601b
   * J. Koopman and S. Grimme, ACS Omega 2019, 4, 12, 15120-15133.
     DOI: 10.1021/acsomega.9b02011
   
   for metadynamics refer to:
   * S. Grimme, J. Chem. Theory Comput., 2019, 155, 2847-2862
     DOI: 10.1021/acs.jctc.9b00143
   
   for SPH calculations refer to:
   * S. Spicher and S. Grimme, J. Chem. Theory Comput., 2021, 17, 1701-1714
     DOI: 10.1021/acs.jctc.0c01306
   
   with help from (in alphabetical order)
   P. Atkinson, C. Bannwarth, F. Bohle, G. Brandenburg, E. Caldeweyher
   M. Checinski, S. Dohm, S. Ehlert, S. Ehrlich, I. Gerasimov, C. Hölzer
   A. Katbashev, J. Koopman, C. Lavigne, S. Lehtola, F. März, M. Müller,
   F. Musil, H. Neugebauer, J. Pisarek, C. Plett, P. Pracht, F. Pultar,
   J. Seibert, P. Shushkov, S. Spicher, M. Stahn, M. Steiner, T. Strunk,
   J. Stückrath, T. Rose, and J. Unsleber
   
 * started run on 2024/04/06 at 11:14:40.411     

           -------------------------------------------------
          |                Calculation Setup                |
           -------------------------------------------------

          program call               : xtb xtbopt.xyz --opt crude --input .xc2 --gfn2
          hostname                   : n-62-30-23
          coordinate file            : xtbopt.xyz
          omp threads                :                     1

   ID    Z sym.   atoms
    1    7 N      1, 17
    2    6 C      2-6, 8, 9, 11-16, 18-23, 25, 26, 28-33
    3    8 O      7, 10, 24, 27
    4    1 H      34-72

molecular fragmentation (1/2 indicates fragments):
111111111111111111111111111211111111111111111111111111111222111111111111
# atoms in fragment 1/2:    68     4
 fragment masses (1/2) :      440.58       15.03
CMA distance (Bohr)    :  19.100
constraining FC (au)   :  0.0500
########################################################################
[WARNING] Please study the warnings concerning your input carefully
-1- readin_getIntValue: could not parse ''
########################################################################

           -------------------------------------------------
          |                 G F N 2 - x T B                 |
           -------------------------------------------------

        Reference                      10.1021/acs.jctc.8b01176
      * Hamiltonian:
        H0-scaling (s, p, d)           1.850000    2.230000    2.230000
        zeta-weighting                 0.500000
      * Dispersion:
        s8                             2.700000
        a1                             0.520000
        a2                             5.000000
        s9                             5.000000
      * Repulsion:
        kExp                           1.500000    1.000000
        rExp                           1.000000
      * Coulomb:
        alpha                          2.000000
        third order                    shell-resolved
        anisotropic                    true
        a3                             3.000000
        a5                             4.000000
        cn-shift                       1.200000
        cn-exp                         4.000000
        max-rad                        5.000000

q/qsh data taken from xtbrestart
CAMM data taken from xtbrestart

          ...................................................
          :                      SETUP                      :
          :.................................................:
          :  # basis functions                 171          :
          :  # atomic orbitals                 171          :
          :  # shells                          105          :
          :  # electrons                       180          :
          :  max. iterations                   250          :
          :  Hamiltonian                  GFN2-xTB          :
          :  restarted?                       true          :
          :  GBSA solvation                  false          :
          :  PC potential                    false          :
          :  electronic temp.         5000.0000000     K    :
          :  accuracy                    1.0000000          :
          :  -> integral cutoff          0.2500000E+02      :
          :  -> integral neglect         0.1000000E-07      :
          :  -> SCF convergence          0.1000000E-05 Eh   :
          :  -> wf. convergence          0.1000000E-03 e    :
          :  Broyden damping             0.4000000          :
          ...................................................

 iter      E             dE          RMSdq      gap      omega  full diag
   1   -100.6808621 -0.100681E+03  0.400E-05    0.38       0.0  T
   2   -100.6808621  0.377068E-08  0.190E-04    0.38      62.1  T
   3   -100.6808621 -0.392153E-08  0.112E-05    0.38    1055.9  T

   *** convergence criteria satisfied after 3 iterations ***

         #    Occupation            Energy/Eh            Energy/eV
      -------------------------------------------------------------
         1        2.0000           -0.8125304             -22.1101
       ...           ...                  ...                  ...
        84        1.9934           -0.5129884             -13.9591
        85        1.9783           -0.4940036             -13.4425
        86        1.9559           -0.4826189             -13.1327
        87        1.9299           -0.4750826             -12.9277
        88        1.8527           -0.4626773             -12.5901
        89        1.8362           -0.4608518             -12.5404
        90        1.2664           -0.4312280             -11.7343 (HOMO)
        91        0.8388           -0.4174333             -11.3589 (LUMO)
        92        0.3610           -0.3986237             -10.8471
        93        0.0130           -0.3429745              -9.3328
        94        0.0031           -0.3200132              -8.7080
        95        0.0025           -0.3170482              -8.6273
       ...           ...                  ...                  ...
       171                          0.6068920              16.5144
      -------------------------------------------------------------
                  HL-Gap            0.0137946 Eh            0.3754 eV
             Fermi-level           -0.4225816 Eh          -11.4990 eV

 SCC (total)                   0 d,  0 h,  0 min,  0.117 sec
 SCC setup                      ...        0 min,  0.001 sec (  0.861%)
 Dispersion                     ...        0 min,  0.002 sec (  1.473%)
 classical contributions        ...        0 min,  0.000 sec (  0.366%)
 integral evaluation            ...        0 min,  0.018 sec ( 15.295%)
 iterations                     ...        0 min,  0.027 sec ( 22.986%)
 molecular gradient             ...        0 min,  0.069 sec ( 58.450%)
 printout                       ...        0 min,  0.001 sec (  0.556%)

         :::::::::::::::::::::::::::::::::::::::::::::::::::::
         ::                     SUMMARY                     ::
         :::::::::::::::::::::::::::::::::::::::::::::::::::::
         :: total energy             -99.294237887511 Eh    ::
         :: gradient norm              0.002655385813 Eh/a0 ::
         :: HOMO-LUMO gap              0.375371395563 eV    ::
         ::.................................................::
         :: SCC energy              -100.680862106702 Eh    ::
         :: -> isotropic ES            0.122975322977 Eh    ::
         :: -> anisotropic ES          0.003111993268 Eh    ::
         :: -> anisotropic XC          0.049562922210 Eh    ::
         :: -> dispersion             -0.072391002948 Eh    ::
         :: repulsion energy           1.385449432687 Eh    ::
         :: add. restraining           0.000000000000 Eh    ::
         :: total charge               1.000000000000 e     ::
         :::::::::::::::::::::::::::::::::::::::::::::::::::::

      ----------------------------------------------------------- 
     |                   =====================                   |
     |                        A N C O P T                        |
     |                   =====================                   |
     |               Approximate Normal Coordinate               |
     |                Rational Function Optimizer                |
      ----------------------------------------------------------- 

          ...................................................
          :                      SETUP                      :
          :.................................................:
          :   optimization level             crude          :
          :   max. optcycles                   200          :
          :   ANC micro-cycles                  20          :
          :   degrees of freedom               210          :
          :.................................................:
          :   RF solver                   davidson          :
          :   write xtbopt.log                true          :
          :   linear?                        false          :
          :   energy convergence         0.5000000E-03 Eh   :
          :   grad. convergence          0.1000000E-01 Eh/α :
          :   maxmium RF displ.          1.0000000          :
          :   Hlow (freq-cutoff)         0.1000000E-01      :
          :   Hmax (freq-cutoff)         5.0000000          :
          :   S6 in model hess.         20.0000000          :
          ...................................................

generating ANC from model Hessian ...
Using Lindh-Hessian (1995)
 Shifting diagonal of input Hessian by    1.0011838777108118E-002
 Lowest  eigenvalues of input Hessian
    0.010000    0.010007    0.000000    0.000000    0.000000    0.000000
    0.000000    0.000000    0.010058    0.010063    0.010082    0.010276
    0.010323    0.010427    0.010523    0.010547    0.010559    0.010602
 Highest eigenvalues
    2.004545    2.042572    2.067227    2.114538    2.182732    2.248009


........................................................................
.............................. CYCLE    1 ..............................
........................................................................

 iter      E             dE          RMSdq      gap      omega  full diag
   1   -100.6808621 -0.100681E+03  0.113E-05    0.38       0.0  T
   2   -100.6808621  0.803340E-10  0.255E-05    0.38     462.4  T
   3   -100.6808621 -0.947296E-10  0.373E-06    0.38    3159.6  T
     SCC iter.                  ...        0 min,  0.026 sec
     gradient                   ...        0 min,  0.074 sec
 * total energy  :   -99.2942379 Eh     change       -0.8455459E-11 Eh
   gradient norm :     0.0026554 Eh/α   predicted     0.0000000E+00 (-100.00%)
   displ. norm   :     0.0621811 α      lambda       -0.5619865E-04
   maximum displ.:     0.0484111 α      in ANC's #8, #5, #9, ...

   *** GEOMETRY OPTIMIZATION CONVERGED AFTER 1 ITERATIONS ***

------------------------------------------------------------------------
 total energy gain   :        -0.0000000 Eh       -0.0000 kcal/mol
 total RMSD          :         0.0000000 a0        0.0000 Å
 total power (kW/mol):        -0.0000000 (step)   -0.0000 (real)
------------------------------------------------------------------------

 ANCopt (total)                0 d,  0 h,  0 min,  0.185 sec
 optimizer setup                ...        0 min,  0.000 sec (  0.117%)
 model hessian                  ...        0 min,  0.052 sec ( 27.957%)
 ANC generation                 ...        0 min,  0.006 sec (  3.499%)
 coordinate transformation      ...        0 min,  0.000 sec (  0.025%)
 single point calculation       ...        0 min,  0.124 sec ( 66.986%)
 optimization log               ...        0 min,  0.002 sec (  0.970%)
 hessian update                 ...        0 min,  0.000 sec (  0.001%)
 rational function              ...        0 min,  0.000 sec (  0.099%)

================
 final structure:
================
72
 xtb: 6.6.1 (8d0f1dd)
N           -1.99512708565842        2.91195112158672        2.19816935023864
C           -1.96299144073125        2.19855614842037        1.17487781498442
C           -3.12644566098676        1.97619651672394        0.24866852332620
C           -3.55742421502267        0.51859435780788        0.31871639726873
C           -4.50004884074021        0.03009516703320       -0.58823859291725
C           -4.94895337615639       -1.27905747637282       -0.53167080072881
O           -5.86487809232839       -1.82509488358055       -1.35626111296312
C           -6.51390871898499       -1.01129446905332       -2.30496997216176
C           -4.43090941478902       -2.15469164071195        0.46192395249840
O           -4.92296972947675       -3.40799879521431        0.44332225217755
C           -4.51555486916099       -4.32086205605262        1.43612698819730
C           -3.49104838895956       -1.66448896090286        1.35498515893867
C           -3.06440012503586       -0.34463774342193        1.28540739979362
C           -2.60927371523888        2.31062477839134       -1.17500713048190
C           -1.65372434249678        1.25992299605019       -1.76528825230376
C           -0.30493737385955        1.28034913760854       -1.15673796908115
N            0.41432181010215        0.21073356788236       -0.85546201332191
C            1.79707010278505        0.34243571761221       -0.45836215295076
C            2.75207173337215        0.05974292456733       -1.63242084134618
C            4.17686296690755        0.15627851801226       -1.15784382289313
C            4.89230524895218        1.35032251704939       -1.29530468495371
C            6.19702384141563        1.44981424543110       -0.83802901252210
C            6.82248556830892        0.37964483901945       -0.21957662810105
O            8.07049890024530        0.37246612726743        0.25460306252441
C            8.87169683445612        1.52603928374338        0.13885075037724
C            6.10544255122336       -0.89048450336251       -0.03310681297448
O            6.62732670532143       -1.85788151112311        0.53700588839572
C            7.91230024703025       -5.12961444521645        2.34185822917878
C            4.76847250790414       -0.92194550060292       -0.54825276692054
C           -0.10867152022461       -1.12685885180643       -0.99306652142127
C           -4.35984488380970        2.86626394171901        0.58530526885767
C           -4.95643576411450        2.50336141703398        1.94295813200347
C           -4.05486604964032        4.36090724279879        0.53959406694533
H           -4.90213426736192        0.68931907096927       -1.33943913667327
H           -7.04043122864152       -0.18005261120488       -1.82641525936398
H           -7.23643491418499       -1.65840741985738       -2.79833943672501
H           -5.81209311759255       -0.62195386443158       -3.04966011566720
H           -4.77344363012333       -3.96436966116021        2.43781611534272
H           -5.06029776903898       -5.23971121153795        1.22886005971840
H           -3.44021070284364       -4.51793087807633        1.38363451040770
H           -3.09244125023184       -2.30014897976898        2.12882029454761
H           -2.35854208077639        0.00740051018031        2.02161881382514
H           -3.46428739987747        2.40412388955227       -1.84357706888969
H           -2.10511770851805        3.27727114572192       -1.14839364200119
H           -2.10947657233966        0.27317468405897       -1.70054626623920
H           -1.53350413118195        1.50211890086002       -2.82949820662627
H           -1.05192700093096        1.68360152249976        0.81215696343879
H            0.19193496286622        2.23617616980523       -1.07875455521718
H            2.00527754179699       -0.35880205381676        0.35314916729251
H            1.97543386358215        1.35431539730904       -0.08991353482913
H            2.56621519844175        0.78437083929495       -2.42659372689354
H            2.56291488177188       -0.94048458288143       -2.02213491668658
H            4.43360349983704        2.20120362460985       -1.77516320396871
H            6.72322219012567        2.38184559884704       -0.97540056693852
H            8.42495795200819        2.37435850567329        0.66556465801661
H            9.03529090001590        1.79222248428502       -0.90974601999399
H            9.82358584206662        1.27311349330410        0.60150054755744
H            8.85200351639447       -4.65797940526635        2.53167777003351
H            7.12467136440278       -5.07273811984030        3.06236901946216
H            7.74138150736817       -5.62868408376345        1.41202381100713
H            4.24320651647727       -1.85894278322729       -0.43549734209665
H           -0.32082221038546       -1.36113892299273       -2.03760837586552
H           -1.02956727191045       -1.23872985177362       -0.41607005799502
H            0.62303559911762       -1.83767913144356       -0.61972020398479
H           -5.11376086664244        2.65235870948113       -0.18088131779903
H           -4.24367694785636        2.71845253785018        2.73260746202732
H           -5.22546230404366        1.45074375471126        1.98654810209915
H           -5.85284044009102        3.09299034049164        2.11565747935600
H           -3.29159702517283        4.61267215236552        1.26929975339997
H           -3.72910392013201        4.68035807383777       -0.44672346792352
H           -4.95643482667077        4.91512355300140        0.78687427794557
H           -1.14207756336353        3.01518839648459        2.73838831183694

 Bond Distances (Angstroems)
 ---------------------------
N1-C2=1.2478         N1-H72=1.0150        C2-N1=1.2478         C2-C3=1.5036         C2-H47=1.1076        C3-C2=1.5036         
C3-C4=1.5216         C3-C14=1.5512        C3-C31=1.5578        C4-C3=1.5216         C4-C5=1.3963         C4-C13=1.3866        
C5-C4=1.3963         C5-C6=1.3851         C5-H34=1.0773        C6-C5=1.3851         C6-O7=1.3480         C6-C9=1.4221         
O7-C6=1.3480         O7-C8=1.4084         C8-O7=1.4084         C8-H35=1.0942        C8-H36=1.0882        C8-H37=1.0948        
C9-C6=1.4221         C9-O10=1.3466        C9-C12=1.3861        O10-C9=1.3466        O10-C11=1.4089       C11-O10=1.4089       
C11-H38=1.0941       C11-H39=1.0881       C11-H40=1.0945       C12-C9=1.3861        C12-C13=1.3888       C12-H41=1.0779       
C13-C4=1.3866        C13-C12=1.3888       C13-H42=1.0790       C14-C3=1.5512        C14-C15=1.5380       C14-H43=1.0894       
C14-H44=1.0905       C15-C14=1.5380       C15-C16=1.4799       C15-H45=1.0888       C15-H46=1.0980       C16-C15=1.4799       
C16-N17=1.3237       C16-H48=1.0801       N17-C16=1.3237       N17-C18=1.4447       N17-C30=1.4428       C18-N17=1.4447       
C18-C19=1.5396       C18-H49=1.0925       C18-H50=1.0915       C19-C18=1.5396       C19-C20=1.5048       C19-H51=1.0910       
C19-H52=1.0900       C20-C19=1.5048       C20-C21=1.3987       C20-C29=1.3727       C21-C20=1.3987       C21-C22=1.3861       
C21-H53=1.0792       C22-C21=1.3861       C22-C23=1.3853       C22-H54=1.0791       C23-C22=1.3853       C23-O24=1.3351       
C23-C26=1.4704       O24-C23=1.3351       O24-C25=1.4093       C25-O24=1.4093       C25-H55=1.0939       C25-H56=1.0942       
C25-H57=1.0882       C26-C23=1.4704       C26-O27=1.2382       C26-C29=1.4331       O27-C26=1.2382       C28-H58=1.0684       
C28-H59=1.0690       C28-H60=1.0691       C29-C20=1.3727       C29-C26=1.4331       C29-H61=1.0801       C30-N17=1.4428       
C30-H62=1.0913       C30-H63=1.0925       C30-H64=1.0863       C31-C3=1.5578        C31-C32=1.5267       C31-C33=1.5261       
C31-H65=1.0960       C32-C31=1.5267       C32-H66=1.0853       C32-H67=1.0873       C32-H68=1.0868       C33-C31=1.5261       
C33-H69=1.0856       C33-H70=1.0867       C33-H71=1.0868       H34-C5=1.0773        H35-C8=1.0942        H36-C8=1.0882        
H37-C8=1.0948        H38-C11=1.0941       H39-C11=1.0881       H40-C11=1.0945       H41-C12=1.0779       H42-C13=1.0790       
H43-C14=1.0894       H44-C14=1.0905       H45-C15=1.0888       H46-C15=1.0980       H47-C2=1.1076        H48-C16=1.0801       
H49-C18=1.0925       H50-C18=1.0915       H51-C19=1.0910       H52-C19=1.0900       H53-C21=1.0792       H54-C22=1.0791       
H55-C25=1.0939       H56-C25=1.0942       H57-C25=1.0882       H58-C28=1.0684       H59-C28=1.0690       H60-C28=1.0691       
H61-C29=1.0801       H62-C30=1.0913       H63-C30=1.0925       H64-C30=1.0863       H65-C31=1.0960       H66-C32=1.0853       
H67-C32=1.0873       H68-C32=1.0868       H69-C33=1.0856       H70-C33=1.0867       H71-C33=1.0868       H72-N1=1.0150        
 C  H  Rav=1.0872 sigma=0.0082  Rmin=1.0684  Rmax=1.1076    38
 C  C  Rav=1.4573 sigma=0.0665  Rmin=1.3727  Rmax=1.5578    22
 N  H  Rav=1.0150 sigma=0.0000  Rmin=1.0150  Rmax=1.0150     1
 N  C  Rav=1.3647 sigma=0.0834  Rmin=1.2478  Rmax=1.4447     4
 O  C  Rav=1.3563 sigma=0.0571  Rmin=1.2382  Rmax=1.4093     7

 selected bond angles (degree)
 --------------------
H72-N1-C2=118.23               C3-C2-N1=124.73                H47-C2-N1=123.75               H47-C2-C3=111.47               
C4-C3-C2=109.42                C14-C3-C2=105.99               C14-C3-C4=110.07               C31-C3-C2=113.27               
C31-C3-C4=108.25               C31-C3-C14=109.82              C5-C4-C3=119.76                C13-C4-C3=121.85               
C13-C4-C5=118.36               C6-C5-C4=121.53                H34-C5-C4=119.39               H34-C5-C6=119.07               
O7-C6-C5=125.32                C9-C6-C5=119.50                C9-C6-O7=115.18                C8-O7-C6=119.41                
H35-C8-O7=111.48               H36-C8-O7=105.53               H36-C8-H35=109.30              H37-C8-O7=111.61               
H37-C8-H35=109.62              H37-C8-H36=109.19              O10-C9-C6=115.49               C12-C9-C6=118.65               
C12-C9-O10=125.86              C11-O10-C9=119.19              

 selected dihedral angles (degree)
 ---------------------------------
C3-C2-N1-H72=181.80           H47-C2-N1-H72=358.98          C4-C3-C2-N1=246.17            C4-C3-C2-H47= 68.69           
C14-C3-C2-N1=127.51           C14-C3-C2-H47=310.03          C31-C3-C2-N1=  7.03           C31-C3-C2-H47=189.55          
C5-C4-C3-C2=188.77            C5-C4-C3-C14=304.86           C5-C4-C3-C31= 64.90           C13-C4-C3-C2= 10.39           
C13-C4-C3-C14=126.49          C13-C4-C3-C31=246.53          C6-C5-C4-C3=182.01            C6-C5-C4-C13=  0.44           
H34-C5-C4-C3=  0.91           H34-C5-C4-C13=179.34          O7-C6-C5-C4=179.22            O7-C6-C5-H34=  0.32           
C9-C6-C5-C4=359.32            C9-C6-C5-H34=180.42           C8-O7-C6-C5=355.12            C8-O7-C6-C9=175.03            
H35-C8-O7-C6=301.88           H36-C8-O7-C6=183.33           H37-C8-O7-C6= 64.83           O10-C9-C6-C5=180.00           
O10-C9-C6-O7=  0.09           C12-C9-C6-C5=  0.38           C12-C9-C6-O7=180.46           C11-O10-C9-C6=183.26          
C11-O10-C9-C12=  2.85         

 CMA Distance (Angstroems)
 ---------------------------
R(CMA): 10.1071
           -------------------------------------------------
          |                Final Singlepoint                |
           -------------------------------------------------

          ...................................................
          :                      SETUP                      :
          :.................................................:
          :  # basis functions                 171          :
          :  # atomic orbitals                 171          :
          :  # shells                          105          :
          :  # electrons                       180          :
          :  max. iterations                   250          :
          :  Hamiltonian                  GFN2-xTB          :
          :  restarted?                      false          :
          :  GBSA solvation                  false          :
          :  PC potential                    false          :
          :  electronic temp.         5000.0000000     K    :
          :  accuracy                    1.0000000          :
          :  -> integral cutoff          0.2500000E+02      :
          :  -> integral neglect         0.1000000E-07      :
          :  -> SCF convergence          0.1000000E-05 Eh   :
          :  -> wf. convergence          0.1000000E-03 e    :
          :  Broyden damping             0.4000000          :
          ...................................................

 iter      E             dE          RMSdq      gap      omega  full diag
   1   -100.6808621 -0.100681E+03  0.281E-06    0.38       0.0  T
   2   -100.6808621  0.615330E-11  0.771E-06    0.38    1527.7  T
   3   -100.6808621 -0.588329E-11  0.308E-06    0.38    3825.2  T

   *** convergence criteria satisfied after 3 iterations ***

         #    Occupation            Energy/Eh            Energy/eV
      -------------------------------------------------------------
         1        2.0000           -0.8125303             -22.1101
       ...           ...                  ...                  ...
        84        1.9934           -0.5129883             -13.9591
        85        1.9783           -0.4940035             -13.4425
        86        1.9559           -0.4826190             -13.1327
        87        1.9299           -0.4750826             -12.9277
        88        1.8527           -0.4626772             -12.5901
        89        1.8362           -0.4608520             -12.5404
        90        1.2664           -0.4312281             -11.7343 (HOMO)
        91        0.8388           -0.4174332             -11.3589 (LUMO)
        92        0.3610           -0.3986236             -10.8471
        93        0.0130           -0.3429744              -9.3328
        94        0.0031           -0.3200131              -8.7080
        95        0.0025           -0.3170481              -8.6273
       ...           ...                  ...                  ...
       171                          0.6068919              16.5144
      -------------------------------------------------------------
                  HL-Gap            0.0137949 Eh            0.3754 eV
             Fermi-level           -0.4225816 Eh          -11.4990 eV

 SCC (total)                   0 d,  0 h,  0 min,  0.116 sec
 SCC setup                      ...        0 min,  0.001 sec (  0.754%)
 Dispersion                     ...        0 min,  0.001 sec (  1.093%)
 classical contributions        ...        0 min,  0.000 sec (  0.372%)
 integral evaluation            ...        0 min,  0.018 sec ( 15.158%)
 iterations                     ...        0 min,  0.026 sec ( 22.723%)
 molecular gradient             ...        0 min,  0.069 sec ( 59.345%)
 printout                       ...        0 min,  0.001 sec (  0.541%)

         :::::::::::::::::::::::::::::::::::::::::::::::::::::
         ::                     SUMMARY                     ::
         :::::::::::::::::::::::::::::::::::::::::::::::::::::
         :: total energy             -99.294237887519 Eh    ::
         :: gradient norm              0.002655432656 Eh/a0 ::
         :: HOMO-LUMO gap              0.375378711807 eV    ::
         ::.................................................::
         :: SCC energy              -100.680862106710 Eh    ::
         :: -> isotropic ES            0.122975628934 Eh    ::
         :: -> anisotropic ES          0.003111981256 Eh    ::
         :: -> anisotropic XC          0.049562937180 Eh    ::
         :: -> dispersion             -0.072391005792 Eh    ::
         :: repulsion energy           1.385449432687 Eh    ::
         :: add. restraining           0.000000000000 Eh    ::
         :: total charge               1.000000000000 e     ::
         :::::::::::::::::::::::::::::::::::::::::::::::::::::

           -------------------------------------------------
          |                Property Printout                |
           -------------------------------------------------

    * Orbital Energies and Occupations

         #    Occupation            Energy/Eh            Energy/eV
      -------------------------------------------------------------
         1        2.0000           -0.8125303             -22.1101
       ...           ...                  ...                  ...
        78        1.9980           -0.5319466             -14.4750
        79        1.9979           -0.5310311             -14.4501
        80        1.9971           -0.5258035             -14.3078
        81        1.9959           -0.5205701             -14.1654
        82        1.9952           -0.5182228             -14.1016
        83        1.9944           -0.5156279             -14.0309
        84        1.9934           -0.5129883             -13.9591
        85        1.9783           -0.4940035             -13.4425
        86        1.9559           -0.4826190             -13.1327
        87        1.9299           -0.4750826             -12.9277
        88        1.8527           -0.4626772             -12.5901
        89        1.8362           -0.4608520             -12.5404
        90        1.2664           -0.4312281             -11.7343 (HOMO)
        91        0.8388           -0.4174332             -11.3589 (LUMO)
        92        0.3610           -0.3986236             -10.8471
        93        0.0130           -0.3429744              -9.3328
        94        0.0031           -0.3200131              -8.7080
        95        0.0025           -0.3170481              -8.6273
        96        0.0013           -0.3065434              -8.3415
        97        0.0006           -0.2943154              -8.0087
        98        0.0000           -0.1944518              -5.2913
        99        0.0000           -0.1825088              -4.9663
       100                         -0.1387711              -3.7762
       101                         -0.0718496              -1.9551
       ...                                ...                  ...
       171                          0.6068919              16.5144
      -------------------------------------------------------------
                  HL-Gap            0.0137949 Eh            0.3754 eV
             Fermi-level           -0.4225816 Eh          -11.4990 eV

     #   Z          covCN         q      C6AA      α(0)
     1   7 N        1.774    -0.265    27.695     7.793
     2   6 C        2.827     0.102    25.740     8.313
     3   6 C        3.907     0.006    20.412     6.422
     4   6 C        2.974     0.002    27.967     8.675
     5   6 C        2.920    -0.080    29.992     8.981
     6   6 C        2.862     0.130    25.143     8.219
     7   8 O        1.706    -0.227    17.769     5.691
     8   6 C        3.644     0.027    20.462     6.502
     9   6 C        2.864     0.130    25.155     8.221
    10   8 O        1.706    -0.225    17.736     5.686
    11   6 C        3.645     0.026    20.474     6.503
    12   6 C        2.913    -0.074    29.839     8.957
    13   6 C        2.921    -0.052    29.302     8.877
    14   6 C        3.812    -0.065    21.741     6.637
    15   6 C        3.802    -0.070    21.836     6.653
    16   6 C        2.845     0.011    27.772     8.637
    17   7 N        2.729     0.018    20.944     6.797
    18   6 C        3.757    -0.018    20.946     6.525
    19   6 C        3.809    -0.071    21.846     6.653
    20   6 C        2.961     0.006    27.894     8.663
    21   6 C        2.921    -0.043    29.074     8.842
    22   6 C        2.905    -0.067    29.660     8.930
    23   6 C        2.858     0.130    25.159     8.221
    24   8 O        1.706    -0.193    17.230     5.604
    25   6 C        3.646     0.022    20.532     6.512
    26   6 C        2.827     0.200    23.741     7.984
    27   8 O        0.858    -0.370    21.096     6.158
    28   6 C        2.780    -0.107    30.674     9.071
    29   6 C        2.917    -0.075    29.882     8.964
    30   6 C        3.701    -0.072    22.041     6.714
    31   6 C        3.853    -0.007    20.675     6.467
    32   6 C        3.756    -0.119    22.827     6.812
    33   6 C        3.755    -0.119    22.842     6.815
    34   1 H        0.926     0.053     2.286     2.364
    35   1 H        0.924     0.055     2.260     2.351
    36   1 H        0.925     0.083     1.953     2.185
    37   1 H        0.924     0.048     2.339     2.392
    38   1 H        0.924     0.057     2.240     2.340
    39   1 H        0.925     0.083     1.952     2.185
    40   1 H        0.924     0.050     2.319     2.381
    41   1 H        0.926     0.054     2.270     2.356
    42   1 H        0.926     0.040     2.451     2.448
    43   1 H        0.925     0.061     2.182     2.310
    44   1 H        0.924     0.055     2.261     2.352
    45   1 H        0.925     0.068     2.107     2.270
    46   1 H        0.923     0.083     1.952     2.185
    47   1 H        0.922     0.007     2.934     2.679
    48   1 H        0.926     0.073     2.053     2.241
    49   1 H        0.924     0.074     2.045     2.236
    50   1 H        0.924     0.067     2.114     2.274
    51   1 H        0.924     0.054     2.266     2.354
    52   1 H        0.925     0.059     2.205     2.322
    53   1 H        0.926     0.045     2.380     2.413
    54   1 H        0.926     0.056     2.250     2.346
    55   1 H        0.924     0.059     2.207     2.323
    56   1 H        0.924     0.062     2.182     2.310
    57   1 H        0.925     0.086     1.917     2.165
    58   1 H        0.927     0.092     1.855     2.130
    59   1 H        0.927     0.087     1.906     2.159
    60   1 H        0.927     0.089     1.884     2.147
    61   1 H        0.926     0.057     2.233     2.337
    62   1 H        0.924     0.079     1.989     2.205
    63   1 H        0.924     0.080     1.984     2.202
    64   1 H        0.925     0.086     1.921     2.167
    65   1 H        0.924     0.038     2.473     2.459
    66   1 H        0.925     0.069     2.098     2.265
    67   1 H        0.925     0.036     2.505     2.475
    68   1 H        0.925     0.052     2.290     2.367
    69   1 H        0.925     0.062     2.172     2.305
    70   1 H        0.925     0.035     2.513     2.479
    71   1 H        0.925     0.056     2.252     2.347
    72   1 H        0.860     0.159     1.341     1.814

 Mol. C6AA /au·bohr⁶  :      47696.527001
 Mol. C8AA /au·bohr⁸  :    1089888.593918
 Mol. α(0) /au        :        336.140228


Wiberg/Mayer (AO) data.
largest (>0.10) Wiberg bond orders for each atom

 ---------------------------------------------------------------------------
     #   Z sym  total        # sym  WBO       # sym  WBO       # sym  WBO
 ---------------------------------------------------------------------------
     1   7 N    3.042 --     2 C    1.959    72 H    0.941
     2   6 C    3.930 --     1 N    1.959     3 C    0.994    47 H    0.898
     3   6 C    3.975 --     2 C    0.994     4 C    0.970    14 C    0.956
                            31 C    0.942
     4   6 C    3.945 --    13 C    1.412     5 C    1.369     3 C    0.970
     5   6 C    3.960 --     6 C    1.399     4 C    1.369    34 H    0.958
     6   6 C    3.902 --     5 C    1.399     9 C    1.218     7 O    1.103
     7   8 O    2.254 --     6 C    1.103     8 C    0.977
     8   6 C    3.931 --     7 O    0.977    36 H    0.976    35 H    0.973
                            37 H    0.973
     9   6 C    3.898 --    12 C    1.389     6 C    1.218    10 O    1.106
    10   8 O    2.254 --     9 C    1.106    11 C    0.976
    11   6 C    3.929 --    39 H    0.977    10 O    0.976    40 H    0.973
                            38 H    0.973
    12   6 C    3.960 --    13 C    1.407     9 C    1.389    41 H    0.963
    13   6 C    3.951 --     4 C    1.412    12 C    1.407    42 H    0.962
    14   6 C    3.974 --    15 C    0.984    44 H    0.972    43 H    0.968
                             3 C    0.956
    15   6 C    3.986 --    16 C    1.060    14 C    0.984    45 H    0.960
                            46 H    0.925
    16   6 C    3.619 --    17 N    1.421    15 C    1.060    48 H    0.956
    17   7 N    3.498 --    16 C    1.421    30 C    0.998    18 C    0.986
    18   6 C    3.952 --    17 N    0.986    50 H    0.968    19 C    0.967
                            49 H    0.962
    19   6 C    3.972 --    20 C    1.002    51 H    0.973    52 H    0.970
                            18 C    0.967
    20   6 C    3.936 --    29 C    1.495    21 C    1.322    19 C    1.002
    21   6 C    3.808 --    22 C    1.418    20 C    1.322    53 H    0.968
    22   6 C    3.942 --    21 C    1.418    23 C    1.388    54 H    0.959
    23   6 C    3.733 --    22 C    1.388    24 O    1.151    26 C    1.050
    24   8 O    2.255 --    23 C    1.151    25 C    0.972
    25   6 C    3.922 --    57 H    0.976    24 O    0.972    55 H    0.970
                            56 H    0.970
    26   6 C    3.883 --    27 O    1.577    29 C    1.164    23 C    1.050
    27   8 O    1.713 --    26 C    1.577
    28   6 C    2.969 --    59 H    0.990    60 H    0.990    58 H    0.989
    29   6 C    3.796 --    20 C    1.495    26 C    1.164    61 H    0.964
    30   6 C    3.956 --    17 N    0.998    64 H    0.977    62 H    0.966
                            63 H    0.963
    31   6 C    3.971 --    33 C    1.009    32 C    1.008    65 H    0.959
                             3 C    0.942
    32   6 C    3.977 --    31 C    1.008    67 H    0.981    68 H    0.981
                            66 H    0.974
    33   6 C    3.981 --    31 C    1.009    70 H    0.982    71 H    0.980
                            69 H    0.975
    34   1 H    0.996 --     5 C    0.958
    35   1 H    0.993 --     8 C    0.973
    36   1 H    0.992 --     8 C    0.976
    37   1 H    0.993 --     8 C    0.973
    38   1 H    0.992 --    11 C    0.973
    39   1 H    0.992 --    11 C    0.977
    40   1 H    0.993 --    11 C    0.973
    41   1 H    0.995 --    12 C    0.963
    42   1 H    0.998 --    13 C    0.962
    43   1 H    0.995 --    14 C    0.968
    44   1 H    0.996 --    14 C    0.972
    45   1 H    0.994 --    15 C    0.960
    46   1 H    0.970 --    15 C    0.925
    47   1 H    0.985 --     2 C    0.898
    48   1 H    0.994 --    16 C    0.956
    49   1 H    0.990 --    18 C    0.962
    50   1 H    0.994 --    18 C    0.968
    51   1 H    0.996 --    19 C    0.973
    52   1 H    0.995 --    19 C    0.970
    53   1 H    0.997 --    21 C    0.968
    54   1 H    0.991 --    22 C    0.959
    55   1 H    0.987 --    25 C    0.970
    56   1 H    0.987 --    25 C    0.970
    57   1 H    0.992 --    25 C    0.976
    58   1 H    0.991 --    28 C    0.989
    59   1 H    0.992 --    28 C    0.990
    60   1 H    0.992 --    28 C    0.990
    61   1 H    0.993 --    29 C    0.964
    62   1 H    0.985 --    30 C    0.966
    63   1 H    0.987 --    30 C    0.963
    64   1 H    0.993 --    30 C    0.977
    65   1 H    0.992 --    31 C    0.959
    66   1 H    0.990 --    32 C    0.974
    67   1 H    0.996 --    32 C    0.981
    68   1 H    0.994 --    32 C    0.981
    69   1 H    0.992 --    33 C    0.975
    70   1 H    0.997 --    33 C    0.982
    71   1 H    0.993 --    33 C    0.980
    72   1 H    0.969 --     1 N    0.941
 ---------------------------------------------------------------------------

Topologies differ in total number of bonds
Writing topology from bond orders to xtbtopo.mol

molecular dipole:
                 x           y           z       tot (Debye)
 q only:        0.048       0.377      -0.823
   full:        0.377       0.583      -1.068       3.237
molecular quadrupole (traceless):
                xx          xy          yy          xz          yz          zz
 q only:       55.653       2.134     -14.946      13.026     -15.867     -40.707
  q+dip:       51.566      11.539     -14.831      14.328     -18.919     -36.735
   full:       51.115      10.741     -15.834      11.800     -18.720     -35.282

           -------------------------------------------------
          |                Geometry Summary                 |
           -------------------------------------------------

      molecular mass/u    :      455.6105846
   center of mass at/Å    :       -0.0409323       0.0329756      -0.0378993
  moments of inertia/u·Å² :        0.2796403E+04   0.1139096E+05   0.1284676E+05
rotational constants/cm⁻¹ :        0.6028327E-02   0.1479913E-02   0.1312209E-02

 * 64 selected distances

     #   Z          #   Z                                           value/Å
     1   7 N        2   6 C                                       1.2478345
     4   6 C        5   6 C                                       1.3963310
     5   6 C        6   6 C                                       1.3851340
     6   6 C        7   8 O                                       1.3479705
     7   8 O        8   6 C                                       1.4083894
     6   6 C        9   6 C                                       1.4220885
     9   6 C       10   8 O                                       1.3465692
    10   8 O       11   6 C                                       1.4088889
     9   6 C       12   6 C                                       1.3860722
     4   6 C       13   6 C                                       1.3866269
    12   6 C       13   6 C                                       1.3888403
    14   6 C       15   6 C                                       1.5380121
    15   6 C       16   6 C                                       1.4798572
    16   6 C       17   7 N                                       1.3236989
    17   7 N       18   6 C                                       1.4446546
    18   6 C       19   6 C                                       1.5395966 (max)
    20   6 C       21   6 C                                       1.3987475
    21   6 C       22   6 C                                       1.3861063
    22   6 C       23   6 C                                       1.3852612
    23   6 C       24   8 O                                       1.3350788
    24   8 O       25   6 C                                       1.4092722
    26   6 C       27   8 O                                       1.2382442
    20   6 C       29   6 C                                       1.3726509
    26   6 C       29   6 C                                       1.4331275
    17   7 N       30   6 C                                       1.4427789
    31   6 C       32   6 C                                       1.5267091
    31   6 C       33   6 C                                       1.5261260
     5   6 C       34   1 H                                       1.0772889
     8   6 C       35   1 H                                       1.0941681
     8   6 C       36   1 H                                       1.0882155
     8   6 C       37   1 H                                       1.0948492
    11   6 C       38   1 H                                       1.0940634
    11   6 C       39   1 H                                       1.0881123
    11   6 C       40   1 H                                       1.0945122
    12   6 C       41   1 H                                       1.0778554
    13   6 C       42   1 H                                       1.0789689
    14   6 C       43   1 H                                       1.0893927
    14   6 C       44   1 H                                       1.0905443
    15   6 C       45   1 H                                       1.0888407
    15   6 C       46   1 H                                       1.0980231
    16   6 C       48   1 H                                       1.0800783
    18   6 C       49   1 H                                       1.0925363
    18   6 C       50   1 H                                       1.0915442
    19   6 C       51   1 H                                       1.0910266
    19   6 C       52   1 H                                       1.0900058
    21   6 C       53   1 H                                       1.0791989
    22   6 C       54   1 H                                       1.0790914
    25   6 C       55   1 H                                       1.0939145
    25   6 C       56   1 H                                       1.0941535
    25   6 C       57   1 H                                       1.0881678
    28   6 C       58   1 H                                       1.0684164 (min)
    28   6 C       59   1 H                                       1.0689856
    28   6 C       60   1 H                                       1.0690538
    29   6 C       61   1 H                                       1.0800844
    30   6 C       62   1 H                                       1.0913125
    30   6 C       63   1 H                                       1.0924693
    30   6 C       64   1 H                                       1.0863004
    31   6 C       65   1 H                                       1.0959867
    32   6 C       66   1 H                                       1.0852813
    32   6 C       67   1 H                                       1.0873268
    32   6 C       68   1 H                                       1.0867515
    33   6 C       69   1 H                                       1.0855578
    33   6 C       70   1 H                                       1.0867347
    33   6 C       71   1 H                                       1.0867979

 * 4 distinct bonds (by element types)

   Z      Z             #   av. dist./Å        max./Å        min./Å
   1 H    6 C          37     1.0866381     1.0980231     1.0684164
   6 C    6 C          16     1.4344555     1.5395966     1.3726509
   6 C    7 N           4     1.3647417     1.4446546     1.2478345
   6 C    8 O           7     1.3563447     1.4092722     1.2382442


optimized geometry written to: xtbopt.xyz


           -------------------------------------------------
          | TOTAL ENERGY              -99.294237887519 Eh   |
          | GRADIENT NORM               0.002655432656 Eh/α |
          | HOMO-LUMO GAP               0.375378711807 eV   |
           -------------------------------------------------

------------------------------------------------------------------------
 * finished run on 2024/04/06 at 11:14:40.883     
------------------------------------------------------------------------
 total:
 * wall-time:     0 d,  0 h,  0 min,  0.471 sec
 *  cpu-time:     0 d,  0 h,  0 min,  0.444 sec
 * ratio c/w:     0.942 speedup
 SCF:
 * wall-time:     0 d,  0 h,  0 min,  0.118 sec
 *  cpu-time:     0 d,  0 h,  0 min,  0.118 sec
 * ratio c/w:     1.000 speedup
 ANC optimizer:
 * wall-time:     0 d,  0 h,  0 min,  0.308 sec
 *  cpu-time:     0 d,  0 h,  0 min,  0.301 sec
 * ratio c/w:     0.978 speedup

