      -----------------------------------------------------------      
     |                   =====================                   |     
     |                           x T B                           |     
     |                   =====================                   |     
     |                         S. Grimme                         |     
     |          Mulliken Center for Theoretical Chemistry        |     
     |                    University of Bonn                     |     
      -----------------------------------------------------------      

   * xtb version 6.6.1 (8d0f1dd) compiled by 'conda@1efc2f54142f' on 2023-08-01

   xtb is free software: you can redistribute it and/or modify it under
   the terms of the GNU Lesser General Public License as published by
   the Free Software Foundation, either version 3 of the License, or
   (at your option) any later version.
   
   xtb is distributed in the hope that it will be useful,
   but WITHOUT ANY WARRANTY; without even the implied warranty of
   MERCHANTABILITY or FITNESS FOR A PARTICULAR PURPOSE.  See the
   GNU Lesser General Public License for more details.
   
   Cite this work as:
   * C. Bannwarth, E. Caldeweyher, S. Ehlert, A. Hansen, P. Pracht,
     J. Seibert, S. Spicher, S. Grimme, WIREs Comput. Mol. Sci., 2020, 11,
     e01493. DOI: 10.1002/wcms.1493
   
   for GFN2-xTB:
   * C. Bannwarth, S. Ehlert and S. Grimme., J. Chem. Theory Comput., 2019,
     15, 1652-1671. DOI: 10.1021/acs.jctc.8b01176
   for GFN1-xTB:
   * S. Grimme, C. Bannwarth, P. Shushkov, J. Chem. Theory Comput., 2017,
     13, 1989-2009. DOI: 10.1021/acs.jctc.7b00118
   for GFN0-xTB:
   * P. Pracht, E. Caldeweyher, S. Ehlert, S. Grimme, ChemRxiv, 2019, preprint.
     DOI: 10.26434/chemrxiv.8326202.v1
   for GFN-FF:
   * S. Spicher and S. Grimme, Angew. Chem. Int. Ed., 2020, 59, 15665-15673.
     DOI: 10.1002/anie.202004239
   
   for ALPB and GBSA implicit solvation:
   * S. Ehlert, M. Stahn, S. Spicher, S. Grimme, J. Chem. Theory Comput.,
     2021, 17, 4250-4261. DOI: 10.1021/acs.jctc.1c00471
   
   for DFT-D4:
   * E. Caldeweyher, C. Bannwarth and S. Grimme, J. Chem. Phys., 2017,
     147, 034112. DOI: 10.1063/1.4993215
   * E. Caldeweyher, S. Ehlert, A. Hansen, H. Neugebauer, S. Spicher,
     C. Bannwarth and S. Grimme, J. Chem. Phys., 2019, 150, 154122.
     DOI: 10.1063/1.5090222
   * E. Caldeweyher, J.-M. Mewes, S. Ehlert and S. Grimme, Phys. Chem. Chem. Phys.
     2020, 22, 8499-8512. DOI: 10.1039/D0CP00502A
   
   for sTDA-xTB:
   * S. Grimme and C. Bannwarth, J. Chem. Phys., 2016, 145, 054103.
     DOI: 10.1063/1.4959605
   
   in the mass-spec context:
   * V. Asgeirsson, C. Bauer and S. Grimme, Chem. Sci., 2017, 8, 4879.
     DOI: 10.1039/c7sc00601b
   * J. Koopman and S. Grimme, ACS Omega 2019, 4, 12, 15120-15133.
     DOI: 10.1021/acsomega.9b02011
   
   for metadynamics refer to:
   * S. Grimme, J. Chem. Theory Comput., 2019, 155, 2847-2862
     DOI: 10.1021/acs.jctc.9b00143
   
   for SPH calculations refer to:
   * S. Spicher and S. Grimme, J. Chem. Theory Comput., 2021, 17, 1701-1714
     DOI: 10.1021/acs.jctc.0c01306
   
   with help from (in alphabetical order)
   P. Atkinson, C. Bannwarth, F. Bohle, G. Brandenburg, E. Caldeweyher
   M. Checinski, S. Dohm, S. Ehlert, S. Ehrlich, I. Gerasimov, C. Hölzer
   A. Katbashev, J. Koopman, C. Lavigne, S. Lehtola, F. März, M. Müller,
   F. Musil, H. Neugebauer, J. Pisarek, C. Plett, P. Pracht, F. Pultar,
   J. Seibert, P. Shushkov, S. Spicher, M. Stahn, M. Steiner, T. Strunk,
   J. Stückrath, T. Rose, and J. Unsleber
   
 * started run on 2024/06/05 at 20:00:08.280     

           -------------------------------------------------
          |                Calculation Setup                |
           -------------------------------------------------

          program call               : xtb struc.xyz --opt loose --input .xc1 --gfn2
          hostname                   : n-62-12-66
          coordinate file            : struc.xyz
          omp threads                :                     1

   ID    Z sym.   atoms
    1    6 C      1, 3, 5-7, 10, 11, 14
    2    7 N      2, 4, 9, 13
    3    8 O      8, 12
    4    1 H      15-25
constraining bond 4 18 to    4.0600000 Å, actual value:    2.1494719 Å

           -------------------------------------------------
          |                 G F N 2 - x T B                 |
           -------------------------------------------------

        Reference                      10.1021/acs.jctc.8b01176
      * Hamiltonian:
        H0-scaling (s, p, d)           1.850000    2.230000    2.230000
        zeta-weighting                 0.500000
      * Dispersion:
        s8                             2.700000
        a1                             0.520000
        a2                             5.000000
        s9                             5.000000
      * Repulsion:
        kExp                           1.500000    1.000000
        rExp                           1.000000
      * Coulomb:
        alpha                          2.000000
        third order                    shell-resolved
        anisotropic                    true
        a3                             3.000000
        a5                             4.000000
        cn-shift                       1.200000
        cn-exp                         4.000000
        max-rad                        5.000000


          ...................................................
          :                      SETUP                      :
          :.................................................:
          :  # basis functions                  67          :
          :  # atomic orbitals                  67          :
          :  # shells                           39          :
          :  # electrons                        74          :
          :  max. iterations                   250          :
          :  Hamiltonian                  GFN2-xTB          :
          :  restarted?                      false          :
          :  GBSA solvation                  false          :
          :  PC potential                    false          :
          :  electronic temp.         5000.0000000     K    :
          :  accuracy                    1.0000000          :
          :  -> integral cutoff          0.2500000E+02      :
          :  -> integral neglect         0.1000000E-07      :
          :  -> SCF convergence          0.1000000E-05 Eh   :
          :  -> wf. convergence          0.1000000E-03 e    :
          :  Broyden damping             0.4000000          :
          ...................................................

 iter      E             dE          RMSdq      gap      omega  full diag
   1    -42.5894031 -0.425894E+02  0.445E+00    3.52       0.0  T
   2    -42.7683054 -0.178902E+00  0.251E+00    3.36       1.0  T
   3    -42.7759211 -0.761567E-02  0.147E+00    3.35       1.0  T
   4    -42.7728404  0.308066E-02  0.553E-01    3.33       1.0  T
   5    -42.7789548 -0.611444E-02  0.112E-01    3.35       1.0  T
   6    -42.7790473 -0.924914E-04  0.614E-02    3.33       1.0  T
   7    -42.7790721 -0.247928E-04  0.258E-02    3.34       1.0  T
   8    -42.7790772 -0.508996E-05  0.938E-03    3.34       2.1  T
   9    -42.7790779 -0.669422E-06  0.448E-03    3.34       4.5  T
  10    -42.7790780 -0.821510E-07  0.115E-03    3.34      17.4  T
  11    -42.7790780 -0.322663E-08  0.553E-04    3.34      36.2  T
  12    -42.7790780 -0.287051E-08  0.180E-04    3.34     111.1  T

   *** convergence criteria satisfied after 12 iterations ***

         #    Occupation            Energy/Eh            Energy/eV
      -------------------------------------------------------------
         1        2.0000           -0.9185990             -24.9964
       ...           ...                  ...                  ...
        31        1.9996           -0.6230278             -16.9534
        32        1.9995           -0.6194601             -16.8564
        33        1.9979           -0.5974976             -16.2587
        34        1.9932           -0.5789629             -15.7544
        35        1.9817           -0.5631863             -15.3251
        36        1.9779           -0.5602245             -15.2445
        37        1.9748           -0.5581234             -15.1873 (HOMO)
        38        0.0652           -0.4353579             -11.8467 (LUMO)
        39        0.0099           -0.4050467             -11.0219
        40        0.0013           -0.3732218             -10.1559
        41        0.0000           -0.2886859              -7.8555
        42                         -0.2065804              -5.6213
       ...                                ...                  ...
        67                          0.5625656              15.3082
      -------------------------------------------------------------
                  HL-Gap            0.1227656 Eh            3.3406 eV
             Fermi-level           -0.4890455 Eh          -13.3076 eV

 SCC (total)                   0 d,  0 h,  0 min,  0.034 sec
 SCC setup                      ...        0 min,  0.000 sec (  0.805%)
 Dispersion                     ...        0 min,  0.000 sec (  0.747%)
 classical contributions        ...        0 min,  0.000 sec (  0.235%)
 integral evaluation            ...        0 min,  0.005 sec ( 14.716%)
 iterations                     ...        0 min,  0.016 sec ( 47.009%)
 molecular gradient             ...        0 min,  0.012 sec ( 36.050%)
 printout                       ...        0 min,  0.000 sec (  0.417%)

         :::::::::::::::::::::::::::::::::::::::::::::::::::::
         ::                     SUMMARY                     ::
         :::::::::::::::::::::::::::::::::::::::::::::::::::::
         :: total energy             -35.730456580078 Eh    ::
         :: gradient norm              5.107744494205 Eh/a0 ::
         :: HOMO-LUMO gap              3.340621582928 eV    ::
         ::.................................................::
         :: SCC energy               -42.779077977399 Eh    ::
         :: -> isotropic ES            0.141123876439 Eh    ::
         :: -> anisotropic ES         -0.005230418907 Eh    ::
         :: -> anisotropic XC          0.011966818540 Eh    ::
         :: -> dispersion             -0.022657731803 Eh    ::
         :: repulsion energy           0.531105277918 Eh    ::
         :: add. restraining           6.517401960393 Eh    ::
         :: total charge               1.000000000002 e     ::
         :::::::::::::::::::::::::::::::::::::::::::::::::::::

      ----------------------------------------------------------- 
     |                   =====================                   |
     |                        A N C O P T                        |
     |                   =====================                   |
     |               Approximate Normal Coordinate               |
     |                Rational Function Optimizer                |
      ----------------------------------------------------------- 

          ...................................................
          :                      SETUP                      :
          :.................................................:
          :   optimization level             loose          :
          :   max. optcycles                   200          :
          :   ANC micro-cycles                  20          :
          :   degrees of freedom                69          :
          :.................................................:
          :   RF solver                   davidson          :
          :   write xtbopt.log                true          :
          :   linear?                        false          :
          :   energy convergence         0.5000000E-04 Eh   :
          :   grad. convergence          0.4000000E-02 Eh/α :
          :   maxmium RF displ.          1.0000000          :
          :   Hlow (freq-cutoff)         0.1000000E-01      :
          :   Hmax (freq-cutoff)         5.0000000          :
          :   S6 in model hess.         20.0000000          :
          ...................................................

generating ANC from model Hessian ...
Using Lindh-Hessian (1995)
 Shifting diagonal of input Hessian by    1.6646936881457908     
 Lowest  eigenvalues of input Hessian
    0.010000    0.414329    0.000000    0.000000    0.000000    0.000000
    0.000000    0.000000    1.667489    1.669648    1.670279    1.673851
    1.674853    1.676503    1.676672    1.678960    1.689033    1.689345
 Highest eigenvalues
    3.750205    3.828700    3.841826    4.063858    4.195987    4.798750


........................................................................
.............................. CYCLE    1 ..............................
........................................................................

 iter      E             dE          RMSdq      gap      omega  full diag
   1    -42.7790780 -0.427791E+02  0.626E-05    3.34       0.0  T
   2    -42.7790780 -0.124416E-10  0.329E-05    3.34     607.4  T
   3    -42.7790780  0.127898E-12  0.193E-05    3.34    1034.2  T
     SCC iter.                  ...        0 min,  0.004 sec
     gradient                   ...        0 min,  0.011 sec
 * total energy  :   -35.7304566 Eh     change       -0.6650680E-10 Eh
   gradient norm :     5.1077447 Eh/α   predicted     0.0000000E+00 (-100.00%)
   displ. norm   :     0.6598190 α      lambda       -0.3319813E+01
   maximum displ.:     0.5568288 α      in ANC's #69, #63, #60, ...

........................................................................
.............................. CYCLE    2 ..............................
........................................................................

 iter      E             dE          RMSdq      gap      omega  full diag
   1    -42.7059535 -0.427060E+02  0.886E-01    2.89       0.0  T
   2    -42.7061020 -0.148446E-03  0.711E-01    3.14       1.0  T
   3    -42.7114732 -0.537121E-02  0.354E-01    2.94       1.0  T
   4    -42.7120726 -0.599426E-03  0.152E-01    3.02       1.0  T
   5    -42.7124295 -0.356901E-03  0.327E-02    2.99       1.0  T
   6    -42.7124383 -0.874922E-05  0.189E-02    2.99       1.1  T
   7    -42.7124413 -0.300055E-05  0.268E-03    2.99       7.5  T
   8    -42.7124414 -0.100697E-06  0.793E-04    2.99      25.2  T
   9    -42.7124414 -0.379074E-08  0.295E-04    2.99      67.7  T
     SCC iter.                  ...        0 min,  0.008 sec
     gradient                   ...        0 min,  0.008 sec
 * total energy  :   -38.5843725 Eh     change       -0.2853916E+01 Eh
   gradient norm :     3.6014321 Eh/α   predicted    -0.2406437E+01 ( -15.68%)
   displ. norm   :     0.7372641 α      lambda       -0.2643557E+01
   maximum displ.:     0.6151329 α      in ANC's #69, #63, #60, ...

........................................................................
.............................. CYCLE    3 ..............................
........................................................................

 iter      E             dE          RMSdq      gap      omega  full diag
   1    -42.5876385 -0.425876E+02  0.717E-01    2.35       0.0  T
   2    -42.5750087  0.126298E-01  0.942E-01    2.63       1.0  T
   3    -42.5948396 -0.198310E-01  0.360E-01    2.48       1.0  T
   4    -42.5946989  0.140747E-03  0.158E-01    2.46       1.0  T
   5    -42.5949479 -0.249038E-03  0.453E-02    2.44       1.0  T
   6    -42.5949551 -0.716943E-05  0.305E-02    2.45       1.0  T
   7    -42.5949657 -0.105741E-04  0.615E-03    2.44       3.3  T
   8    -42.5949661 -0.387534E-06  0.231E-03    2.44       8.7  T
   9    -42.5949661 -0.218685E-07  0.104E-03    2.44      19.3  T
  10    -42.5949661 -0.174206E-07  0.198E-04    2.44     101.2  T
  11    -42.5949661 -0.307686E-09  0.101E-04    2.44     197.9  T
     SCC iter.                  ...        0 min,  0.009 sec
     gradient                   ...        0 min,  0.008 sec
 * total energy  :   -40.6719748 Eh     change       -0.2087602E+01 Eh
   gradient norm :     2.1116286 Eh/α   predicted    -0.2040242E+01 (  -2.27%)
   displ. norm   :     0.6560204 α      lambda       -0.1367074E+01
   maximum displ.:     0.5122358 α      in ANC's #69, #63, #62, ...

........................................................................
.............................. CYCLE    4 ..............................
........................................................................

 iter      E             dE          RMSdq      gap      omega  full diag
   1    -42.4648023 -0.424648E+02  0.117E+00    0.99       0.0  T
   2    -42.4386007  0.262015E-01  0.133E+00    1.82       1.0  T
   3    -42.4914215 -0.528208E-01  0.547E-01    1.44       1.0  T
   4    -42.4893227  0.209879E-02  0.611E-01    1.37       1.0  T
   5    -42.4961806 -0.685781E-02  0.185E-01    1.31       1.0  T
   6    -42.4977719 -0.159133E-02  0.656E-02    1.32       1.0  T
   7    -42.4978370 -0.651371E-04  0.299E-02    1.34       1.0  T
   8    -42.4978345  0.250517E-05  0.166E-02    1.34       1.2  T
   9    -42.4978418 -0.731368E-05  0.499E-03    1.34       4.0  T
  10    -42.4978423 -0.496938E-06  0.214E-03    1.34       9.4  T
  11    -42.4978424 -0.727956E-07  0.654E-04    1.34      30.6  T
  12    -42.4978424 -0.475859E-08  0.112E-04    1.34     178.4  T
     SCC iter.                  ...        0 min,  0.010 sec
     gradient                   ...        0 min,  0.008 sec
 * total energy  :   -41.6647626 Eh     change       -0.9927878E+00 Eh
   gradient norm :     0.9428401 Eh/α   predicted    -0.9777098E+00 (  -1.52%)
   displ. norm   :     0.4637668 α      lambda       -0.4203228E+00
   maximum displ.:     0.3350430 α      in ANC's #69, #2, #63, ...

........................................................................
.............................. CYCLE    5 ..............................
........................................................................

 iter      E             dE          RMSdq      gap      omega  full diag
   1    -42.4334210 -0.424334E+02  0.740E-01    0.81       0.0  T
   2    -42.4269861  0.643500E-02  0.766E-01    1.23       1.0  T
   3    -42.4445136 -0.175275E-01  0.253E-01    0.98       1.0  T
   4    -42.4433630  0.115060E-02  0.280E-01    0.99       1.0  T
   5    -42.4441536 -0.790676E-03  0.142E-01    0.99       1.0  T
   6    -42.4451194 -0.965794E-03  0.566E-02    0.99       1.0  T
   7    -42.4452253 -0.105865E-03  0.210E-02    0.98       1.0  T
   8    -42.4452258 -0.517476E-06  0.125E-02    0.99       1.6  T
   9    -42.4452288 -0.300246E-05  0.551E-03    0.99       3.6  T
  10    -42.4452299 -0.107010E-05  0.155E-03    0.99      12.9  T
  11    -42.4452299 -0.112703E-07  0.552E-04    0.98      36.3  T
  12    -42.4452299 -0.452137E-08  0.146E-04    0.98     136.9  T
     SCC iter.                  ...        0 min,  0.010 sec
     gradient                   ...        0 min,  0.008 sec
 * total energy  :   -41.9142457 Eh     change       -0.2494831E+00 Eh
   gradient norm :     0.1981915 Eh/α   predicted    -0.2553648E+00 (   2.36%)
   displ. norm   :     0.1651831 α      lambda       -0.2781761E-01
   maximum displ.:     0.1204278 α      in ANC's #2, #69, #39, ...

........................................................................
.............................. CYCLE    6 ..............................
........................................................................

 iter      E             dE          RMSdq      gap      omega  full diag
   1    -42.4407788 -0.424408E+02  0.232E-01    0.87       0.0  T
   2    -42.4390640  0.171474E-02  0.294E-01    0.96       1.0  T
   3    -42.4417105 -0.264648E-02  0.105E-01    0.90       1.0  T
   4    -42.4412112  0.499319E-03  0.113E-01    0.89       1.0  T
   5    -42.4418724 -0.661195E-03  0.291E-02    0.91       1.0  T
   6    -42.4418975 -0.251660E-04  0.938E-03    0.91       2.1  T
   7    -42.4418995 -0.190695E-05  0.502E-03    0.90       4.0  T
   8    -42.4418996 -0.110464E-06  0.219E-03    0.91       9.1  T
   9    -42.4418997 -0.146246E-06  0.102E-03    0.91      19.6  T
  10    -42.4418997 -0.180288E-07  0.507E-04    0.91      39.4  T
  11    -42.4418997 -0.365490E-08  0.162E-04    0.91     123.8  T
     SCC iter.                  ...        0 min,  0.009 sec
     gradient                   ...        0 min,  0.008 sec
 * total energy  :   -41.9320335 Eh     change       -0.1778780E-01 Eh
   gradient norm :     0.1193305 Eh/α   predicted    -0.1428990E-01 ( -19.66%)
   displ. norm   :     0.1268477 α      lambda       -0.1111900E-01
   maximum displ.:     0.0840899 α      in ANC's #2, #19, #23, ...

........................................................................
.............................. CYCLE    7 ..............................
........................................................................

 iter      E             dE          RMSdq      gap      omega  full diag
   1    -42.4477604 -0.424478E+02  0.161E-01    0.85       0.0  T
   2    -42.4471755  0.584925E-03  0.170E-01    0.87       1.0  T
   3    -42.4478268 -0.651317E-03  0.965E-02    0.86       1.0  T
   4    -42.4477339  0.928296E-04  0.813E-02    0.85       1.0  T
   5    -42.4480283 -0.294399E-03  0.154E-02    0.86       1.3  T
   6    -42.4480390 -0.106330E-04  0.819E-03    0.86       2.4  T
   7    -42.4480403 -0.130135E-05  0.376E-03    0.86       5.3  T
   8    -42.4480404 -0.850971E-07  0.168E-03    0.86      11.9  T
   9    -42.4480405 -0.112849E-06  0.426E-04    0.86      47.0  T
  10    -42.4480405 -0.242191E-08  0.211E-04    0.86      94.9  T
     SCC iter.                  ...        0 min,  0.008 sec
     gradient                   ...        0 min,  0.008 sec
 * total energy  :   -41.9409125 Eh     change       -0.8879032E-02 Eh
   gradient norm :     0.1185063 Eh/α   predicted    -0.5649502E-02 ( -36.37%)
   displ. norm   :     0.2472917 α      lambda       -0.1955220E-01
   maximum displ.:     0.1217361 α      in ANC's #2, #19, #23, ...

........................................................................
.............................. CYCLE    8 ..............................
........................................................................

 iter      E             dE          RMSdq      gap      omega  full diag
   1    -42.4612839 -0.424613E+02  0.313E-01    0.80       0.0  T
   2    -42.4607955  0.488314E-03  0.227E-01    0.77       1.0  T
   3    -42.4586625  0.213301E-02  0.267E-01    0.82       1.0  T
   4    -42.4614559 -0.279336E-02  0.904E-02    0.80       1.0  T
   5    -42.4616778 -0.221859E-03  0.336E-02    0.79       1.0  T
   6    -42.4617132 -0.353986E-04  0.165E-02    0.79       1.2  T
   7    -42.4617199 -0.671710E-05  0.790E-03    0.79       2.5  T
   8    -42.4617204 -0.552649E-06  0.365E-03    0.79       5.5  T
   9    -42.4617209 -0.466827E-06  0.129E-03    0.79      15.5  T
  10    -42.4617209 -0.375632E-07  0.654E-04    0.79      30.6  T
  11    -42.4617209 -0.349625E-08  0.283E-04    0.79      70.7  T
     SCC iter.                  ...        0 min,  0.009 sec
     gradient                   ...        0 min,  0.008 sec
 * total energy  :   -41.9549346 Eh     change       -0.1402214E-01 Eh
   gradient norm :     0.1196071 Eh/α   predicted    -0.1037513E-01 ( -26.01%)
   displ. norm   :     0.2305511 α      lambda       -0.1391049E-01
   maximum displ.:     0.1169223 α      in ANC's #19, #23, #2, ...

........................................................................
.............................. CYCLE    9 ..............................
........................................................................

 iter      E             dE          RMSdq      gap      omega  full diag
   1    -42.4709476 -0.424709E+02  0.304E-01    0.77       0.0  T
   2    -42.4708667  0.808768E-04  0.197E-01    0.70       1.0  T
   3    -42.4691806  0.168616E-02  0.201E-01    0.82       1.0  T
   4    -42.4706382 -0.145760E-02  0.130E-01    0.74       1.0  T
   5    -42.4712629 -0.624738E-03  0.343E-02    0.74       1.0  T
   6    -42.4712928 -0.299148E-04  0.120E-02    0.75       1.7  T
   7    -42.4712952 -0.239695E-05  0.753E-03    0.75       2.7  T
   8    -42.4712963 -0.107162E-05  0.243E-03    0.75       8.2  T
   9    -42.4712964 -0.114570E-06  0.114E-03    0.75      17.5  T
  10    -42.4712965 -0.360587E-07  0.590E-04    0.75      33.9  T
  11    -42.4712965 -0.302350E-08  0.232E-04    0.75      86.3  T
     SCC iter.                  ...        0 min,  0.009 sec
     gradient                   ...        0 min,  0.008 sec
 * total energy  :   -41.9649716 Eh     change       -0.1003701E-01 Eh
   gradient norm :     0.1055485 Eh/α   predicted    -0.7324968E-02 ( -27.02%)
   displ. norm   :     0.2112492 α      lambda       -0.9546558E-02
   maximum displ.:     0.1172105 α      in ANC's #19, #23, #2, ...

........................................................................
.............................. CYCLE   10 ..............................
........................................................................

 iter      E             dE          RMSdq      gap      omega  full diag
   1    -42.4748335 -0.424748E+02  0.277E-01    0.74       0.0  T
   2    -42.4748605 -0.269968E-04  0.166E-01    0.69       1.0  T
   3    -42.4737087  0.115180E-02  0.161E-01    0.78       1.0  T
   4    -42.4745371 -0.828420E-03  0.104E-01    0.71       1.0  T
   5    -42.4749920 -0.454838E-03  0.226E-02    0.71       1.0  T
   6    -42.4750046 -0.126156E-04  0.778E-03    0.72       2.6  T
   7    -42.4750055 -0.863567E-06  0.473E-03    0.72       4.2  T
   8    -42.4750059 -0.405714E-06  0.142E-03    0.72      14.1  T
   9    -42.4750059 -0.702634E-07  0.679E-04    0.72      29.5  T
  10    -42.4750059 -0.115560E-07  0.373E-04    0.72      53.6  T
     SCC iter.                  ...        0 min,  0.008 sec
     gradient                   ...        0 min,  0.008 sec
 * total energy  :   -41.9719504 Eh     change       -0.6978774E-02 Eh
   gradient norm :     0.0957857 Eh/α   predicted    -0.4986390E-02 ( -28.55%)
   displ. norm   :     0.2256196 α      lambda       -0.8224785E-02
   maximum displ.:     0.1256914 α      in ANC's #19, #23, #2, ...

........................................................................
.............................. CYCLE   11 ..............................
........................................................................

 iter      E             dE          RMSdq      gap      omega  full diag
   1    -42.4727803 -0.424728E+02  0.290E-01    0.70       0.0  T
   2    -42.4727148  0.654691E-04  0.185E-01    0.71       1.0  T
   3    -42.4721080  0.606848E-03  0.173E-01    0.70       1.0  T
   4    -42.4727979 -0.689932E-03  0.680E-02    0.70       1.0  T
   5    -42.4729306 -0.132698E-03  0.309E-02    0.71       1.0  T
   6    -42.4729822 -0.516213E-04  0.760E-03    0.70       2.6  T
   7    -42.4729840 -0.170820E-05  0.377E-03    0.71       5.3  T
   8    -42.4729840 -0.849898E-07  0.171E-03    0.70      11.7  T
   9    -42.4729842 -0.107913E-06  0.502E-04    0.70      39.9  T
  10    -42.4729842 -0.381027E-08  0.284E-04    0.70      70.4  T
     SCC iter.                  ...        0 min,  0.008 sec
     gradient                   ...        0 min,  0.008 sec
 * total energy  :   -41.9781171 Eh     change       -0.6166730E-02 Eh
   gradient norm :     0.0839771 Eh/α   predicted    -0.4321773E-02 ( -29.92%)
   displ. norm   :     0.2407652 α      lambda       -0.7613169E-02
   maximum displ.:     0.1247074 α      in ANC's #19, #1, #2, ...

........................................................................
.............................. CYCLE   12 ..............................
........................................................................

 iter      E             dE          RMSdq      gap      omega  full diag
   1    -42.4665910 -0.424666E+02  0.306E-01    0.67       0.0  T
   2    -42.4659481  0.642816E-03  0.252E-01    0.73       1.0  T
   3    -42.4666451 -0.697001E-03  0.160E-01    0.67       1.0  T
   4    -42.4670573 -0.412141E-03  0.551E-02    0.69       1.0  T
   5    -42.4670774 -0.201053E-04  0.422E-02    0.70       1.0  T
   6    -42.4671700 -0.925845E-04  0.718E-03    0.69       2.8  T
   7    -42.4671707 -0.719833E-06  0.454E-03    0.69       4.4  T
   8    -42.4671710 -0.266687E-06  0.210E-03    0.69       9.5  T
   9    -42.4671711 -0.162190E-06  0.462E-04    0.69      43.3  T
  10    -42.4671711 -0.538385E-09  0.214E-04    0.69      93.6  T
     SCC iter.                  ...        0 min,  0.008 sec
     gradient                   ...        0 min,  0.008 sec
 * total energy  :   -41.9834728 Eh     change       -0.5355633E-02 Eh
   gradient norm :     0.0637831 Eh/α   predicted    -0.4027334E-02 ( -24.80%)
   displ. norm   :     0.1468670 α      lambda       -0.4445173E-02
   maximum displ.:     0.0702120 α      in ANC's #19, #2, #1, ...

........................................................................
.............................. CYCLE   13 ..............................
........................................................................

 iter      E             dE          RMSdq      gap      omega  full diag
   1    -42.4650152 -0.424650E+02  0.205E-01    0.66       0.0  T
   2    -42.4643444  0.670815E-03  0.209E-01    0.73       1.0  T
   3    -42.4653529 -0.100849E-02  0.906E-02    0.67       1.0  T
   4    -42.4654415 -0.886078E-04  0.276E-02    0.69       1.0  T
   5    -42.4654375  0.397260E-05  0.220E-02    0.69       1.0  T
   6    -42.4654610 -0.234745E-04  0.528E-03    0.68       3.8  T
   7    -42.4654613 -0.338624E-06  0.269E-03    0.69       7.4  T
   8    -42.4654615 -0.136712E-06  0.106E-03    0.69      18.8  T
   9    -42.4654615 -0.435773E-07  0.393E-04    0.69      50.8  T
  10    -42.4654615 -0.187145E-08  0.184E-04    0.69     108.9  T
     SCC iter.                  ...        0 min,  0.008 sec
     gradient                   ...        0 min,  0.008 sec
 * total energy  :   -41.9866865 Eh     change       -0.3213761E-02 Eh
   gradient norm :     0.0590767 Eh/α   predicted    -0.2271358E-02 ( -29.32%)
   displ. norm   :     0.1686719 α      lambda       -0.4067678E-02
   maximum displ.:     0.1031659 α      in ANC's #1, #2, #19, ...

........................................................................
.............................. CYCLE   14 ..............................
........................................................................

 iter      E             dE          RMSdq      gap      omega  full diag
   1    -42.4691924 -0.424692E+02  0.197E-01    0.64       0.0  T
   2    -42.4685841  0.608318E-03  0.191E-01    0.71       1.0  T
   3    -42.4693427 -0.758571E-03  0.986E-02    0.65       1.0  T
   4    -42.4693823 -0.396582E-04  0.533E-02    0.67       1.0  T
   5    -42.4694987 -0.116375E-03  0.251E-02    0.67       1.0  T
   6    -42.4695243 -0.255807E-04  0.488E-03    0.67       4.1  T
   7    -42.4695243  0.351345E-08  0.275E-03    0.67       7.3  T
   8    -42.4695245 -0.209534E-06  0.710E-04    0.67      28.2  T
   9    -42.4695245 -0.571707E-08  0.301E-04    0.67      66.5  T
     SCC iter.                  ...        0 min,  0.008 sec
     gradient                   ...        0 min,  0.008 sec
 * total energy  :   -41.9897498 Eh     change       -0.3063317E-02 Eh
   gradient norm :     0.0708025 Eh/α   predicted    -0.2091720E-02 ( -31.72%)
   displ. norm   :     0.2083115 α      lambda       -0.5014740E-02
   maximum displ.:     0.1064508 α      in ANC's #1, #2, #19, ...

........................................................................
.............................. CYCLE   15 ..............................
........................................................................

 iter      E             dE          RMSdq      gap      omega  full diag
   1    -42.4751496 -0.424751E+02  0.226E-01    0.60       0.0  T
   2    -42.4742803  0.869301E-03  0.221E-01    0.68       1.0  T
   3    -42.4752754 -0.995042E-03  0.119E-01    0.61       1.0  T
   4    -42.4752086  0.667390E-04  0.834E-02    0.64       1.0  T
   5    -42.4755452 -0.336506E-03  0.275E-02    0.63       1.0  T
   6    -42.4755702 -0.250478E-04  0.689E-03    0.63       2.9  T
   7    -42.4755705 -0.332082E-06  0.383E-03    0.63       5.2  T
   8    -42.4755708 -0.214407E-06  0.116E-03    0.63      17.3  T
   9    -42.4755708 -0.317883E-07  0.486E-04    0.63      41.1  T
  10    -42.4755708 -0.122564E-08  0.187E-04    0.63     107.0  T
     SCC iter.                  ...        0 min,  0.008 sec
     gradient                   ...        0 min,  0.008 sec
 * total energy  :   -41.9935798 Eh     change       -0.3829918E-02 Eh
   gradient norm :     0.0896745 Eh/α   predicted    -0.2616210E-02 ( -31.69%)
   displ. norm   :     0.2582986 α      lambda       -0.7380413E-02
   maximum displ.:     0.1250441 α      in ANC's #2, #60, #25, ...

........................................................................
.............................. CYCLE   16 ..............................
........................................................................

 iter      E             dE          RMSdq      gap      omega  full diag
   1    -42.4855809 -0.424856E+02  0.285E-01    0.54       0.0  T
   2    -42.4844934  0.108754E-02  0.249E-01    0.63       1.0  T
   3    -42.4849846 -0.491162E-03  0.184E-01    0.54       1.0  T
   4    -42.4846288  0.355749E-03  0.170E-01    0.59       1.0  T
   5    -42.4860549 -0.142608E-02  0.469E-02    0.58       1.0  T
   6    -42.4861163 -0.614682E-04  0.122E-02    0.58       1.6  T
   7    -42.4861186 -0.226323E-05  0.710E-03    0.58       2.8  T
   8    -42.4861194 -0.755824E-06  0.243E-03    0.58       8.2  T
   9    -42.4861195 -0.150908E-06  0.100E-03    0.58      20.0  T
  10    -42.4861195 -0.168322E-07  0.371E-04    0.58      53.9  T
  11    -42.4861195 -0.167906E-08  0.141E-04    0.58     142.2  T
     SCC iter.                  ...        0 min,  0.009 sec
     gradient                   ...        0 min,  0.008 sec
 * total energy  :   -41.9994771 Eh     change       -0.5897383E-02 Eh
   gradient norm :     0.1114896 Eh/α   predicted    -0.3936423E-02 ( -33.25%)
   displ. norm   :     0.3859486 α      lambda       -0.1286008E-01
   maximum displ.:     0.1656621 α      in ANC's #2, #60, #25, ...

........................................................................
.............................. CYCLE   17 ..............................
........................................................................

 iter      E             dE          RMSdq      gap      omega  full diag
   1    -42.5040431 -0.425040E+02  0.416E-01    0.46       0.0  T
   2    -42.5025565  0.148659E-02  0.304E-01    0.55       1.0  T
   3    -42.4974341  0.512240E-02  0.407E-01    0.42       1.0  T
   4    -42.5022572 -0.482310E-02  0.236E-01    0.50       1.0  T
   5    -42.5046137 -0.235656E-02  0.810E-02    0.51       1.0  T
   6    -42.5047980 -0.184242E-03  0.252E-02    0.51       1.0  T
   7    -42.5048141 -0.161324E-04  0.129E-02    0.50       1.6  T
   8    -42.5048162 -0.205494E-05  0.555E-03    0.51       3.6  T
   9    -42.5048171 -0.966056E-06  0.203E-03    0.51       9.8  T
  10    -42.5048172 -0.681785E-07  0.749E-04    0.51      26.7  T
  11    -42.5048172 -0.480711E-08  0.243E-04    0.51      82.1  T
     SCC iter.                  ...        0 min,  0.009 sec
     gradient                   ...        0 min,  0.008 sec
 * total energy  :   -42.0092943 Eh     change       -0.9817168E-02 Eh
   gradient norm :     0.1231773 Eh/α   predicted    -0.7388084E-02 ( -24.74%)
   displ. norm   :     0.3413301 α      lambda       -0.1350453E-01
   maximum displ.:     0.1352418 α      in ANC's #60, #2, #25, ...

........................................................................
.............................. CYCLE   18 ..............................
........................................................................

 iter      E             dE          RMSdq      gap      omega  full diag
   1    -42.5245141 -0.425245E+02  0.361E-01    0.43       0.0  T
   2    -42.5236251  0.888927E-03  0.240E-01    0.48       1.0  T
   3    -42.5161811  0.744403E-02  0.460E-01    0.39       1.0  T
   4    -42.5245248 -0.834373E-02  0.992E-02    0.46       1.0  T
   5    -42.5248510 -0.326126E-03  0.466E-02    0.46       1.0  T
   6    -42.5249248 -0.738546E-04  0.173E-02    0.45       1.2  T
   7    -42.5249173  0.755190E-05  0.183E-02    0.45       1.1  T
   8    -42.5249300 -0.126778E-04  0.598E-03    0.46       3.3  T
   9    -42.5249307 -0.784841E-06  0.220E-03    0.45       9.1  T
  10    -42.5249308 -0.672517E-07  0.814E-04    0.45      24.6  T
  11    -42.5249308 -0.961988E-08  0.221E-04    0.45      90.6  T
     SCC iter.                  ...        0 min,  0.009 sec
     gradient                   ...        0 min,  0.008 sec
 * total energy  :   -42.0187544 Eh     change       -0.9460081E-02 Eh
   gradient norm :     0.1153139 Eh/α   predicted    -0.7539004E-02 ( -20.31%)
   displ. norm   :     0.2279915 α      lambda       -0.1081922E-01
   maximum displ.:     0.1014151 α      in ANC's #60, #2, #9, ...

........................................................................
.............................. CYCLE   19 ..............................
........................................................................

 iter      E             dE          RMSdq      gap      omega  full diag
   1    -42.5384017 -0.425384E+02  0.226E-01    0.42       0.0  T
   2    -42.5379921  0.409602E-03  0.163E-01    0.42       1.0  T
   3    -42.5361515  0.184062E-02  0.261E-01    0.39       1.0  T
   4    -42.5378466 -0.169514E-02  0.116E-01    0.45       1.0  T
   5    -42.5385100 -0.663389E-03  0.453E-02    0.41       1.0  T
   6    -42.5385861 -0.760774E-04  0.137E-02    0.42       1.5  T
   7    -42.5385874 -0.132590E-05  0.819E-03    0.42       2.4  T
   8    -42.5385892 -0.175859E-05  0.289E-03    0.42       6.9  T
   9    -42.5385893 -0.111169E-06  0.162E-03    0.42      12.3  T
  10    -42.5385893 -0.603322E-07  0.534E-04    0.42      37.4  T
  11    -42.5385893 -0.744626E-08  0.124E-04    0.42     161.5  T
     SCC iter.                  ...        0 min,  0.009 sec
     gradient                   ...        0 min,  0.008 sec
 * total energy  :   -42.0268068 Eh     change       -0.8052440E-02 Eh
   gradient norm :     0.1216277 Eh/α   predicted    -0.5690812E-02 ( -29.33%)
   displ. norm   :     0.1996493 α      lambda       -0.1326776E-01
   maximum displ.:     0.0880070 α      in ANC's #60, #48, #2, ...

........................................................................
.............................. CYCLE   20 ..............................
........................................................................

 iter      E             dE          RMSdq      gap      omega  full diag
   1    -42.5472152 -0.425472E+02  0.230E-01    0.39       0.0  T
   2    -42.5470970  0.118234E-03  0.151E-01    0.38       1.0  T
   3    -42.5449547  0.214226E-02  0.242E-01    0.38       1.0  T
   4    -42.5463379 -0.138322E-02  0.144E-01    0.43       1.0  T
   5    -42.5473156 -0.977648E-03  0.256E-02    0.38       1.0  T
   6    -42.5473276 -0.119658E-04  0.138E-02    0.39       1.5  T
   7    -42.5473276 -0.878700E-07  0.101E-02    0.39       2.0  T
   8    -42.5473321 -0.449396E-05  0.259E-03    0.39       7.7  T
   9    -42.5473322 -0.809759E-07  0.120E-03    0.39      16.6  T
  10    -42.5473322 -0.234204E-07  0.364E-04    0.39      55.0  T
  11    -42.5473322 -0.177694E-08  0.146E-04    0.39     136.6  T
     SCC iter.                  ...        0 min,  0.009 sec
     gradient                   ...        0 min,  0.008 sec
 * total energy  :   -42.0366665 Eh     change       -0.9859666E-02 Eh
   gradient norm :     0.1330954 Eh/α   predicted    -0.6898319E-02 ( -30.03%)
   displ. norm   :     0.2289786 α      lambda       -0.1594983E-01
   maximum displ.:     0.0914213 α      in ANC's #37, #34, #48, ...
 * RMSD in coord.:     0.7108152 α      energy gain  -0.6306210E+01 Eh

generating ANC from model Hessian ...
Using Lindh-Hessian (1995)
 Shifting diagonal of input Hessian by    1.4483969818821482E-002
 Lowest  eigenvalues of input Hessian
    0.010000    0.000000    0.000000    0.000000    0.000000    0.000000
    0.000000    0.016529    0.018891    0.020050    0.022615    0.024002
    0.024228    0.027301    0.027587    0.031173    0.035722    0.044242
 Highest eigenvalues
    2.047323    2.077668    2.251122    2.402433    2.529770    2.675803


........................................................................
.............................. CYCLE   21 ..............................
........................................................................

 iter      E             dE          RMSdq      gap      omega  full diag
   1    -42.5468028 -0.425468E+02  0.329E-01    0.36       0.0  T
   2    -42.5465038  0.299010E-03  0.232E-01    0.35       1.0  T
   3    -42.5458508  0.652960E-03  0.205E-01    0.35       1.0  T
   4    -42.5453964  0.454408E-03  0.190E-01    0.41       1.0  T
   5    -42.5470888 -0.169239E-02  0.663E-02    0.35       1.0  T
   6    -42.5472512 -0.162454E-03  0.168E-02    0.35       1.2  T
   7    -42.5472547 -0.346828E-05  0.108E-02    0.35       1.9  T
   8    -42.5472576 -0.294781E-05  0.327E-03    0.35       6.1  T
   9    -42.5472579 -0.286399E-06  0.118E-03    0.35      16.9  T
  10    -42.5472580 -0.217333E-07  0.525E-04    0.35      38.1  T
  11    -42.5472580 -0.310330E-08  0.195E-04    0.35     102.5  T
     SCC iter.                  ...        0 min,  0.009 sec
     gradient                   ...        0 min,  0.008 sec
 * total energy  :   -42.0479126 Eh     change       -0.1124608E-01 Eh
   gradient norm :     0.1159934 Eh/α   predicted     0.0000000E+00 (-100.00%)
   displ. norm   :     0.4635611 α      lambda       -0.1860495E-01
   maximum displ.:     0.2563572 α      in ANC's #7, #11, #8, ...

........................................................................
.............................. CYCLE   22 ..............................
........................................................................

 iter      E             dE          RMSdq      gap      omega  full diag
   1    -42.5538072 -0.425538E+02  0.307E-01    0.36       0.0  T
   2    -42.5504351  0.337214E-02  0.352E-01    0.32       1.0  T
   3    -42.5515731 -0.113803E-02  0.275E-01    0.41       1.0  T
   4    -42.5521593 -0.586185E-03  0.210E-01    0.31       1.0  T
   5    -42.5543311 -0.217175E-02  0.293E-02    0.36       1.0  T
   6    -42.5543577 -0.266067E-04  0.102E-02    0.36       2.0  T
   7    -42.5543564  0.126355E-05  0.898E-03    0.36       2.2  T
   8    -42.5543589 -0.245180E-05  0.294E-03    0.36       6.8  T
   9    -42.5543591 -0.204068E-06  0.104E-03    0.36      19.2  T
  10    -42.5543591 -0.320095E-07  0.394E-04    0.36      50.8  T
  11    -42.5543591 -0.261578E-08  0.980E-05    0.36     204.0  T
     SCC iter.                  ...        0 min,  0.009 sec
     gradient                   ...        0 min,  0.008 sec
 * total energy  :   -42.0618566 Eh     change       -0.1394403E-01 Eh
   gradient norm :     0.0554455 Eh/α   predicted    -0.1142015E-01 ( -18.10%)
   displ. norm   :     0.4877987 α      lambda       -0.1136527E-01
   maximum displ.:     0.3116978 α      in ANC's #7, #8, #6, ...

........................................................................
.............................. CYCLE   23 ..............................
........................................................................

 iter      E             dE          RMSdq      gap      omega  full diag
   1    -42.5619851 -0.425620E+02  0.315E-01    0.36       0.0  T
   2    -42.5602996  0.168544E-02  0.308E-01    0.34       1.0  T
   3    -42.5605544 -0.254807E-03  0.242E-01    0.40       1.0  T
   4    -42.5582881  0.226634E-02  0.296E-01    0.30       1.0  T
   5    -42.5625633 -0.427517E-02  0.307E-02    0.37       1.0  T
   6    -42.5625931 -0.297798E-04  0.108E-02    0.36       1.8  T
   7    -42.5625906  0.245607E-05  0.110E-02    0.36       1.8  T
   8    -42.5625944 -0.380564E-05  0.397E-03    0.36       5.0  T
   9    -42.5625949 -0.517965E-06  0.126E-03    0.36      15.8  T
  10    -42.5625950 -0.352494E-07  0.501E-04    0.36      39.9  T
  11    -42.5625950 -0.549761E-08  0.107E-04    0.36     186.8  T
     SCC iter.                  ...        0 min,  0.009 sec
     gradient                   ...        0 min,  0.008 sec
 * total energy  :   -42.0695372 Eh     change       -0.7680590E-02 Eh
   gradient norm :     0.0248768 Eh/α   predicted    -0.7034816E-02 (  -8.41%)
   displ. norm   :     0.3629823 α      lambda       -0.3789771E-02
   maximum displ.:     0.2481875 α      in ANC's #7, #8, #6, ...

........................................................................
.............................. CYCLE   24 ..............................
........................................................................

 iter      E             dE          RMSdq      gap      omega  full diag
   1    -42.5659714 -0.425660E+02  0.188E-01    0.36       0.0  T
   2    -42.5657926  0.178801E-03  0.145E-01    0.36       1.0  T
   3    -42.5654327  0.359955E-03  0.136E-01    0.38       1.0  T
   4    -42.5653766  0.560513E-04  0.123E-01    0.34       1.0  T
   5    -42.5660952 -0.718523E-03  0.196E-02    0.37       1.0  T
   6    -42.5661070 -0.117936E-04  0.859E-03    0.36       2.3  T
   7    -42.5661069  0.702517E-08  0.698E-03    0.36       2.9  T
   8    -42.5661085 -0.151997E-05  0.209E-03    0.36       9.6  T
   9    -42.5661086 -0.128668E-06  0.737E-04    0.36      27.1  T
  10    -42.5661086 -0.792781E-08  0.241E-04    0.36      83.0  T
     SCC iter.                  ...        0 min,  0.008 sec
     gradient                   ...        0 min,  0.008 sec
 * total energy  :   -42.0720253 Eh     change       -0.2488123E-02 Eh
   gradient norm :     0.0235834 Eh/α   predicted    -0.2144687E-02 ( -13.80%)
   displ. norm   :     0.2268813 α      lambda       -0.1458057E-02
   maximum displ.:     0.1435339 α      in ANC's #7, #8, #6, ...

........................................................................
.............................. CYCLE   25 ..............................
........................................................................

 iter      E             dE          RMSdq      gap      omega  full diag
   1    -42.5687709 -0.425688E+02  0.107E-01    0.36       0.0  T
   2    -42.5687738 -0.291786E-05  0.654E-02    0.36       1.0  T
   3    -42.5685850  0.188799E-03  0.707E-02    0.38       1.0  T
   4    -42.5687203 -0.135324E-03  0.413E-02    0.36       1.0  T
   5    -42.5687727 -0.523781E-04  0.205E-02    0.37       1.0  T
   6    -42.5687929 -0.202177E-04  0.613E-03    0.37       3.3  T
   7    -42.5687935 -0.576038E-06  0.379E-03    0.37       5.3  T
   8    -42.5687939 -0.430838E-06  0.881E-04    0.37      22.7  T
   9    -42.5687940 -0.171805E-07  0.418E-04    0.37      47.8  T
     SCC iter.                  ...        0 min,  0.007 sec
     gradient                   ...        0 min,  0.008 sec
 * total energy  :   -42.0729921 Eh     change       -0.9667852E-03 Eh
   gradient norm :     0.0157873 Eh/α   predicted    -0.7665555E-03 ( -20.71%)
   displ. norm   :     0.1290863 α      lambda       -0.6193097E-03
   maximum displ.:     0.0642755 α      in ANC's #7, #14, #16, ...

........................................................................
.............................. CYCLE   26 ..............................
........................................................................

 iter      E             dE          RMSdq      gap      omega  full diag
   1    -42.5707205 -0.425707E+02  0.693E-02    0.37       0.0  T
   2    -42.5707198  0.694043E-06  0.412E-02    0.37       1.0  T
   3    -42.5705597  0.160037E-03  0.633E-02    0.39       1.0  T
   4    -42.5706830 -0.123286E-03  0.326E-02    0.37       1.0  T
   5    -42.5707278 -0.448038E-04  0.756E-03    0.37       2.6  T
   6    -42.5707297 -0.189572E-05  0.298E-03    0.37       6.7  T
   7    -42.5707298 -0.847415E-07  0.229E-03    0.37       8.8  T
   8    -42.5707300 -0.198006E-06  0.411E-04    0.37      48.7  T
   9    -42.5707300 -0.130906E-08  0.223E-04    0.37      89.6  T
     SCC iter.                  ...        0 min,  0.008 sec
     gradient                   ...        0 min,  0.008 sec
 * total energy  :   -42.0733874 Eh     change       -0.3952588E-03 Eh
   gradient norm :     0.0074408 Eh/α   predicted    -0.3148177E-03 ( -20.35%)
   displ. norm   :     0.0742965 α      lambda       -0.2046689E-03
   maximum displ.:     0.0373796 α      in ANC's #14, #16, #5, ...

........................................................................
.............................. CYCLE   27 ..............................
........................................................................

 iter      E             dE          RMSdq      gap      omega  full diag
   1    -42.5710791 -0.425711E+02  0.391E-02    0.38       0.0  T
   2    -42.5710800 -0.895139E-06  0.223E-02    0.38       1.0  T
   3    -42.5710737  0.631183E-05  0.161E-02    0.38       1.2  T
   4    -42.5710809 -0.724001E-05  0.381E-03    0.38       5.3  T
   5    -42.5710799  0.105613E-05  0.588E-03    0.38       3.4  T
   6    -42.5710813 -0.148623E-05  0.142E-03    0.38      14.1  T
   7    -42.5710813  0.469711E-08  0.110E-03    0.38      18.2  T
   8    -42.5710814 -0.580049E-07  0.265E-04    0.38      75.4  T
   9    -42.5710814 -0.939153E-09  0.119E-04    0.38     167.9  T
     SCC iter.                  ...        0 min,  0.008 sec
     gradient                   ...        0 min,  0.008 sec
 * total energy  :   -42.0735271 Eh     change       -0.1397134E-03 Eh
   gradient norm :     0.0048620 Eh/α   predicted    -0.1029036E-03 ( -26.35%)
   displ. norm   :     0.0655546 α      lambda       -0.1051183E-03
   maximum displ.:     0.0289934 α      in ANC's #16, #2, #14, ...

........................................................................
.............................. CYCLE   28 ..............................
........................................................................

 iter      E             dE          RMSdq      gap      omega  full diag
   1    -42.5704782 -0.425705E+02  0.278E-02    0.38       0.0  T
   2    -42.5704743  0.388682E-05  0.200E-02    0.38       1.0  T
   3    -42.5704342  0.401130E-04  0.310E-02    0.37       1.0  T
   4    -42.5704708 -0.365673E-04  0.164E-02    0.38       1.2  T
   5    -42.5704804 -0.969541E-05  0.370E-03    0.38       5.4  T
   6    -42.5704808 -0.385620E-06  0.157E-03    0.38      12.8  T
   7    -42.5704809 -0.763866E-07  0.740E-04    0.38      27.0  T
   8    -42.5704809 -0.774856E-08  0.236E-04    0.38      84.7  T
     SCC iter.                  ...        0 min,  0.007 sec
     gradient                   ...        0 min,  0.008 sec
 * total energy  :   -42.0735963 Eh     change       -0.6920054E-04 Eh
   gradient norm :     0.0038283 Eh/α   predicted    -0.5278747E-04 ( -23.72%)
   displ. norm   :     0.0495592 α      lambda       -0.4025498E-04
   maximum displ.:     0.0212754 α      in ANC's #2, #7, #5, ...

........................................................................
.............................. CYCLE   29 ..............................
........................................................................

 iter      E             dE          RMSdq      gap      omega  full diag
   1    -42.5698902 -0.425699E+02  0.191E-02    0.38       0.0  T
   2    -42.5698815  0.868179E-05  0.186E-02    0.38       1.1  T
   3    -42.5698786  0.285040E-05  0.186E-02    0.37       1.1  T
   4    -42.5698877 -0.905742E-05  0.119E-02    0.38       1.7  T
   5    -42.5698925 -0.481855E-05  0.307E-03    0.38       6.5  T
   6    -42.5698928 -0.324551E-06  0.720E-04    0.38      27.8  T
   7    -42.5698928 -0.110370E-07  0.428E-04    0.38      46.7  T
     SCC iter.                  ...        0 min,  0.006 sec
     gradient                   ...        0 min,  0.008 sec
 * total energy  :   -42.0736238 Eh     change       -0.2754194E-04 Eh
   gradient norm :     0.0024223 Eh/α   predicted    -0.2019909E-04 ( -26.66%)
   displ. norm   :     0.0475994 α      lambda       -0.2292671E-04
   maximum displ.:     0.0252843 α      in ANC's #2, #5, #3, ...

   *** GEOMETRY OPTIMIZATION CONVERGED AFTER 29 ITERATIONS ***

------------------------------------------------------------------------
 total energy gain   :        -6.3431672 Eh    -3980.3975 kcal/mol
 total RMSD          :         0.8066934 a0        0.4269 Å
 total power (kW/mol):      -574.2752871 (step)********** (real)
------------------------------------------------------------------------

 ANCopt (total)                0 d,  0 h,  0 min,  0.602 sec
 optimizer setup                ...        0 min,  0.001 sec (  0.248%)
 model hessian                  ...        0 min,  0.011 sec (  1.757%)
 ANC generation                 ...        0 min,  0.001 sec (  0.224%)
 coordinate transformation      ...        0 min,  0.000 sec (  0.033%)
 single point calculation       ...        0 min,  0.583 sec ( 96.819%)
 optimization log               ...        0 min,  0.002 sec (  0.305%)
 hessian update                 ...        0 min,  0.000 sec (  0.052%)
 rational function              ...        0 min,  0.002 sec (  0.403%)

================
 final structure:
================
25
 xtb: 6.6.1 (8d0f1dd)
C            3.06125060968469        1.25258174654966        0.03103173561831
N            2.36875825967777       -0.04954981816486       -0.01729555494994
C            3.21671755069247       -1.01820370280763       -0.04536312620889
N            0.69164362647801       -2.60226943083331        0.00071963454539
C            0.24375816445750       -1.40224097800007       -0.00019230936699
C            0.96918567834376       -0.12846341431798       -0.00593659332505
C            0.17368107730796        1.09410743827270       -0.01549923679450
O            0.62264437411870        2.23553695877725       -0.04010292047612
N           -1.20218679104649        0.96611335928870       -0.00010006295683
C           -2.01525232196437        2.16783192925801       -0.00288242742995
C           -1.90637555479874       -0.22174015354137        0.00849221829484
O           -3.11040130200948       -0.24170118768661        0.01581011767251
N           -1.13768087753336       -1.35978668405744        0.00633555051858
C           -1.83360197415242       -2.62920209211533        0.00637922659754
H            3.50931005105355        1.38990718172462        1.01608753085625
H            3.83647295271288        1.29078564781452       -0.73349160802514
H            2.35889356436999        2.07201043268287       -0.14459791517333
H            4.30931278264381       -0.78563628115817       -0.04926763168821
H           -1.36307385458403        3.03807988665601        0.00532024595877
H           -2.65132904615782        2.17817757884529       -0.88987996525084
H           -2.66615541634346        2.16992461672917        0.87312781530662
H           -1.55200801589844       -3.20924489031486        0.88638504609458
H           -1.55759453974993       -3.20550412162480       -0.87802779734853
H           -2.90447112210508       -2.43220374610809        0.01022833318251
H            1.69893363890257       -2.75107173426828       -0.00610868775156

 Bond Distances (Angstroems)
 ---------------------------
C1-N2=1.4756         C1-H15=1.0908        C1-H16=1.0895        C1-H17=1.0934        N2-C1=1.4756         N2-C3=1.2877         
N2-C6=1.4018         C3-N2=1.2877         C3-H18=1.1171        N4-C5=1.2809         N4-H25=1.0182        C5-N4=1.2809         
C5-C6=1.4659         C5-N13=1.3821        C6-N2=1.4018         C6-C5=1.4659         C6-C7=1.4586         C7-C6=1.4586         
C7-O8=1.2268         C7-N9=1.3819         O8-C7=1.2268         N9-C7=1.3819         N9-C10=1.4509        N9-C11=1.3809        
C10-N9=1.4509        C10-H19=1.0875       C10-H20=1.0915       C10-H21=1.0914       C11-N9=1.3809        C11-O12=1.2042       
C11-N13=1.3733       O12-C11=1.2042       N13-C5=1.3821        N13-C11=1.3733       N13-C14=1.4477       C14-N13=1.4477       
C14-H22=1.0909       C14-H23=1.0911       C14-H24=1.0888       H15-C1=1.0908        H16-C1=1.0895        H17-C1=1.0934        
H18-C3=1.1171        H19-C10=1.0875       H20-C10=1.0915       H21-C10=1.0914       H22-C14=1.0909       H23-C14=1.0911       
H24-C14=1.0888       H25-N4=1.0182        
 C  H  Rav=1.0932 sigma=0.0081  Rmin=1.0875  Rmax=1.1171    10
 C  C  Rav=1.4623 sigma=0.0036  Rmin=1.4586  Rmax=1.4659     2
 N  H  Rav=1.0182 sigma=0.0000  Rmin=1.0182  Rmax=1.0182     1
 N  C  Rav=1.3863 sigma=0.0610  Rmin=1.2809  Rmax=1.4756    10
 O  C  Rav=1.2155 sigma=0.0113  Rmin=1.2042  Rmax=1.2268     2

 selected bond angles (degree)
 --------------------
H15-C1-N2=109.48               H16-C1-N2=109.99               H16-C1-H15=109.69              H17-C1-N2=110.77               
H17-C1-H15=108.33              H17-C1-H16=108.55              C3-N2-C1=110.82                C6-N2-C1=121.19                
C6-N2-C3=127.97                H18-C3-N2=119.18               H25-N4-C5=118.87               C6-C5-N4=129.87                
N13-C5-N4=112.23               N13-C5-C6=117.90               C5-C6-N2=122.89                C7-C6-N2=119.82                
C7-C6-C5=117.29                O8-C7-C6=125.48                N9-C7-C6=117.73                N9-C7-O8=116.79                
C10-N9-C7=118.76               C11-N9-C7=125.98               C11-N9-C10=115.26              H19-C10-N9=109.07              
H20-C10-N9=109.63              H20-C10-H19=110.37             H21-C10-N9=109.53              H21-C10-H19=110.49             
H21-C10-H20=107.74             

 selected dihedral angles (degree)
 ---------------------------------
C3-N2-C1-H15=288.16           C3-N2-C1-H16= 48.76           C3-N2-C1-H17=168.76           C6-N2-C1-H15=107.10           
C6-N2-C1-H16=227.70           C6-N2-C1-H17=347.70           H18-C3-N2-C1=358.93           H18-C3-N2-C6=180.08           
C6-C5-N4-H25=359.80           N13-C5-N4-H25=179.85          C5-C6-N2-C1=182.44            C5-C6-N2-C3=  1.19            
C7-C6-N2-C1=  3.17            C7-C6-N2-C3=181.92            N2-C6-C5-N4=  0.27            N2-C6-C5-N13=180.22           
C7-C6-C5-N4=179.56            C7-C6-C5-N13=359.51           O8-C7-C6-N2=  0.39            O8-C7-C6-C5=181.08            
N9-C7-C6-N2=180.17            N9-C7-C6-C5=  0.86            C10-N9-C7-C6=179.72           C10-N9-C7-O8=359.51           
C11-N9-C7-C6=359.22           C11-N9-C7-O8=179.01           H19-C10-N9-C7=358.72          H19-C10-N9-C11=179.16         
H20-C10-N9-C7=119.66          H20-C10-N9-C11=300.11         H21-C10-N9-C7=237.68          H21-C10-N9-C11= 58.13         
           -------------------------------------------------
          |                Final Singlepoint                |
           -------------------------------------------------

          ...................................................
          :                      SETUP                      :
          :.................................................:
          :  # basis functions                  67          :
          :  # atomic orbitals                  67          :
          :  # shells                           39          :
          :  # electrons                        74          :
          :  max. iterations                   250          :
          :  Hamiltonian                  GFN2-xTB          :
          :  restarted?                      false          :
          :  GBSA solvation                  false          :
          :  PC potential                    false          :
          :  electronic temp.         5000.0000000     K    :
          :  accuracy                    1.0000000          :
          :  -> integral cutoff          0.2500000E+02      :
          :  -> integral neglect         0.1000000E-07      :
          :  -> SCF convergence          0.1000000E-05 Eh   :
          :  -> wf. convergence          0.1000000E-03 e    :
          :  Broyden damping             0.4000000          :
          ...................................................

 iter      E             dE          RMSdq      gap      omega  full diag
   1    -42.5698928 -0.425699E+02  0.176E-04    0.38       0.0  T
   2    -42.5698928  0.218073E-08  0.249E-04    0.38      80.3  T
   3    -42.5698928 -0.194228E-08  0.163E-04    0.38     122.5  T

   *** convergence criteria satisfied after 3 iterations ***

         #    Occupation            Energy/Eh            Energy/eV
      -------------------------------------------------------------
         1        2.0000           -0.8954723             -24.3670
       ...           ...                  ...                  ...
        31        1.9888           -0.6204503             -16.8833
        32        1.9473           -0.5955810             -16.2066
        33        1.9146           -0.5876822             -15.9916
        34        1.8868           -0.5829790             -15.8637
        35        1.8342           -0.5764946             -15.6872
        36        1.8143           -0.5745210             -15.6335
        37        1.5065           -0.5561043             -15.1324 (HOMO)
        38        1.1175           -0.5421712             -14.7532 (LUMO)
        39        0.0097           -0.4540984             -12.3566
        40        0.0005           -0.4073609             -11.0849
        41        0.0001           -0.3859676             -10.5027
        42        0.0000           -0.3027261              -8.2376
       ...           ...                  ...                  ...
        67                          0.5073854              13.8067
      -------------------------------------------------------------
                  HL-Gap            0.0139331 Eh            0.3791 eV
             Fermi-level           -0.5384327 Eh          -14.6515 eV

 SCC (total)                   0 d,  0 h,  0 min,  0.014 sec
 SCC setup                      ...        0 min,  0.000 sec (  0.983%)
 Dispersion                     ...        0 min,  0.000 sec (  0.920%)
 classical contributions        ...        0 min,  0.000 sec (  0.340%)
 integral evaluation            ...        0 min,  0.003 sec ( 21.477%)
 iterations                     ...        0 min,  0.003 sec ( 20.230%)
 molecular gradient             ...        0 min,  0.008 sec ( 55.347%)
 printout                       ...        0 min,  0.000 sec (  0.654%)

         :::::::::::::::::::::::::::::::::::::::::::::::::::::
         ::                     SUMMARY                     ::
         :::::::::::::::::::::::::::::::::::::::::::::::::::::
         :: total energy             -42.073623829969 Eh    ::
         :: gradient norm              0.002426563011 Eh/a0 ::
         :: HOMO-LUMO gap              0.379140075944 eV    ::
         ::.................................................::
         :: SCC energy               -42.569892836113 Eh    ::
         :: -> isotropic ES            0.133553432896 Eh    ::
         :: -> anisotropic ES         -0.008473100700 Eh    ::
         :: -> anisotropic XC          0.017702581173 Eh    ::
         :: -> dispersion             -0.022241926629 Eh    ::
         :: repulsion energy           0.495917841895 Eh    ::
         :: add. restraining           0.000236970964 Eh    ::
         :: total charge               1.000000000000 e     ::
         :::::::::::::::::::::::::::::::::::::::::::::::::::::

           -------------------------------------------------
          |                Property Printout                |
           -------------------------------------------------

    * Orbital Energies and Occupations

         #    Occupation            Energy/Eh            Energy/eV
      -------------------------------------------------------------
         1        2.0000           -0.8954723             -24.3670
       ...           ...                  ...                  ...
        25        1.9997           -0.6768906             -18.4191
        26        1.9989           -0.6568685             -17.8743
        27        1.9983           -0.6503384             -17.6966
        28        1.9977           -0.6452516             -17.5582
        29        1.9949           -0.6329763             -17.2242
        30        1.9911           -0.6241256             -16.9833
        31        1.9888           -0.6204503             -16.8833
        32        1.9473           -0.5955810             -16.2066
        33        1.9146           -0.5876822             -15.9916
        34        1.8868           -0.5829790             -15.8637
        35        1.8342           -0.5764946             -15.6872
        36        1.8143           -0.5745210             -15.6335
        37        1.5065           -0.5561043             -15.1324 (HOMO)
        38        1.1175           -0.5421712             -14.7532 (LUMO)
        39        0.0097           -0.4540984             -12.3566
        40        0.0005           -0.4073609             -11.0849
        41        0.0001           -0.3859676             -10.5027
        42        0.0000           -0.3027261              -8.2376
        43                         -0.2281413              -6.2080
        44                         -0.1759230              -4.7871
        45                         -0.1493288              -4.0634
        46                         -0.1168500              -3.1797
        47                         -0.0698956              -1.9020
        48                         -0.0513878              -1.3983
       ...                                ...                  ...
        67                          0.5073854              13.8067
      -------------------------------------------------------------
                  HL-Gap            0.0139331 Eh            0.3791 eV
             Fermi-level           -0.5384327 Eh          -14.6515 eV

     #   Z          covCN         q      C6AA      α(0)
     1   6 C        3.752    -0.101    22.484     6.762
     2   7 N        2.728     0.135    18.950     6.465
     3   6 C        1.913    -0.064    32.853     9.257
     4   7 N        1.809    -0.245    27.228     7.731
     5   6 C        2.826     0.160    24.529     8.115
     6   6 C        2.892    -0.020    28.509     8.754
     7   6 C        2.767     0.265    22.526     7.773
     8   8 O        0.861    -0.359    20.868     6.125
     9   7 N        2.744    -0.060    22.393     7.028
    10   6 C        3.709    -0.063    21.850     6.681
    11   6 C        2.723     0.320    21.566     7.602
    12   8 O        0.860    -0.332    20.375     6.052
    13   7 N        2.776    -0.030    21.823     6.938
    14   6 C        3.711    -0.076    22.091     6.717
    15   1 H        0.924     0.112     1.679     2.026
    16   1 H        0.925     0.110     1.696     2.037
    17   1 H        0.924     0.173     1.246     1.745
    18   1 H        0.920     0.137     1.481     1.903
    19   1 H        0.925     0.125     1.573     1.962
    20   1 H        0.924     0.118     1.633     1.998
    21   1 H        0.924     0.118     1.631     1.997
    22   1 H        0.924     0.121     1.602     1.979
    23   1 H        0.924     0.121     1.604     1.980
    24   1 H        0.925     0.129     1.542     1.942
    25   1 H        0.860     0.204     1.084     1.631

 Mol. C6AA /au·bohr⁶  :       6555.217796
 Mol. C8AA /au·bohr⁸  :     151186.621929
 Mol. α(0) /au        :        123.200893


Wiberg/Mayer (AO) data.
largest (>0.10) Wiberg bond orders for each atom

 ---------------------------------------------------------------------------
     #   Z sym  total        # sym  WBO       # sym  WBO       # sym  WBO
 ---------------------------------------------------------------------------
     1   6 C    3.788 --    16 H    0.959    15 H    0.957     2 N    0.923
                            17 H    0.874
     2   7 N    3.727 --     3 C    1.624     6 C    1.133     1 C    0.923
     3   6 C    2.800 --     2 N    1.624    18 H    0.906
     4   7 N    2.751 --     5 C    1.620    25 H    0.898
     5   6 C    3.956 --     4 N    1.620    13 N    1.127     6 C    1.109
     6   6 C    3.597 --     2 N    1.133     7 C    1.120     5 C    1.109
     7   6 C    3.937 --     8 O    1.581     9 N    1.129     6 C    1.120
     8   8 O    1.922 --     7 C    1.581     9 N    0.111
     9   7 N    3.482 --     7 C    1.129    11 C    1.090    10 C    0.980
                             8 O    0.111    12 O    0.105
    10   6 C    3.861 --     9 N    0.980    19 H    0.956    21 H    0.941
                            20 H    0.940
    11   6 C    3.957 --    12 O    1.668    13 N    1.115     9 N    1.090
    12   8 O    1.969 --    11 C    1.668    13 N    0.111     9 N    0.105
    13   7 N    3.486 --     5 C    1.127    11 C    1.115    14 C    0.983
                            12 O    0.111
    14   6 C    3.861 --    13 N    0.983    24 H    0.954    23 H    0.938
                            22 H    0.938
    15   1 H    0.982 --     1 C    0.957
    16   1 H    0.981 --     1 C    0.959
    17   1 H    0.939 --     1 C    0.874
    18   1 H    0.935 --     3 C    0.906
    19   1 H    0.976 --    10 C    0.956
    20   1 H    0.958 --    10 C    0.940
    21   1 H    0.959 --    10 C    0.941
    22   1 H    0.956 --    14 C    0.938
    23   1 H    0.956 --    14 C    0.938
    24   1 H    0.974 --    14 C    0.954
    25   1 H    0.948 --     4 N    0.898
 ---------------------------------------------------------------------------

Topologies differ in total number of bonds
Writing topology from bond orders to xtbtopo.mol

molecular dipole:
                 x           y           z       tot (Debye)
 q only:        1.675      -0.608       0.012
   full:        2.158      -0.355       0.023       5.559
molecular quadrupole (traceless):
                xx          xy          yy          xz          yz          zz
 q only:       15.848       1.752       2.187       0.059       0.132     -18.035
  q+dip:       18.304       0.934      -4.382       0.174       0.133     -13.922
   full:       16.648       1.218      -4.845       0.212       0.163     -11.803

           -------------------------------------------------
          |                Geometry Summary                 |
           -------------------------------------------------

      molecular mass/u    :      195.1988581
   center of mass at/Å    :       -0.0191354      -0.1108475      -0.0037445
  moments of inertia/u·Å² :        0.4840833E+03   0.7597433E+03   0.1234219E+04
rotational constants/cm⁻¹ :        0.3482383E-01   0.2218859E-01   0.1365854E-01

 * 21 selected distances

     #   Z          #   Z                                           value/Å
     1   6 C        2   7 N                                       1.4756111 (max)
     2   7 N        3   6 C                                       1.2876775
     4   7 N        5   6 C                                       1.2808867
     2   7 N        6   6 C                                       1.4018417
     7   6 C        8   8 O                                       1.2267987
     7   6 C        9   7 N                                       1.3818945
     9   7 N       10   6 C                                       1.4509346
     9   7 N       11   6 C                                       1.3809243
    11   6 C       12   8 O                                       1.2042135
     5   6 C       13   7 N                                       1.3821068
    11   6 C       13   7 N                                       1.3733341
    13   7 N       14   6 C                                       1.4476609
     1   6 C       15   1 H                                       1.0908486
     1   6 C       16   1 H                                       1.0894611
     1   6 C       17   1 H                                       1.0934417
    10   6 C       19   1 H                                       1.0875366 (min)
    10   6 C       20   1 H                                       1.0915427
    10   6 C       21   1 H                                       1.0913631
    14   6 C       22   1 H                                       1.0909424
    14   6 C       23   1 H                                       1.0910913
    14   6 C       24   1 H                                       1.0888453

 * 3 distinct bonds (by element types)

   Z      Z             #   av. dist./Å        max./Å        min./Å
   1 H    6 C           9     1.0905636     1.0934417     1.0875366
   6 C    7 N          10     1.3862872     1.4756111     1.2808867
   6 C    8 O           2     1.2155061     1.2267987     1.2042135


optimized geometry written to: xtbopt.xyz


           -------------------------------------------------
          | TOTAL ENERGY              -42.073623829969 Eh   |
          | GRADIENT NORM               0.002426563011 Eh/α |
          | HOMO-LUMO GAP               0.379140075944 eV   |
           -------------------------------------------------

------------------------------------------------------------------------
 * finished run on 2024/06/05 at 20:00:08.993     
------------------------------------------------------------------------
 total:
 * wall-time:     0 d,  0 h,  0 min,  0.712 sec
 *  cpu-time:     0 d,  0 h,  0 min,  0.680 sec
 * ratio c/w:     0.955 speedup
 SCF:
 * wall-time:     0 d,  0 h,  0 min,  0.035 sec
 *  cpu-time:     0 d,  0 h,  0 min,  0.034 sec
 * ratio c/w:     0.981 speedup
 ANC optimizer:
 * wall-time:     0 d,  0 h,  0 min,  0.627 sec
 *  cpu-time:     0 d,  0 h,  0 min,  0.620 sec
 * ratio c/w:     0.988 speedup

