      -----------------------------------------------------------      
     |                   =====================                   |     
     |                           x T B                           |     
     |                   =====================                   |     
     |                         S. Grimme                         |     
     |          Mulliken Center for Theoretical Chemistry        |     
     |                    University of Bonn                     |     
      -----------------------------------------------------------      

   * xtb version 6.6.1 (8d0f1dd) compiled by 'conda@1efc2f54142f' on 2023-08-01

   xtb is free software: you can redistribute it and/or modify it under
   the terms of the GNU Lesser General Public License as published by
   the Free Software Foundation, either version 3 of the License, or
   (at your option) any later version.
   
   xtb is distributed in the hope that it will be useful,
   but WITHOUT ANY WARRANTY; without even the implied warranty of
   MERCHANTABILITY or FITNESS FOR A PARTICULAR PURPOSE.  See the
   GNU Lesser General Public License for more details.
   
   Cite this work as:
   * C. Bannwarth, E. Caldeweyher, S. Ehlert, A. Hansen, P. Pracht,
     J. Seibert, S. Spicher, S. Grimme, WIREs Comput. Mol. Sci., 2020, 11,
     e01493. DOI: 10.1002/wcms.1493
   
   for GFN2-xTB:
   * C. Bannwarth, S. Ehlert and S. Grimme., J. Chem. Theory Comput., 2019,
     15, 1652-1671. DOI: 10.1021/acs.jctc.8b01176
   for GFN1-xTB:
   * S. Grimme, C. Bannwarth, P. Shushkov, J. Chem. Theory Comput., 2017,
     13, 1989-2009. DOI: 10.1021/acs.jctc.7b00118
   for GFN0-xTB:
   * P. Pracht, E. Caldeweyher, S. Ehlert, S. Grimme, ChemRxiv, 2019, preprint.
     DOI: 10.26434/chemrxiv.8326202.v1
   for GFN-FF:
   * S. Spicher and S. Grimme, Angew. Chem. Int. Ed., 2020, 59, 15665-15673.
     DOI: 10.1002/anie.202004239
   
   for ALPB and GBSA implicit solvation:
   * S. Ehlert, M. Stahn, S. Spicher, S. Grimme, J. Chem. Theory Comput.,
     2021, 17, 4250-4261. DOI: 10.1021/acs.jctc.1c00471
   
   for DFT-D4:
   * E. Caldeweyher, C. Bannwarth and S. Grimme, J. Chem. Phys., 2017,
     147, 034112. DOI: 10.1063/1.4993215
   * E. Caldeweyher, S. Ehlert, A. Hansen, H. Neugebauer, S. Spicher,
     C. Bannwarth and S. Grimme, J. Chem. Phys., 2019, 150, 154122.
     DOI: 10.1063/1.5090222
   * E. Caldeweyher, J.-M. Mewes, S. Ehlert and S. Grimme, Phys. Chem. Chem. Phys.
     2020, 22, 8499-8512. DOI: 10.1039/D0CP00502A
   
   for sTDA-xTB:
   * S. Grimme and C. Bannwarth, J. Chem. Phys., 2016, 145, 054103.
     DOI: 10.1063/1.4959605
   
   in the mass-spec context:
   * V. Asgeirsson, C. Bauer and S. Grimme, Chem. Sci., 2017, 8, 4879.
     DOI: 10.1039/c7sc00601b
   * J. Koopman and S. Grimme, ACS Omega 2019, 4, 12, 15120-15133.
     DOI: 10.1021/acsomega.9b02011
   
   for metadynamics refer to:
   * S. Grimme, J. Chem. Theory Comput., 2019, 155, 2847-2862
     DOI: 10.1021/acs.jctc.9b00143
   
   for SPH calculations refer to:
   * S. Spicher and S. Grimme, J. Chem. Theory Comput., 2021, 17, 1701-1714
     DOI: 10.1021/acs.jctc.0c01306
   
   with help from (in alphabetical order)
   P. Atkinson, C. Bannwarth, F. Bohle, G. Brandenburg, E. Caldeweyher
   M. Checinski, S. Dohm, S. Ehlert, S. Ehrlich, I. Gerasimov, C. Hölzer
   A. Katbashev, J. Koopman, C. Lavigne, S. Lehtola, F. März, M. Müller,
   F. Musil, H. Neugebauer, J. Pisarek, C. Plett, P. Pracht, F. Pultar,
   J. Seibert, P. Shushkov, S. Spicher, M. Stahn, M. Steiner, T. Strunk,
   J. Stückrath, T. Rose, and J. Unsleber
   
 * started run on 2024/06/05 at 19:58:49.605     

           -------------------------------------------------
          |                Calculation Setup                |
           -------------------------------------------------

          program call               : xtb struc.xyz --opt loose --input .xc1 --gfn2
          hostname                   : n-62-29-9
          coordinate file            : struc.xyz
          omp threads                :                     1

   ID    Z sym.   atoms
    1    6 C      1, 3, 5-7, 10, 11, 14
    2    7 N      2, 4, 9, 13
    3    8 O      8, 12
    4    1 H      15-25
constraining bond 9 11 to    3.9200000 Å, actual value:    1.3842352 Å

           -------------------------------------------------
          |                 G F N 2 - x T B                 |
           -------------------------------------------------

        Reference                      10.1021/acs.jctc.8b01176
      * Hamiltonian:
        H0-scaling (s, p, d)           1.850000    2.230000    2.230000
        zeta-weighting                 0.500000
      * Dispersion:
        s8                             2.700000
        a1                             0.520000
        a2                             5.000000
        s9                             5.000000
      * Repulsion:
        kExp                           1.500000    1.000000
        rExp                           1.000000
      * Coulomb:
        alpha                          2.000000
        third order                    shell-resolved
        anisotropic                    true
        a3                             3.000000
        a5                             4.000000
        cn-shift                       1.200000
        cn-exp                         4.000000
        max-rad                        5.000000


          ...................................................
          :                      SETUP                      :
          :.................................................:
          :  # basis functions                  67          :
          :  # atomic orbitals                  67          :
          :  # shells                           39          :
          :  # electrons                        74          :
          :  max. iterations                   250          :
          :  Hamiltonian                  GFN2-xTB          :
          :  restarted?                      false          :
          :  GBSA solvation                  false          :
          :  PC potential                    false          :
          :  electronic temp.         7500.0000000     K    :
          :  accuracy                    1.0000000          :
          :  -> integral cutoff          0.2500000E+02      :
          :  -> integral neglect         0.1000000E-07      :
          :  -> SCF convergence          0.1000000E-05 Eh   :
          :  -> wf. convergence          0.1000000E-03 e    :
          :  Broyden damping             0.4000000          :
          ...................................................

 iter      E             dE          RMSdq      gap      omega  full diag
   1    -42.5960780 -0.425961E+02  0.440E+00    3.52       0.0  T
   2    -42.7780033 -0.181925E+00  0.248E+00    3.37       1.0  T
   3    -42.7871777 -0.917437E-02  0.149E+00    3.50       1.0  T
   4    -42.7817164  0.546128E-02  0.642E-01    3.42       1.0  T
   5    -42.7911189 -0.940247E-02  0.115E-01    3.49       1.0  T
   6    -42.7912109 -0.920486E-04  0.685E-02    3.46       1.0  T
   7    -42.7912647 -0.537856E-04  0.265E-02    3.48       1.0  T
   8    -42.7912686 -0.385526E-05  0.113E-02    3.47       1.8  T
   9    -42.7912697 -0.111307E-05  0.441E-03    3.47       4.5  T
  10    -42.7912698 -0.733569E-07  0.139E-03    3.47      14.4  T
  11    -42.7912698 -0.243437E-08  0.602E-04    3.47      33.2  T
  12    -42.7912698 -0.222032E-08  0.181E-04    3.47     110.6  T

   *** convergence criteria satisfied after 12 iterations ***

         #    Occupation            Energy/Eh            Energy/eV
      -------------------------------------------------------------
         1        2.0000           -0.9116047             -24.8060
       ...           ...                  ...                  ...
        31        1.9942           -0.6212459             -16.9050
        32        1.9930           -0.6166804             -16.7807
        33        1.9876           -0.6031136             -16.4116
        34        1.9710           -0.5827317             -15.8569
        35        1.9403           -0.5651917             -15.3796
        36        1.9387           -0.5645672             -15.3627
        37        1.9155           -0.5566412             -15.1470 (HOMO)
        38        0.1907           -0.4290919             -11.6762 (LUMO)
        39        0.0640           -0.4015676             -10.9272
        40        0.0206           -0.3740689             -10.1789
        41        0.0006           -0.2879107              -7.8344
        42        0.0000           -0.2065811              -5.6214
       ...           ...                  ...                  ...
        67                          0.5613577              15.2753
      -------------------------------------------------------------
                  HL-Gap            0.1275493 Eh            3.4708 eV
             Fermi-level           -0.4825284 Eh          -13.1303 eV

 SCC (total)                   0 d,  0 h,  0 min,  0.042 sec
 SCC setup                      ...        0 min,  0.000 sec (  0.506%)
 Dispersion                     ...        0 min,  0.000 sec (  0.683%)
 classical contributions        ...        0 min,  0.000 sec (  0.172%)
 integral evaluation            ...        0 min,  0.005 sec ( 11.013%)
 iterations                     ...        0 min,  0.025 sec ( 59.388%)
 molecular gradient             ...        0 min,  0.012 sec ( 27.833%)
 printout                       ...        0 min,  0.000 sec (  0.377%)

         :::::::::::::::::::::::::::::::::::::::::::::::::::::
         ::                     SUMMARY                     ::
         :::::::::::::::::::::::::::::::::::::::::::::::::::::
         :: total energy             -30.778894791440 Eh    ::
         :: gradient norm              6.774112297670 Eh/a0 ::
         :: HOMO-LUMO gap              3.470793873671 eV    ::
         ::.................................................::
         :: SCC energy               -42.791269777655 Eh    ::
         :: -> isotropic ES            0.136760385929 Eh    ::
         :: -> anisotropic ES         -0.005341405309 Eh    ::
         :: -> anisotropic XC          0.011501049227 Eh    ::
         :: -> dispersion             -0.022650340738 Eh    ::
         :: repulsion energy           0.531105277918 Eh    ::
         :: add. restraining          11.481155549288 Eh    ::
         :: total charge               1.000000000010 e     ::
         :::::::::::::::::::::::::::::::::::::::::::::::::::::

      ----------------------------------------------------------- 
     |                   =====================                   |
     |                        A N C O P T                        |
     |                   =====================                   |
     |               Approximate Normal Coordinate               |
     |                Rational Function Optimizer                |
      ----------------------------------------------------------- 

          ...................................................
          :                      SETUP                      :
          :.................................................:
          :   optimization level             loose          :
          :   max. optcycles                   200          :
          :   ANC micro-cycles                  20          :
          :   degrees of freedom                69          :
          :.................................................:
          :   RF solver                   davidson          :
          :   write xtbopt.log                true          :
          :   linear?                        false          :
          :   energy convergence         0.5000000E-04 Eh   :
          :   grad. convergence          0.4000000E-02 Eh/α :
          :   maxmium RF displ.          1.0000000          :
          :   Hlow (freq-cutoff)         0.1000000E-01      :
          :   Hmax (freq-cutoff)         5.0000000          :
          :   S6 in model hess.         20.0000000          :
          ...................................................

generating ANC from model Hessian ...
Using Lindh-Hessian (1995)
 Shifting diagonal of input Hessian by    3.3859942906824658     
 Lowest  eigenvalues of input Hessian
    0.010000    1.130504    0.000000    0.000000    0.000000    0.000000
    0.000000    0.000000    3.388877    3.390192    3.394642    3.394931
    3.395853    3.397727    3.397802    3.402733    3.405638    3.409144
 Highest eigenvalues
    5.475285    5.537393    5.607771    5.727867    5.765762    7.394109


........................................................................
.............................. CYCLE    1 ..............................
........................................................................

 iter      E             dE          RMSdq      gap      omega  full diag
   1    -42.7912698 -0.427913E+02  0.838E-05    3.47       0.0  T
   2    -42.7912698 -0.247127E-10  0.452E-05    3.47     442.9  T
   3    -42.7912698 -0.149214E-11  0.279E-05    3.47     715.8  T
     SCC iter.                  ...        0 min,  0.005 sec
     gradient                   ...        0 min,  0.012 sec
 * total energy  :   -30.7788948 Eh     change       -0.2401990E-09 Eh
   gradient norm :     6.7741123 Eh/α   predicted     0.0000000E+00 (-100.00%)
   displ. norm   :     0.6979430 α      lambda       -0.4717843E+01
   maximum displ.:     0.6791622 α      in ANC's #62, #61, #69, ...

........................................................................
.............................. CYCLE    2 ..............................
........................................................................

 iter      E             dE          RMSdq      gap      omega  full diag
   1    -42.7381427 -0.427381E+02  0.170E+00    3.17       0.0  T
   2    -42.7718358 -0.336932E-01  0.788E-01    3.05       1.0  T
   3    -42.7772063 -0.537044E-02  0.448E-01    3.28       1.0  T
   4    -42.7779010 -0.694747E-03  0.233E-01    3.13       1.0  T
   5    -42.7786988 -0.797768E-03  0.567E-02    3.23       1.0  T
   6    -42.7787464 -0.475802E-04  0.279E-02    3.20       1.0  T
   7    -42.7787527 -0.634050E-05  0.124E-02    3.21       1.6  T
   8    -42.7787543 -0.153207E-05  0.489E-03    3.21       4.1  T
   9    -42.7787546 -0.299856E-06  0.196E-03    3.21      10.2  T
  10    -42.7787546 -0.473575E-08  0.770E-04    3.21      26.0  T
  11    -42.7787546 -0.681460E-08  0.329E-04    3.21      60.8  T
     SCC iter.                  ...        0 min,  0.015 sec
     gradient                   ...        0 min,  0.011 sec
 * total energy  :   -34.9119325 Eh     change       -0.4133038E+01 Eh
   gradient norm :     5.1313309 Eh/α   predicted    -0.3515062E+01 ( -14.95%)
   displ. norm   :     0.8022911 α      lambda       -0.4110398E+01
   maximum displ.:     0.7644688 α      in ANC's #62, #61, #64, ...

........................................................................
.............................. CYCLE    3 ..............................
........................................................................

 iter      E             dE          RMSdq      gap      omega  full diag
   1    -42.6398191 -0.426398E+02  0.167E+00    0.61       0.0  T
   2    -42.6205652  0.192538E-01  0.147E+00    1.70       1.0  T
   3    -42.6839918 -0.634266E-01  0.595E-01    1.12       1.0  T
   4    -42.6855886 -0.159678E-02  0.216E-01    1.15       1.0  T
   5    -42.6862961 -0.707475E-03  0.664E-02    1.22       1.0  T
   6    -42.6863714 -0.753846E-04  0.249E-02    1.21       1.0  T
   7    -42.6863745 -0.307144E-05  0.104E-02    1.22       1.9  T
   8    -42.6863752 -0.737135E-06  0.519E-03    1.21       3.9  T
   9    -42.6863759 -0.691683E-06  0.276E-03    1.22       7.2  T
  10    -42.6863761 -0.123256E-06  0.124E-03    1.22      16.1  T
  11    -42.6863761 -0.962726E-08  0.334E-04    1.22      59.9  T
  12    -42.6863761 -0.473150E-09  0.167E-04    1.22     119.9  T
     SCC iter.                  ...        0 min,  0.017 sec
     gradient                   ...        0 min,  0.011 sec
 * total energy  :   -38.3889276 Eh     change       -0.3476995E+01 Eh
   gradient norm :     3.5796702 Eh/α   predicted    -0.3378071E+01 (  -2.85%)
   displ. norm   :     0.7752520 α      lambda       -0.2766091E+01
   maximum displ.:     0.7244882 α      in ANC's #62, #61, #2, ...

........................................................................
.............................. CYCLE    4 ..............................
........................................................................

 iter      E             dE          RMSdq      gap      omega  full diag
   1    -42.4080212 -0.424080E+02  0.200E+00    0.83       0.0  T
   2    -42.3559802  0.520410E-01  0.223E+00    0.89       1.0  T
   3    -42.5351286 -0.179148E+00  0.550E-01    0.25       1.0  T
   4    -42.5363115 -0.118297E-02  0.454E-01    0.13       1.0  T
   5    -42.5399406 -0.362907E-02  0.177E-01    0.19       1.0  T
   6    -42.5400760 -0.135396E-03  0.762E-02    0.23       1.0  T
   7    -42.5402418 -0.165768E-03  0.235E-02    0.20       1.0  T
   8    -42.5402384  0.331682E-05  0.142E-02    0.20       1.4  T
   9    -42.5402443 -0.580720E-05  0.575E-03    0.21       3.5  T
  10    -42.5402452 -0.982984E-06  0.179E-03    0.20      11.2  T
  11    -42.5402453 -0.285677E-07  0.850E-04    0.20      23.5  T
  12    -42.5402453 -0.648842E-08  0.297E-04    0.20      67.3  T
     SCC iter.                  ...        0 min,  0.017 sec
     gradient                   ...        0 min,  0.011 sec
 * total energy  :   -40.5989830 Eh     change       -0.2210055E+01 Eh
   gradient norm :     2.1430437 Eh/α   predicted    -0.2214279E+01 (   0.19%)
   displ. norm   :     0.6591035 α      lambda       -0.1411214E+01
   maximum displ.:     0.6272662 α      in ANC's #62, #61, #51, ...

........................................................................
.............................. CYCLE    5 ..............................
........................................................................

 iter      E             dE          RMSdq      gap      omega  full diag
   1    -42.3207518 -0.423208E+02  0.176E+00    1.13       0.0  T
   2    -42.2951649  0.255870E-01  0.175E+00    0.78       1.0  T
   3    -42.3923873 -0.972224E-01  0.516E-01    0.91       1.0  T
   4    -42.3942383 -0.185099E-02  0.287E-01    0.86       1.0  T
   5    -42.3946151 -0.376831E-03  0.929E-02    0.91       1.0  T
   6    -42.3948054 -0.190301E-03  0.443E-02    0.86       1.0  T
   7    -42.3948439 -0.385399E-04  0.223E-02    0.88       1.0  T
   8    -42.3948542 -0.102302E-04  0.737E-03    0.88       2.7  T
   9    -42.3948553 -0.113359E-05  0.289E-03    0.88       6.9  T
  10    -42.3948554 -0.127719E-06  0.123E-03    0.88      16.3  T
  11    -42.3948554 -0.709277E-08  0.469E-04    0.88      42.7  T
  12    -42.3948554 -0.286228E-09  0.241E-04    0.88      83.0  T
     SCC iter.                  ...        0 min,  0.017 sec
     gradient                   ...        0 min,  0.011 sec
 * total energy  :   -41.5856295 Eh     change       -0.9866466E+00 Eh
   gradient norm :     0.8523719 Eh/α   predicted    -0.1012150E+01 (   2.58%)
   displ. norm   :     0.3795432 α      lambda       -0.3215197E+00
   maximum displ.:     0.3517196 α      in ANC's #62, #38, #15, ...

........................................................................
.............................. CYCLE    6 ..............................
........................................................................

 iter      E             dE          RMSdq      gap      omega  full diag
   1    -42.3060543 -0.423061E+02  0.917E-01    0.97       0.0  T
   2    -42.2925137  0.135406E-01  0.936E-01    0.90       1.0  T
   3    -42.3181577 -0.256440E-01  0.396E-01    0.96       1.0  T
   4    -42.3212275 -0.306978E-02  0.156E-01    0.91       1.0  T
   5    -42.3212965 -0.690008E-04  0.318E-02    0.93       1.0  T
   6    -42.3213127 -0.162320E-04  0.158E-02    0.92       1.3  T
   7    -42.3213142 -0.144307E-05  0.964E-03    0.92       2.1  T
   8    -42.3213153 -0.118525E-05  0.392E-03    0.92       5.1  T
   9    -42.3213157 -0.332192E-06  0.168E-03    0.92      11.9  T
  10    -42.3213157 -0.340623E-07  0.805E-04    0.92      24.8  T
  11    -42.3213157 -0.115795E-07  0.300E-04    0.92      66.6  T
     SCC iter.                  ...        0 min,  0.015 sec
     gradient                   ...        0 min,  0.011 sec
 * total energy  :   -41.7710853 Eh     change       -0.1854558E+00 Eh
   gradient norm :     0.2252507 Eh/α   predicted    -0.1839211E+00 (  -0.83%)
   displ. norm   :     0.1162895 α      lambda       -0.2260428E-01
   maximum displ.:     0.0625464 α      in ANC's #62, #2, #15, ...

........................................................................
.............................. CYCLE    7 ..............................
........................................................................

 iter      E             dE          RMSdq      gap      omega  full diag
   1    -42.3188949 -0.423189E+02  0.259E-01    0.92       0.0  T
   2    -42.3183853  0.509598E-03  0.240E-01    0.91       1.0  T
   3    -42.3196317 -0.124647E-02  0.132E-01    0.92       1.0  T
   4    -42.3199586 -0.326844E-03  0.547E-02    0.92       1.0  T
   5    -42.3199672 -0.860697E-05  0.305E-02    0.91       1.0  T
   6    -42.3199906 -0.234528E-04  0.843E-03    0.92       2.4  T
   7    -42.3199918 -0.113031E-05  0.324E-03    0.92       6.2  T
   8    -42.3199919 -0.147525E-06  0.160E-03    0.92      12.5  T
   9    -42.3199920 -0.538829E-07  0.565E-04    0.92      35.4  T
  10    -42.3199920 -0.156840E-08  0.271E-04    0.92      73.9  T
     SCC iter.                  ...        0 min,  0.014 sec
     gradient                   ...        0 min,  0.011 sec
 * total energy  :   -41.7882420 Eh     change       -0.1715672E-01 Eh
   gradient norm :     0.1887786 Eh/α   predicted    -0.1145510E-01 ( -33.23%)
   displ. norm   :     0.2727890 α      lambda       -0.2936203E-01
   maximum displ.:     0.1906083 α      in ANC's #1, #2, #15, ...

........................................................................
.............................. CYCLE    8 ..............................
........................................................................

 iter      E             dE          RMSdq      gap      omega  full diag
   1    -42.3305022 -0.423305E+02  0.611E-01    0.95       0.0  T
   2    -42.3253892  0.511301E-02  0.621E-01    0.88       1.0  T
   3    -42.3343039 -0.891477E-02  0.326E-01    0.92       1.0  T
   4    -42.3360701 -0.176612E-02  0.149E-01    0.90       1.0  T
   5    -42.3363458 -0.275743E-03  0.702E-02    0.88       1.0  T
   6    -42.3364632 -0.117395E-03  0.209E-02    0.90       1.0  T
   7    -42.3364661 -0.289629E-05  0.100E-02    0.90       2.0  T
   8    -42.3364688 -0.266558E-05  0.347E-03    0.90       5.8  T
   9    -42.3364690 -0.218451E-06  0.132E-03    0.90      15.2  T
  10    -42.3364690 -0.450444E-08  0.591E-04    0.90      33.9  T
  11    -42.3364690 -0.328185E-08  0.231E-04    0.90      86.4  T
     SCC iter.                  ...        0 min,  0.015 sec
     gradient                   ...        0 min,  0.011 sec
 * total energy  :   -41.8121732 Eh     change       -0.2393115E-01 Eh
   gradient norm :     0.2074648 Eh/α   predicted    -0.1577393E-01 ( -34.09%)
   displ. norm   :     0.7732745 α      lambda       -0.5502567E-01
   maximum displ.:     0.6800691 α      in ANC's #1, #2, #15, ...

........................................................................
.............................. CYCLE    9 ..............................
........................................................................

 iter      E             dE          RMSdq      gap      omega  full diag
   1    -42.3479765 -0.423480E+02  0.141E+00    0.87       0.0  T
   2    -42.3176320  0.303445E-01  0.130E+00    0.84       1.0  T
   3    -42.3581989 -0.405669E-01  0.803E-01    0.92       1.0  T
   4    -42.3714994 -0.133006E-01  0.267E-01    0.74       1.0  T
   5    -42.3725019 -0.100246E-02  0.953E-02    0.75       1.0  T
   6    -42.3726972 -0.195297E-03  0.473E-02    0.76       1.0  T
   7    -42.3727269 -0.297383E-04  0.118E-02    0.75       1.7  T
   8    -42.3727279 -0.925330E-06  0.621E-03    0.75       3.2  T
   9    -42.3727285 -0.683512E-06  0.318E-03    0.75       6.3  T
  10    -42.3727286 -0.103331E-06  0.145E-03    0.75      13.8  T
  11    -42.3727287 -0.359638E-07  0.487E-04    0.75      41.1  T
  12    -42.3727287 -0.152477E-08  0.188E-04    0.75     106.6  T
     SCC iter.                  ...        0 min,  0.017 sec
     gradient                   ...        0 min,  0.011 sec
 * total energy  :   -41.8518451 Eh     change       -0.3967187E-01 Eh
   gradient norm :     0.3904153 Eh/α   predicted    -0.4396429E-01 (  10.82%)
   displ. norm   :     0.4500902 α      lambda       -0.6898218E-01
   maximum displ.:     0.1833276 α      in ANC's #15, #2, #1, ...

........................................................................
.............................. CYCLE   10 ..............................
........................................................................

 iter      E             dE          RMSdq      gap      omega  full diag
   1    -42.4028861 -0.424029E+02  0.103E+00    0.64       0.0  T
   2    -42.3954636  0.742252E-02  0.104E+00    1.01       1.0  T
   3    -42.4284822 -0.330186E-01  0.469E-01    0.67       1.0  T
   4    -42.4322074 -0.372522E-02  0.248E-01    0.70       1.0  T
   5    -42.4324590 -0.251586E-03  0.106E-01    0.68       1.0  T
   6    -42.4327931 -0.334098E-03  0.336E-02    0.68       1.0  T
   7    -42.4328126 -0.194382E-04  0.146E-02    0.68       1.4  T
   8    -42.4328150 -0.241679E-05  0.579E-03    0.68       3.5  T
   9    -42.4328155 -0.495487E-06  0.327E-03    0.68       6.1  T
  10    -42.4328156 -0.151794E-06  0.123E-03    0.68      16.2  T
  11    -42.4328156 -0.103197E-07  0.484E-04    0.68      41.4  T
  12    -42.4328156 -0.106727E-08  0.229E-04    0.68      87.4  T
     SCC iter.                  ...        0 min,  0.017 sec
     gradient                   ...        0 min,  0.011 sec
 * total energy  :   -41.8673887 Eh     change       -0.1554361E-01 Eh
   gradient norm :     0.4319067 Eh/α   predicted    -0.4147823E-01 ( 166.85%)
   displ. norm   :     0.3740195 α      lambda       -0.6062762E-01
   maximum displ.:     0.3642789 α      in ANC's #1, #2, #62, ...

........................................................................
.............................. CYCLE   11 ..............................
........................................................................

 iter      E             dE          RMSdq      gap      omega  full diag
   1    -42.3734779 -0.423735E+02  0.105E+00    1.23       0.0  T
   2    -42.3236758  0.498020E-01  0.138E+00    0.85       1.0  T
   3    -42.4056821 -0.820062E-01  0.391E-01    0.91       1.0  T
   4    -42.4079132 -0.223111E-02  0.177E-01    0.84       1.0  T
   5    -42.4079848 -0.715894E-04  0.858E-02    0.85       1.0  T
   6    -42.4082260 -0.241252E-03  0.239E-02    0.84       1.0  T
   7    -42.4082420 -0.159782E-04  0.984E-03    0.84       2.0  T
   8    -42.4082436 -0.161352E-05  0.409E-03    0.84       4.9  T
   9    -42.4082438 -0.218270E-06  0.149E-03    0.84      13.4  T
  10    -42.4082438 -0.123151E-07  0.588E-04    0.84      34.0  T
  11    -42.4082438 -0.973372E-09  0.211E-04    0.84      94.7  T
     SCC iter.                  ...        0 min,  0.015 sec
     gradient                   ...        0 min,  0.011 sec
 * total energy  :   -41.9095525 Eh     change       -0.4216378E-01 Eh
   gradient norm :     0.2180109 Eh/α   predicted    -0.3455506E-01 ( -18.05%)
   displ. norm   :     0.2289668 α      lambda       -0.2884394E-01
   maximum displ.:     0.1845988 α      in ANC's #1, #62, #2, ...

........................................................................
.............................. CYCLE   12 ..............................
........................................................................

 iter      E             dE          RMSdq      gap      omega  full diag
   1    -42.3860978 -0.423861E+02  0.585E-01    1.14       0.0  T
   2    -42.3705920  0.155058E-01  0.741E-01    0.74       1.0  T
   3    -42.3945723 -0.239803E-01  0.243E-01    0.98       1.0  T
   4    -42.3955469 -0.974565E-03  0.110E-01    0.92       1.0  T
   5    -42.3956431 -0.961973E-04  0.593E-02    0.93       1.0  T
   6    -42.3957702 -0.127124E-03  0.126E-02    0.92       1.6  T
   7    -42.3957731 -0.292783E-05  0.563E-03    0.92       3.6  T
   8    -42.3957735 -0.329474E-06  0.223E-03    0.93       9.0  T
   9    -42.3957735 -0.607856E-07  0.820E-04    0.93      24.4  T
  10    -42.3957735 -0.268660E-08  0.374E-04    0.93      53.5  T
     SCC iter.                  ...        0 min,  0.014 sec
     gradient                   ...        0 min,  0.011 sec
 * total energy  :   -41.9295542 Eh     change       -0.2000174E-01 Eh
   gradient norm :     0.1658976 Eh/α   predicted    -0.1517824E-01 ( -24.12%)
   displ. norm   :     0.1398174 α      lambda       -0.1637545E-01
   maximum displ.:     0.0630164 α      in ANC's #62, #2, #69, ...

........................................................................
.............................. CYCLE   13 ..............................
........................................................................

 iter      E             dE          RMSdq      gap      omega  full diag
   1    -42.3971610 -0.423972E+02  0.320E-01    1.06       0.0  T
   2    -42.3939537  0.320735E-02  0.344E-01    0.83       1.0  T
   3    -42.3984966 -0.454294E-02  0.159E-01    1.01       1.0  T
   4    -42.3991858 -0.689157E-03  0.679E-02    0.95       1.0  T
   5    -42.3992356 -0.498637E-04  0.212E-02    0.96       1.0  T
   6    -42.3992514 -0.157614E-04  0.676E-03    0.96       3.0  T
   7    -42.3992523 -0.887752E-06  0.368E-03    0.96       5.4  T
   8    -42.3992524 -0.115141E-06  0.152E-03    0.96      13.1  T
   9    -42.3992524 -0.293798E-07  0.691E-04    0.96      28.9  T
  10    -42.3992524 -0.295080E-08  0.297E-04    0.96      67.3  T
     SCC iter.                  ...        0 min,  0.014 sec
     gradient                   ...        0 min,  0.011 sec
 * total energy  :   -41.9406691 Eh     change       -0.1111489E-01 Eh
   gradient norm :     0.1566342 Eh/α   predicted    -0.8348126E-02 ( -24.89%)
   displ. norm   :     0.3985993 α      lambda       -0.2093435E-01
   maximum displ.:     0.3095360 α      in ANC's #1, #22, #15, ...

........................................................................
.............................. CYCLE   14 ..............................
........................................................................

 iter      E             dE          RMSdq      gap      omega  full diag
   1    -42.3690968 -0.423691E+02  0.739E-01    1.37       0.0  T
   2    -42.3486894  0.204074E-01  0.788E-01    0.80       1.0  T
   3    -42.3731041 -0.244147E-01  0.413E-01    1.32       1.0  T
   4    -42.3772617 -0.415766E-02  0.207E-01    1.11       1.0  T
   5    -42.3783321 -0.107034E-02  0.557E-02    1.15       1.0  T
   6    -42.3784317 -0.995962E-04  0.178E-02    1.15       1.1  T
   7    -42.3784335 -0.182729E-05  0.104E-02    1.15       1.9  T
   8    -42.3784346 -0.113907E-05  0.335E-03    1.14       6.0  T
   9    -42.3784348 -0.179357E-06  0.168E-03    1.15      11.9  T
  10    -42.3784348 -0.163020E-07  0.469E-04    1.15      42.6  T
  11    -42.3784348 -0.354086E-08  0.160E-04    1.15     124.7  T
     SCC iter.                  ...        0 min,  0.016 sec
     gradient                   ...        0 min,  0.011 sec
 * total energy  :   -41.9513891 Eh     change       -0.1072004E-01 Eh
   gradient norm :     0.1867708 Eh/α   predicted    -0.1213044E-01 (  13.16%)
   displ. norm   :     0.1862506 α      lambda       -0.1918975E-01
   maximum displ.:     0.0749627 α      in ANC's #69, #22, #15, ...

........................................................................
.............................. CYCLE   15 ..............................
........................................................................

 iter      E             dE          RMSdq      gap      omega  full diag
   1    -42.4021848 -0.424022E+02  0.350E-01    1.18       0.0  T
   2    -42.4020681  0.116741E-03  0.246E-01    1.07       1.0  T
   3    -42.4029097 -0.841599E-03  0.159E-01    1.21       1.0  T
   4    -42.4030277 -0.118094E-03  0.134E-01    1.07       1.0  T
   5    -42.4037464 -0.718635E-03  0.379E-02    1.15       1.0  T
   6    -42.4037905 -0.441613E-04  0.927E-03    1.14       2.2  T
   7    -42.4037912 -0.697883E-06  0.522E-03    1.14       3.8  T
   8    -42.4037916 -0.331928E-06  0.227E-03    1.14       8.8  T
   9    -42.4037916 -0.649345E-07  0.963E-04    1.14      20.8  T
  10    -42.4037916 -0.451207E-08  0.326E-04    1.14      61.3  T
     SCC iter.                  ...        0 min,  0.014 sec
     gradient                   ...        0 min,  0.011 sec
 * total energy  :   -41.9646818 Eh     change       -0.1329267E-01 Eh
   gradient norm :     0.1712573 Eh/α   predicted    -0.9928111E-02 ( -25.31%)
   displ. norm   :     0.2132234 α      lambda       -0.1904510E-01
   maximum displ.:     0.0988288 α      in ANC's #22, #15, #69, ...

........................................................................
.............................. CYCLE   16 ..............................
........................................................................

 iter      E             dE          RMSdq      gap      omega  full diag
   1    -42.4268748 -0.424269E+02  0.377E-01    1.00       0.0  T
   2    -42.4263377  0.537165E-03  0.334E-01    1.27       1.0  T
   3    -42.4290847 -0.274708E-02  0.177E-01    1.02       1.0  T
   4    -42.4298451 -0.760354E-03  0.110E-01    1.16       1.0  T
   5    -42.4301294 -0.284337E-03  0.522E-02    1.09       1.0  T
   6    -42.4302228 -0.933612E-04  0.929E-03    1.11       2.2  T
   7    -42.4302238 -0.100858E-05  0.514E-03    1.11       3.9  T
   8    -42.4302242 -0.402833E-06  0.198E-03    1.11      10.1  T
   9    -42.4302242 -0.395416E-07  0.812E-04    1.11      24.6  T
  10    -42.4302242 -0.816335E-09  0.371E-04    1.11      53.9  T
     SCC iter.                  ...        0 min,  0.014 sec
     gradient                   ...        0 min,  0.011 sec
 * total energy  :   -41.9791005 Eh     change       -0.1441873E-01 Eh
   gradient norm :     0.1484569 Eh/α   predicted    -0.9955840E-02 ( -30.95%)
   displ. norm   :     0.2452100 α      lambda       -0.1845936E-01
   maximum displ.:     0.1160227 α      in ANC's #15, #22, #41, ...

........................................................................
.............................. CYCLE   17 ..............................
........................................................................

 iter      E             dE          RMSdq      gap      omega  full diag
   1    -42.4459745 -0.424460E+02  0.476E-01    0.79       0.0  T
   2    -42.4342627  0.117118E-01  0.659E-01    1.51       1.0  T
   3    -42.4543841 -0.201214E-01  0.188E-01    1.00       1.0  T
   4    -42.4547469 -0.362776E-03  0.127E-01    1.11       1.0  T
   5    -42.4549394 -0.192501E-03  0.620E-02    1.04       1.0  T
   6    -42.4550608 -0.121395E-03  0.983E-03    1.05       2.0  T
   7    -42.4550628 -0.207170E-05  0.503E-03    1.06       4.0  T
   8    -42.4550631 -0.246063E-06  0.257E-03    1.06       7.8  T
   9    -42.4550632 -0.991200E-07  0.623E-04    1.06      32.1  T
  10    -42.4550632 -0.182406E-08  0.325E-04    1.06      61.5  T
     SCC iter.                  ...        0 min,  0.014 sec
     gradient                   ...        0 min,  0.011 sec
 * total energy  :   -41.9900159 Eh     change       -0.1091540E-01 Eh
   gradient norm :     0.1452543 Eh/α   predicted    -0.9784703E-02 ( -10.36%)
   displ. norm   :     0.1699798 α      lambda       -0.8132868E-02
   maximum displ.:     0.1029189 α      in ANC's #1, #15, #22, ...

........................................................................
.............................. CYCLE   18 ..............................
........................................................................

 iter      E             dE          RMSdq      gap      omega  full diag
   1    -42.4546876 -0.424547E+02  0.259E-01    0.94       0.0  T
   2    -42.4540612  0.626405E-03  0.228E-01    1.12       1.0  T
   3    -42.4549890 -0.927827E-03  0.128E-01    0.94       1.0  T
   4    -42.4549069  0.821180E-04  0.116E-01    1.07       1.0  T
   5    -42.4554904 -0.583447E-03  0.260E-02    1.00       1.0  T
   6    -42.4555142 -0.238522E-04  0.555E-03    1.01       3.6  T
   7    -42.4555144 -0.195590E-06  0.269E-03    1.01       7.4  T
   8    -42.4555145 -0.125011E-06  0.100E-03    1.01      20.0  T
   9    -42.4555146 -0.127326E-07  0.489E-04    1.01      40.9  T
  10    -42.4555146 -0.131457E-08  0.161E-04    1.01     124.2  T
     SCC iter.                  ...        0 min,  0.014 sec
     gradient                   ...        0 min,  0.011 sec
 * total energy  :   -41.9967979 Eh     change       -0.6781985E-02 Eh
   gradient norm :     0.1307239 Eh/α   predicted    -0.4184139E-02 ( -38.31%)
   displ. norm   :     0.3116625 α      lambda       -0.1881128E-01
   maximum displ.:     0.1474059 α      in ANC's #1, #15, #41, ...

........................................................................
.............................. CYCLE   19 ..............................
........................................................................

 iter      E             dE          RMSdq      gap      omega  full diag
   1    -42.4562111 -0.424562E+02  0.480E-01    0.66       0.0  T
   2    -42.4451525  0.110586E-01  0.622E-01    1.26       1.0  T
   3    -42.4613045 -0.161520E-01  0.228E-01    0.77       1.0  T
   4    -42.4614576 -0.153120E-03  0.174E-01    0.93       1.0  T
   5    -42.4623074 -0.849791E-03  0.432E-02    0.86       1.0  T
   6    -42.4623579 -0.505321E-04  0.181E-02    0.86       1.1  T
   7    -42.4623640 -0.605764E-05  0.761E-03    0.85       2.6  T
   8    -42.4623655 -0.153336E-05  0.266E-03    0.85       7.5  T
   9    -42.4623656 -0.912928E-07  0.136E-03    0.85      14.7  T
  10    -42.4623656 -0.193287E-07  0.556E-04    0.85      36.0  T
  11    -42.4623656 -0.300835E-08  0.244E-04    0.85      81.8  T
     SCC iter.                  ...        0 min,  0.015 sec
     gradient                   ...        0 min,  0.011 sec
 * total energy  :   -42.0096249 Eh     change       -0.1282695E-01 Eh
   gradient norm :     0.1259068 Eh/α   predicted    -0.1031937E-01 ( -19.55%)
   displ. norm   :     0.1796807 α      lambda       -0.9820632E-02
   maximum displ.:     0.0668327 α      in ANC's #41, #15, #2, ...

........................................................................
.............................. CYCLE   20 ..............................
........................................................................

 iter      E             dE          RMSdq      gap      omega  full diag
   1    -42.4706007 -0.424706E+02  0.292E-01    0.61       0.0  T
   2    -42.4654383  0.516232E-02  0.396E-01    0.98       1.0  T
   3    -42.4726981 -0.725975E-02  0.153E-01    0.66       1.0  T
   4    -42.4731284 -0.430269E-03  0.817E-02    0.75       1.0  T
   5    -42.4732474 -0.119017E-03  0.253E-02    0.73       1.0  T
   6    -42.4732596 -0.122453E-04  0.878E-03    0.72       2.3  T
   7    -42.4732606 -0.100480E-05  0.510E-03    0.72       3.9  T
   8    -42.4732612 -0.594847E-06  0.178E-03    0.72      11.2  T
   9    -42.4732613 -0.801647E-07  0.776E-04    0.72      25.8  T
  10    -42.4732613 -0.459135E-08  0.317E-04    0.72      63.1  T
     SCC iter.                  ...        0 min,  0.014 sec
     gradient                   ...        0 min,  0.011 sec
 * total energy  :   -42.0167618 Eh     change       -0.7136942E-02 Eh
   gradient norm :     0.1310885 Eh/α   predicted    -0.5069371E-02 ( -28.97%)
   displ. norm   :     0.1553675 α      lambda       -0.9820214E-02
   maximum displ.:     0.0521677 α      in ANC's #41, #30, #8, ...
 * RMSD in coord.:     0.8566967 α      energy gain  -0.1123787E+02 Eh

generating ANC from model Hessian ...
Using Lindh-Hessian (1995)
 Shifting diagonal of input Hessian by    9.7732557899341543E-003
 Lowest  eigenvalues of input Hessian
    0.000000    0.000000    0.000000    0.000000    0.000000    0.000000
    0.010000    0.011719    0.012620    0.013806    0.016030    0.019152
    0.019812    0.021404    0.022994    0.026421    0.028310    0.031425
 Highest eigenvalues
    1.848783    1.958556    2.030463    2.105965    2.145441    2.552296


........................................................................
.............................. CYCLE   21 ..............................
........................................................................

 iter      E             dE          RMSdq      gap      omega  full diag
   1    -42.4838387 -0.424838E+02  0.269E-01    0.49       0.0  T
   2    -42.4796887  0.414995E-02  0.344E-01    0.80       1.0  T
   3    -42.4849925 -0.530377E-02  0.159E-01    0.51       1.0  T
   4    -42.4856613 -0.668792E-03  0.684E-02    0.60       1.0  T
   5    -42.4857273 -0.660002E-04  0.210E-02    0.59       1.0  T
   6    -42.4857336 -0.625063E-05  0.832E-03    0.59       2.4  T
   7    -42.4857349 -0.131209E-05  0.486E-03    0.59       4.1  T
   8    -42.4857353 -0.410368E-06  0.170E-03    0.59      11.8  T
   9    -42.4857354 -0.789925E-07  0.667E-04    0.59      30.0  T
  10    -42.4857354 -0.534894E-08  0.247E-04    0.59      80.9  T
     SCC iter.                  ...        0 min,  0.014 sec
     gradient                   ...        0 min,  0.011 sec
 * total energy  :   -42.0241542 Eh     change       -0.7392373E-02 Eh
   gradient norm :     0.1340924 Eh/α   predicted     0.0000000E+00 (-100.00%)
   displ. norm   :     0.4804221 α      lambda       -0.3313922E-01
   maximum displ.:     0.1987334 α      in ANC's #15, #27, #11, ...

........................................................................
.............................. CYCLE   22 ..............................
........................................................................

 iter      E             dE          RMSdq      gap      omega  full diag
   1    -42.5182843 -0.425183E+02  0.553E-01    0.14       0.0  T
   2    -42.4891949  0.290894E-01  0.889E-01    0.88       1.0  T
   3    -42.5246891 -0.354942E-01  0.237E-01    0.25       1.0  T
   4    -42.5252231 -0.534031E-03  0.124E-01    0.36       1.0  T
   5    -42.5256918 -0.468741E-03  0.479E-02    0.32       1.0  T
   6    -42.5257669 -0.750281E-04  0.142E-02    0.33       1.4  T
   7    -42.5257710 -0.410278E-05  0.599E-03    0.32       3.3  T
   8    -42.5257714 -0.438830E-06  0.238E-03    0.32       8.4  T
   9    -42.5257714 -0.472713E-07  0.105E-03    0.32      19.1  T
  10    -42.5257715 -0.704777E-08  0.470E-04    0.32      42.6  T
  11    -42.5257715 -0.171546E-08  0.236E-04    0.32      84.7  T
     SCC iter.                  ...        0 min,  0.015 sec
     gradient                   ...        0 min,  0.011 sec
 * total energy  :   -42.0511895 Eh     change       -0.2703530E-01 Eh
   gradient norm :     0.0932809 Eh/α   predicted    -0.2044295E-01 ( -24.38%)
   displ. norm   :     0.6159740 α      lambda       -0.3056706E-01
   maximum displ.:     0.2438722 α      in ANC's #15, #27, #11, ...

........................................................................
.............................. CYCLE   23 ..............................
........................................................................

 iter      E             dE          RMSdq      gap      omega  full diag
   1    -42.5445806 -0.425446E+02  0.764E-01    0.56       0.0  T
   2    -42.4757082  0.688725E-01  0.134E+00    0.71       1.0  T
   3    -42.5576419 -0.819337E-01  0.321E-01    0.30       1.0  T
   4    -42.5591018 -0.145987E-02  0.138E-01    0.18       1.0  T
   5    -42.5594935 -0.391702E-03  0.426E-02    0.19       1.0  T
   6    -42.5595281 -0.346532E-04  0.225E-02    0.19       1.0  T
   7    -42.5595432 -0.150846E-04  0.809E-03    0.20       2.5  T
   8    -42.5595443 -0.107555E-05  0.303E-03    0.20       6.6  T
   9    -42.5595444 -0.989022E-07  0.120E-03    0.20      16.6  T
  10    -42.5595444 -0.211533E-07  0.515E-04    0.20      38.9  T
  11    -42.5595444 -0.280813E-08  0.252E-04    0.20      79.4  T
     SCC iter.                  ...        0 min,  0.016 sec
     gradient                   ...        0 min,  0.011 sec
 * total energy  :   -42.0740754 Eh     change       -0.2288595E-01 Eh
   gradient norm :     0.0691095 Eh/α   predicted    -0.2108247E-01 (  -7.88%)
   displ. norm   :     0.5753027 α      lambda       -0.1735765E-01
   maximum displ.:     0.2119657 α      in ANC's #15, #8, #11, ...

........................................................................
.............................. CYCLE   24 ..............................
........................................................................

 iter      E             dE          RMSdq      gap      omega  full diag
   1    -42.5661925 -0.425662E+02  0.649E-01    0.82       0.0  T
   2    -42.5167090  0.494835E-01  0.115E+00    0.21       1.0  T
   3    -42.5742613 -0.575524E-01  0.302E-01    0.63       1.0  T
   4    -42.5756590 -0.139762E-02  0.104E-01    0.51       1.0  T
   5    -42.5757845 -0.125576E-03  0.276E-02    0.51       1.0  T
   6    -42.5758009 -0.163526E-04  0.121E-02    0.51       1.6  T
   7    -42.5758030 -0.211526E-05  0.543E-03    0.52       3.7  T
   8    -42.5758036 -0.579137E-06  0.264E-03    0.52       7.6  T
   9    -42.5758037 -0.122411E-06  0.114E-03    0.52      17.6  T
  10    -42.5758037 -0.359049E-07  0.401E-04    0.52      49.9  T
  11    -42.5758037  0.644512E-09  0.263E-04    0.52      76.1  T
     SCC iter.                  ...        0 min,  0.016 sec
     gradient                   ...        0 min,  0.011 sec
 * total energy  :   -42.0868667 Eh     change       -0.1279125E-01 Eh
   gradient norm :     0.0653998 Eh/α   predicted    -0.1155136E-01 (  -9.69%)
   displ. norm   :     0.5012380 α      lambda       -0.1059543E-01
   maximum displ.:     0.2109138 α      in ANC's #8, #11, #15, ...

........................................................................
.............................. CYCLE   25 ..............................
........................................................................

 iter      E             dE          RMSdq      gap      omega  full diag
   1    -42.5838633 -0.425839E+02  0.568E-01    1.05       0.0  T
   2    -42.5363912  0.474721E-01  0.113E+00    0.16       1.0  T
   3    -42.5917949 -0.554037E-01  0.225E-01    0.84       1.0  T
   4    -42.5920421 -0.247163E-03  0.109E-01    0.74       1.0  T
   5    -42.5922620 -0.219976E-03  0.375E-02    0.77       1.0  T
   6    -42.5923066 -0.446095E-04  0.972E-03    0.77       2.1  T
   7    -42.5923082 -0.158339E-05  0.549E-03    0.77       3.6  T
   8    -42.5923088 -0.557353E-06  0.246E-03    0.77       8.1  T
   9    -42.5923089 -0.968445E-07  0.112E-03    0.77      17.8  T
  10    -42.5923089 -0.396943E-07  0.323E-04    0.77      61.9  T
  11    -42.5923089 -0.167947E-08  0.162E-04    0.77     123.7  T
     SCC iter.                  ...        0 min,  0.016 sec
     gradient                   ...        0 min,  0.011 sec
 * total energy  :   -42.0939663 Eh     change       -0.7099612E-02 Eh
   gradient norm :     0.0555919 Eh/α   predicted    -0.6628717E-02 (  -6.63%)
   displ. norm   :     0.4164417 α      lambda       -0.6773216E-02
   maximum displ.:     0.1839857 α      in ANC's #4, #11, #8, ...

........................................................................
.............................. CYCLE   26 ..............................
........................................................................

 iter      E             dE          RMSdq      gap      omega  full diag
   1    -42.5954413 -0.425954E+02  0.349E-01    0.97       0.0  T
   2    -42.5918869  0.355443E-02  0.344E-01    0.70       1.0  T
   3    -42.5933994 -0.151249E-02  0.294E-01    1.04       1.0  T
   4    -42.5960882 -0.268882E-02  0.612E-02    0.88       1.0  T
   5    -42.5961789 -0.906701E-04  0.126E-02    0.89       1.6  T
   6    -42.5961834 -0.449762E-05  0.538E-03    0.89       3.7  T
   7    -42.5961836 -0.240759E-06  0.249E-03    0.89       8.0  T
   8    -42.5961836 -0.679632E-08  0.143E-03    0.89      14.0  T
   9    -42.5961837 -0.552872E-07  0.620E-04    0.89      32.3  T
  10    -42.5961837 -0.412214E-08  0.257E-04    0.89      77.9  T
     SCC iter.                  ...        0 min,  0.014 sec
     gradient                   ...        0 min,  0.011 sec
 * total energy  :   -42.0988575 Eh     change       -0.4891259E-02 Eh
   gradient norm :     0.0555593 Eh/α   predicted    -0.3974002E-02 ( -18.75%)
   displ. norm   :     0.4883806 α      lambda       -0.6955305E-02
   maximum displ.:     0.2870088 α      in ANC's #4, #11, #3, ...

........................................................................
.............................. CYCLE   27 ..............................
........................................................................

 iter      E             dE          RMSdq      gap      omega  full diag
   1    -42.5994094 -0.425994E+02  0.609E-01    1.32       0.0  T
   2    -42.5299146  0.694948E-01  0.138E+00    0.22       1.0  T
   3    -42.6120531 -0.821386E-01  0.208E-01    1.05       1.0  T
   4    -42.6120891 -0.359454E-04  0.156E-01    0.93       1.0  T
   5    -42.6123957 -0.306666E-03  0.823E-02    0.96       1.0  T
   6    -42.6126252 -0.229521E-03  0.219E-02    0.97       1.0  T
   7    -42.6126397 -0.144838E-04  0.692E-03    0.98       2.9  T
   8    -42.6126410 -0.123964E-05  0.298E-03    0.99       6.7  T
   9    -42.6126412 -0.222593E-06  0.117E-03    0.99      17.1  T
  10    -42.6126412 -0.103977E-07  0.517E-04    0.99      38.7  T
  11    -42.6126412 -0.461031E-08  0.234E-04    0.99      85.6  T
     SCC iter.                  ...        0 min,  0.015 sec
     gradient                   ...        0 min,  0.011 sec
 * total energy  :   -42.1012804 Eh     change       -0.2422896E-02 Eh
   gradient norm :     0.0668543 Eh/α   predicted    -0.4307144E-02 (  77.77%)
   displ. norm   :     0.4875075 α      lambda       -0.7592821E-02
   maximum displ.:     0.2593767 α      in ANC's #4, #11, #1, ...

........................................................................
.............................. CYCLE   28 ..............................
........................................................................

 iter      E             dE          RMSdq      gap      omega  full diag
   1    -42.5957823 -0.425958E+02  0.596E-01    0.74       0.0  T
   2    -42.5709698  0.248124E-01  0.910E-01    1.57       1.0  T
   3    -42.6035885 -0.326186E-01  0.271E-01    0.91       1.0  T
   4    -42.6036365 -0.480598E-04  0.171E-01    1.04       1.0  T
   5    -42.6040981 -0.461567E-03  0.761E-02    0.96       1.0  T
   6    -42.6042800 -0.181966E-03  0.117E-02    0.98       1.7  T
   7    -42.6042838 -0.376524E-05  0.473E-03    0.98       4.2  T
   8    -42.6042839 -0.102220E-06  0.275E-03    0.98       7.3  T
   9    -42.6042841 -0.152296E-06  0.810E-04    0.98      24.7  T
  10    -42.6042841 -0.334167E-08  0.415E-04    0.98      48.1  T
     SCC iter.                  ...        0 min,  0.014 sec
     gradient                   ...        0 min,  0.011 sec
 * total energy  :   -42.1053767 Eh     change       -0.4096302E-02 Eh
   gradient norm :     0.0694696 Eh/α   predicted    -0.4698680E-02 (  14.71%)
   displ. norm   :     0.2681334 α      lambda       -0.3286091E-02
   maximum displ.:     0.2084384 α      in ANC's #4, #5, #8, ...

........................................................................
.............................. CYCLE   29 ..............................
........................................................................

 iter      E             dE          RMSdq      gap      omega  full diag
   1    -42.6105594 -0.426106E+02  0.145E-01    1.05       0.0  T
   2    -42.6087005  0.185897E-02  0.239E-01    0.83       1.0  T
   3    -42.6108969 -0.219643E-02  0.661E-02    1.01       1.0  T
   4    -42.6109154 -0.185042E-04  0.284E-02    0.97       1.0  T
   5    -42.6109428 -0.273699E-04  0.592E-03    0.98       3.4  T
   6    -42.6109434 -0.613613E-06  0.247E-03    0.98       8.1  T
   7    -42.6109434 -0.228581E-07  0.110E-03    0.99      18.2  T
   8    -42.6109434 -0.154934E-07  0.590E-04    0.99      33.9  T
   9    -42.6109434 -0.622629E-08  0.245E-04    0.99      81.6  T
     SCC iter.                  ...        0 min,  0.013 sec
     gradient                   ...        0 min,  0.011 sec
 * total energy  :   -42.1080812 Eh     change       -0.2704462E-02 Eh
   gradient norm :     0.0505027 Eh/α   predicted    -0.1761177E-02 ( -34.88%)
   displ. norm   :     0.6797137 α      lambda       -0.7027714E-02
   maximum displ.:     0.4662563 α      in ANC's #4, #5, #14, ...

........................................................................
.............................. CYCLE   30 ..............................
........................................................................

 iter      E             dE          RMSdq      gap      omega  full diag
   1    -42.6112926 -0.426113E+02  0.455E-01    1.29       0.0  T
   2    -42.5889530  0.223397E-01  0.811E-01    0.55       1.0  T
   3    -42.6171412 -0.281882E-01  0.202E-01    1.12       1.0  T
   4    -42.6173512 -0.210067E-03  0.136E-01    1.01       1.0  T
   5    -42.6175628 -0.211530E-03  0.531E-02    1.05       1.0  T
   6    -42.6176525 -0.897803E-04  0.160E-02    1.04       1.3  T
   7    -42.6176601 -0.755252E-05  0.542E-03    1.05       3.7  T
   8    -42.6176606 -0.517747E-06  0.227E-03    1.05       8.8  T
   9    -42.6176607 -0.432919E-07  0.120E-03    1.05      16.6  T
  10    -42.6176607 -0.412677E-07  0.400E-04    1.05      50.0  T
  11    -42.6176607 -0.816129E-09  0.184E-04    1.05     108.6  T
     SCC iter.                  ...        0 min,  0.015 sec
     gradient                   ...        0 min,  0.011 sec
 * total energy  :   -42.1116633 Eh     change       -0.3582098E-02 Eh
   gradient norm :     0.0541671 Eh/α   predicted    -0.5137338E-02 (  43.42%)
   displ. norm   :     0.5617728 α      lambda       -0.6381120E-02
   maximum displ.:     0.4065767 α      in ANC's #4, #5, #11, ...

........................................................................
.............................. CYCLE   31 ..............................
........................................................................

 iter      E             dE          RMSdq      gap      omega  full diag
   1    -42.6184550 -0.426185E+02  0.368E-01    0.86       0.0  T
   2    -42.6097416  0.871348E-02  0.537E-01    1.38       1.0  T
   3    -42.6213430 -0.116014E-01  0.182E-01    0.96       1.0  T
   4    -42.6214413 -0.983677E-04  0.117E-01    1.06       1.0  T
   5    -42.6217005 -0.259190E-03  0.397E-02    1.00       1.0  T
   6    -42.6217482 -0.476674E-04  0.680E-03    1.01       2.9  T
   7    -42.6217490 -0.789587E-06  0.344E-03    1.01       5.8  T
   8    -42.6217490 -0.225278E-08  0.179E-03    1.02      11.2  T
   9    -42.6217491 -0.102516E-06  0.481E-04    1.02      41.6  T
  10    -42.6217491 -0.117672E-08  0.275E-04    1.01      72.7  T
     SCC iter.                  ...        0 min,  0.014 sec
     gradient                   ...        0 min,  0.011 sec
 * total energy  :   -42.1160312 Eh     change       -0.4367898E-02 Eh
   gradient norm :     0.0486796 Eh/α   predicted    -0.4197470E-02 (  -3.90%)
   displ. norm   :     0.4981127 α      lambda       -0.5081715E-02
   maximum displ.:     0.3064999 α      in ANC's #4, #5, #6, ...

........................................................................
.............................. CYCLE   32 ..............................
........................................................................

 iter      E             dE          RMSdq      gap      omega  full diag
   1    -42.6357869 -0.426358E+02  0.319E-01    1.28       0.0  T
   2    -42.6224338  0.133531E-01  0.617E-01    0.66       1.0  T
   3    -42.6386930 -0.162592E-01  0.113E-01    1.12       1.0  T
   4    -42.6387485 -0.555866E-04  0.674E-02    1.06       1.0  T
   5    -42.6388453 -0.967535E-04  0.212E-02    1.07       1.0  T
   6    -42.6388575 -0.121796E-04  0.666E-03    1.08       3.0  T
   7    -42.6388582 -0.711557E-06  0.300E-03    1.08       6.7  T
   8    -42.6388583 -0.126961E-06  0.131E-03    1.08      15.3  T
   9    -42.6388584 -0.448744E-07  0.498E-04    1.08      40.2  T
  10    -42.6388584 -0.196445E-08  0.246E-04    1.08      81.2  T
     SCC iter.                  ...        0 min,  0.014 sec
     gradient                   ...        0 min,  0.011 sec
 * total energy  :   -42.1195232 Eh     change       -0.3492010E-02 Eh
   gradient norm :     0.0383810 Eh/α   predicted    -0.3171296E-02 (  -9.18%)
   displ. norm   :     0.7291936 α      lambda       -0.6907193E-02
   maximum displ.:     0.4308008 α      in ANC's #4, #5, #11, ...

........................................................................
.............................. CYCLE   33 ..............................
........................................................................

 iter      E             dE          RMSdq      gap      omega  full diag
   1    -42.6289237 -0.426289E+02  0.417E-01    1.05       0.0  T
   2    -42.6267566  0.216712E-02  0.373E-01    1.35       1.0  T
   3    -42.6277688 -0.101218E-02  0.288E-01    0.97       1.0  T
   4    -42.6295444 -0.177567E-02  0.140E-01    1.23       1.0  T
   5    -42.6303576 -0.813127E-03  0.295E-02    1.14       1.0  T
   6    -42.6303807 -0.231835E-04  0.890E-03    1.14       2.2  T
   7    -42.6303813 -0.566103E-06  0.481E-03    1.14       4.2  T
   8    -42.6303816 -0.341810E-06  0.209E-03    1.14       9.6  T
   9    -42.6303817 -0.669286E-07  0.953E-04    1.14      21.0  T
  10    -42.6303817 -0.381839E-08  0.392E-04    1.14      51.1  T
     SCC iter.                  ...        0 min,  0.014 sec
     gradient                   ...        0 min,  0.011 sec
 * total energy  :   -42.1238188 Eh     change       -0.4295569E-02 Eh
   gradient norm :     0.0584768 Eh/α   predicted    -0.5289971E-02 (  23.15%)
   displ. norm   :     0.5406190 α      lambda       -0.5118436E-02
   maximum displ.:     0.3092941 α      in ANC's #5, #4, #12, ...

........................................................................
.............................. CYCLE   34 ..............................
........................................................................

 iter      E             dE          RMSdq      gap      omega  full diag
   1    -42.6348720 -0.426349E+02  0.324E-01    1.42       0.0  T
   2    -42.6239672  0.109048E-01  0.559E-01    0.85       1.0  T
   3    -42.6378085 -0.138413E-01  0.133E-01    1.29       1.0  T
   4    -42.6379980 -0.189546E-03  0.823E-02    1.20       1.0  T
   5    -42.6380863 -0.882280E-04  0.313E-02    1.23       1.0  T
   6    -42.6381152 -0.289208E-04  0.728E-03    1.22       2.7  T
   7    -42.6381166 -0.139918E-05  0.283E-03    1.23       7.1  T
   8    -42.6381167 -0.777450E-07  0.118E-03    1.23      16.9  T
   9    -42.6381167 -0.404710E-07  0.452E-04    1.23      44.2  T
  10    -42.6381167 -0.252979E-08  0.222E-04    1.23      90.1  T
     SCC iter.                  ...        0 min,  0.014 sec
     gradient                   ...        0 min,  0.011 sec
 * total energy  :   -42.1276493 Eh     change       -0.3830539E-02 Eh
   gradient norm :     0.0433197 Eh/α   predicted    -0.3307205E-02 ( -13.66%)
   displ. norm   :     0.5935480 α      lambda       -0.5230751E-02
   maximum displ.:     0.3113439 α      in ANC's #4, #5, #6, ...

........................................................................
.............................. CYCLE   35 ..............................
........................................................................

 iter      E             dE          RMSdq      gap      omega  full diag
   1    -42.6482499 -0.426482E+02  0.284E-01    1.46       0.0  T
   2    -42.6423775  0.587246E-02  0.421E-01    1.01       1.0  T
   3    -42.6495182 -0.714069E-02  0.131E-01    1.36       1.0  T
   4    -42.6497055 -0.187392E-03  0.517E-02    1.28       1.0  T
   5    -42.6497850 -0.794411E-04  0.148E-02    1.30       1.4  T
   6    -42.6497908 -0.577035E-05  0.423E-03    1.30       4.7  T
   7    -42.6497908 -0.682457E-07  0.210E-03    1.30       9.5  T
   8    -42.6497909 -0.687557E-07  0.960E-04    1.30      20.8  T
   9    -42.6497909 -0.137628E-07  0.360E-04    1.30      55.5  T
     SCC iter.                  ...        0 min,  0.013 sec
     gradient                   ...        0 min,  0.011 sec
 * total energy  :   -42.1316806 Eh     change       -0.4031254E-02 Eh
   gradient norm :     0.0232852 Eh/α   predicted    -0.3536771E-02 ( -12.27%)
   displ. norm   :     0.7786297 α      lambda       -0.4612799E-02
   maximum displ.:     0.4470863 α      in ANC's #4, #5, #6, ...

........................................................................
.............................. CYCLE   36 ..............................
........................................................................

 iter      E             dE          RMSdq      gap      omega  full diag
   1    -42.6450188 -0.426450E+02  0.322E-01    1.42       0.0  T
   2    -42.6448546  0.164144E-03  0.214E-01    1.33       1.0  T
   3    -42.6431737  0.168093E-02  0.230E-01    1.55       1.0  T
   4    -42.6448425 -0.166886E-02  0.985E-02    1.33       1.0  T
   5    -42.6452498 -0.407294E-03  0.142E-02    1.39       1.4  T
   6    -42.6452569 -0.701313E-05  0.515E-03    1.38       3.9  T
   7    -42.6452569 -0.722867E-07  0.279E-03    1.38       7.2  T
   8    -42.6452571 -0.159356E-06  0.814E-04    1.39      24.6  T
   9    -42.6452571 -0.745747E-08  0.381E-04    1.39      52.5  T
     SCC iter.                  ...        0 min,  0.013 sec
     gradient                   ...        0 min,  0.011 sec
 * total energy  :   -42.1349559 Eh     change       -0.3275322E-02 Eh
   gradient norm :     0.0369857 Eh/α   predicted    -0.3704698E-02 (  13.11%)
   displ. norm   :     0.5467910 α      lambda       -0.4450491E-02
   maximum displ.:     0.1796376 α      in ANC's #1, #5, #6, ...

........................................................................
.............................. CYCLE   37 ..............................
........................................................................

 iter      E             dE          RMSdq      gap      omega  full diag
   1    -42.6652655 -0.426653E+02  0.353E-01    1.58       0.0  T
   2    -42.6618081  0.345732E-02  0.356E-01    1.23       1.0  T
   3    -42.6650589 -0.325077E-02  0.240E-01    1.61       1.0  T
   4    -42.6663905 -0.133161E-02  0.816E-02    1.44       1.0  T
   5    -42.6665917 -0.201231E-03  0.257E-02    1.47       1.0  T
   6    -42.6666102 -0.184829E-04  0.626E-03    1.46       3.2  T
   7    -42.6666103 -0.645701E-07  0.299E-03    1.46       6.7  T
   8    -42.6666104 -0.122417E-06  0.121E-03    1.46      16.6  T
   9    -42.6666104 -0.213627E-07  0.487E-04    1.46      41.0  T
  10    -42.6666104 -0.268831E-08  0.206E-04    1.46      97.3  T
     SCC iter.                  ...        0 min,  0.014 sec
     gradient                   ...        0 min,  0.011 sec
 * total energy  :   -42.1350195 Eh     change       -0.6362953E-04 Eh
   gradient norm :     0.0494196 Eh/α   predicted    -0.2890553E-02 (4442.79%)
   displ. norm   :     0.4337711 α      lambda       -0.6146676E-02
   maximum displ.:     0.3113880 α      in ANC's #4, #5, #12, ...

........................................................................
.............................. CYCLE   38 ..............................
........................................................................

 iter      E             dE          RMSdq      gap      omega  full diag
   1    -42.6571828 -0.426572E+02  0.237E-01    1.69       0.0  T
   2    -42.6514059  0.577687E-02  0.435E-01    1.22       1.0  T
   3    -42.6588186 -0.741274E-02  0.104E-01    1.51       1.0  T
   4    -42.6587386  0.800403E-04  0.546E-02    1.50       1.0  T
   5    -42.6588316 -0.930438E-04  0.148E-02    1.52       1.4  T
   6    -42.6588364 -0.474040E-05  0.537E-03    1.52       3.7  T
   7    -42.6588367 -0.301750E-06  0.270E-03    1.52       7.4  T
   8    -42.6588368 -0.137256E-06  0.101E-03    1.52      19.8  T
   9    -42.6588368 -0.100352E-07  0.439E-04    1.52      45.5  T
  10    -42.6588368 -0.371112E-08  0.158E-04    1.52     126.4  T
     SCC iter.                  ...        0 min,  0.014 sec
     gradient                   ...        0 min,  0.011 sec
 * total energy  :   -42.1379482 Eh     change       -0.2928714E-02 Eh
   gradient norm :     0.0255317 Eh/α   predicted    -0.3651616E-02 (  24.68%)
   displ. norm   :     0.4133916 α      lambda       -0.2245595E-02
   maximum displ.:     0.1918628 α      in ANC's #4, #5, #6, ...

........................................................................
.............................. CYCLE   39 ..............................
........................................................................

 iter      E             dE          RMSdq      gap      omega  full diag
   1    -42.6501072 -0.426501E+02  0.260E-01    1.36       0.0  T
   2    -42.6445248  0.558241E-02  0.441E-01    1.84       1.0  T
   3    -42.6521912 -0.766641E-02  0.104E-01    1.52       1.0  T
   4    -42.6521023  0.888981E-04  0.668E-02    1.54       1.0  T
   5    -42.6522115 -0.109250E-03  0.161E-02    1.50       1.2  T
   6    -42.6522203 -0.872678E-05  0.435E-03    1.51       4.6  T
   7    -42.6522205 -0.229575E-06  0.241E-03    1.51       8.3  T
   8    -42.6522206 -0.738409E-07  0.111E-03    1.51      18.1  T
   9    -42.6522206 -0.285243E-07  0.379E-04    1.51      52.8  T
  10    -42.6522206 -0.127687E-08  0.205E-04    1.51      97.4  T
     SCC iter.                  ...        0 min,  0.014 sec
     gradient                   ...        0 min,  0.011 sec
 * total energy  :   -42.1385245 Eh     change       -0.5762830E-03 Eh
   gradient norm :     0.0449390 Eh/α   predicted    -0.1314676E-02 ( 128.13%)
   displ. norm   :     0.2077022 α      lambda       -0.1678632E-02
   maximum displ.:     0.1242592 α      in ANC's #4, #3, #2, ...

........................................................................
.............................. CYCLE   40 ..............................
........................................................................

 iter      E             dE          RMSdq      gap      omega  full diag
   1    -42.6577185 -0.426577E+02  0.186E-01    1.69       0.0  T
   2    -42.6528908  0.482777E-02  0.380E-01    1.26       1.0  T
   3    -42.6591564 -0.626563E-02  0.505E-02    1.54       1.0  T
   4    -42.6591322  0.241854E-04  0.393E-02    1.53       1.0  T
   5    -42.6591632 -0.309722E-04  0.125E-02    1.54       1.6  T
   6    -42.6591676 -0.437506E-05  0.320E-03    1.54       6.2  T
   7    -42.6591678 -0.242387E-06  0.125E-03    1.54      16.0  T
   8    -42.6591678 -0.662208E-08  0.643E-04    1.55      31.1  T
   9    -42.6591678 -0.101123E-07  0.243E-04    1.54      82.2  T
     SCC iter.                  ...        0 min,  0.013 sec
     gradient                   ...        0 min,  0.011 sec
 * total energy  :   -42.1396254 Eh     change       -0.1100884E-02 Eh
   gradient norm :     0.0173367 Eh/α   predicted    -0.8755285E-03 ( -20.47%)
   displ. norm   :     0.3201012 α      lambda       -0.1461639E-02
   maximum displ.:     0.1169606 α      in ANC's #1, #6, #5, ...

........................................................................
.............................. CYCLE   41 ..............................
........................................................................

 iter      E             dE          RMSdq      gap      omega  full diag
   1    -42.6688211 -0.426688E+02  0.161E-01    1.63       0.0  T
   2    -42.6679695  0.851636E-03  0.178E-01    1.45       1.0  T
   3    -42.6689856 -0.101616E-02  0.929E-02    1.62       1.0  T
   4    -42.6691142 -0.128551E-03  0.434E-02    1.55       1.0  T
   5    -42.6691782 -0.640253E-04  0.948E-03    1.57       2.1  T
   6    -42.6691804 -0.222342E-05  0.258E-03    1.57       7.7  T
   7    -42.6691805 -0.567932E-07  0.132E-03    1.57      15.1  T
   8    -42.6691805 -0.113527E-07  0.417E-04    1.57      48.0  T
   9    -42.6691805 -0.158012E-08  0.157E-04    1.57     127.4  T
     SCC iter.                  ...        0 min,  0.013 sec
     gradient                   ...        0 min,  0.011 sec
 * total energy  :   -42.1402817 Eh     change       -0.6562618E-03 Eh
   gradient norm :     0.0157332 Eh/α   predicted    -0.8057080E-03 (  22.77%)
   displ. norm   :     0.4435251 α      lambda       -0.1192593E-02
   maximum displ.:     0.2747101 α      in ANC's #4, #1, #6, ...

........................................................................
.............................. CYCLE   42 ..............................
........................................................................

 iter      E             dE          RMSdq      gap      omega  full diag
   1    -42.6672823 -0.426673E+02  0.170E-01    1.65       0.0  T
   2    -42.6667747  0.507613E-03  0.152E-01    1.50       1.0  T
   3    -42.6670587 -0.284010E-03  0.118E-01    1.67       1.0  T
   4    -42.6674542 -0.395479E-03  0.210E-02    1.60       1.0  T
   5    -42.6674669 -0.126962E-04  0.712E-03    1.60       2.8  T
   6    -42.6674682 -0.128320E-05  0.244E-03    1.60       8.2  T
   7    -42.6674682 -0.968675E-08  0.124E-03    1.60      16.1  T
   8    -42.6674682 -0.234492E-07  0.361E-04    1.60      55.4  T
   9    -42.6674682 -0.156754E-08  0.171E-04    1.60     117.2  T
     SCC iter.                  ...        0 min,  0.013 sec
     gradient                   ...        0 min,  0.011 sec
 * total energy  :   -42.1409235 Eh     change       -0.6418042E-03 Eh
   gradient norm :     0.0174281 Eh/α   predicted    -0.7136067E-03 (  11.19%)
   displ. norm   :     0.3705369 α      lambda       -0.8389699E-03
   maximum displ.:     0.1585436 α      in ANC's #4, #6, #5, ...
 * RMSD in coord.:     1.6284675 α      energy gain  -0.1241617E+00 Eh

generating ANC from model Hessian ...
Using Lindh-Hessian (1995)
 Shifting diagonal of input Hessian by    9.0416805549411033E-003
 Lowest  eigenvalues of input Hessian
    0.000000    0.000000    0.000000    0.000000    0.000000    0.000000
    0.010000    0.010638    0.011423    0.012339    0.013584    0.015301
    0.018544    0.021067    0.023645    0.024880    0.027972    0.029805
 Highest eigenvalues
    2.038607    2.121375    2.204052    2.247916    2.680797    2.831214


........................................................................
.............................. CYCLE   43 ..............................
........................................................................

 iter      E             dE          RMSdq      gap      omega  full diag
   1    -42.6650111 -0.426650E+02  0.149E-01    1.52       0.0  T
   2    -42.6644580  0.553094E-03  0.164E-01    1.67       1.0  T
   3    -42.6651584 -0.700442E-03  0.775E-02    1.54       1.0  T
   4    -42.6651991 -0.406689E-04  0.418E-02    1.59       1.0  T
   5    -42.6652512 -0.520892E-04  0.770E-03    1.57       2.6  T
   6    -42.6652529 -0.168541E-05  0.264E-03    1.57       7.6  T
   7    -42.6652529 -0.489422E-07  0.142E-03    1.57      14.1  T
   8    -42.6652530 -0.178853E-07  0.428E-04    1.57      46.7  T
   9    -42.6652530 -0.197490E-08  0.204E-04    1.57      97.8  T
     SCC iter.                  ...        0 min,  0.013 sec
     gradient                   ...        0 min,  0.011 sec
 * total energy  :   -42.1411014 Eh     change       -0.1779560E-03 Eh
   gradient norm :     0.0170964 Eh/α   predicted     0.0000000E+00 (-100.00%)
   displ. norm   :     0.1112284 α      lambda       -0.6956935E-03
   maximum displ.:     0.0501614 α      in ANC's #1, #6, #4, ...

........................................................................
.............................. CYCLE   44 ..............................
........................................................................

 iter      E             dE          RMSdq      gap      omega  full diag
   1    -42.6702291 -0.426702E+02  0.727E-02    1.62       0.0  T
   2    -42.6699910  0.238070E-03  0.951E-02    1.52       1.0  T
   3    -42.6703061 -0.315122E-03  0.340E-02    1.60       1.0  T
   4    -42.6703079 -0.179477E-05  0.179E-02    1.58       1.1  T
   5    -42.6703170 -0.910592E-05  0.445E-03    1.59       4.5  T
   6    -42.6703175 -0.517326E-06  0.129E-03    1.59      15.5  T
   7    -42.6703175 -0.452938E-08  0.709E-04    1.59      28.2  T
   8    -42.6703175 -0.516673E-08  0.275E-04    1.59      72.6  T
     SCC iter.                  ...        0 min,  0.011 sec
     gradient                   ...        0 min,  0.011 sec
 * total energy  :   -42.1415789 Eh     change       -0.4774940E-03 Eh
   gradient norm :     0.0049555 Eh/α   predicted    -0.3521552E-03 ( -26.25%)
   displ. norm   :     0.1632409 α      lambda       -0.3099311E-03
   maximum displ.:     0.0834755 α      in ANC's #4, #1, #6, ...

........................................................................
.............................. CYCLE   45 ..............................
........................................................................

 iter      E             dE          RMSdq      gap      omega  full diag
   1    -42.6725134 -0.426725E+02  0.651E-02    1.61       0.0  T
   2    -42.6724666  0.467324E-04  0.539E-02    1.57       1.0  T
   3    -42.6724598  0.688117E-05  0.464E-02    1.63       1.0  T
   4    -42.6725295 -0.697318E-04  0.937E-03    1.59       2.1  T
   5    -42.6725318 -0.231516E-05  0.243E-03    1.60       8.2  T
   6    -42.6725319 -0.107735E-06  0.116E-03    1.59      17.3  T
   7    -42.6725319 -0.100574E-07  0.513E-04    1.59      38.9  T
   8    -42.6725319 -0.459958E-08  0.173E-04    1.59     115.3  T
     SCC iter.                  ...        0 min,  0.011 sec
     gradient                   ...        0 min,  0.011 sec
 * total energy  :   -42.1418029 Eh     change       -0.2240260E-03 Eh
   gradient norm :     0.0046487 Eh/α   predicted    -0.1591172E-03 ( -28.97%)
   displ. norm   :     0.2606344 α      lambda       -0.3036441E-03
   maximum displ.:     0.1330162 α      in ANC's #1, #4, #6, ...

........................................................................
.............................. CYCLE   46 ..............................
........................................................................

 iter      E             dE          RMSdq      gap      omega  full diag
   1    -42.6725524 -0.426726E+02  0.950E-02    1.60       0.0  T
   2    -42.6725489  0.344174E-05  0.566E-02    1.59       1.0  T
   3    -42.6723999  0.149075E-03  0.621E-02    1.65       1.0  T
   4    -42.6725521 -0.152240E-03  0.158E-02    1.59       1.3  T
   5    -42.6725610 -0.884922E-05  0.261E-03    1.60       7.7  T
   6    -42.6725609  0.113532E-07  0.163E-03    1.60      12.3  T
   7    -42.6725610 -0.570660E-07  0.513E-04    1.60      39.0  T
   8    -42.6725610 -0.440619E-08  0.240E-04    1.60      83.4  T
     SCC iter.                  ...        0 min,  0.011 sec
     gradient                   ...        0 min,  0.011 sec
 * total energy  :   -42.1420410 Eh     change       -0.2380294E-03 Eh
   gradient norm :     0.0080810 Eh/α   predicted    -0.1621726E-03 ( -31.87%)
   displ. norm   :     0.4628610 α      lambda       -0.4490605E-03
   maximum displ.:     0.2501405 α      in ANC's #4, #1, #6, ...

........................................................................
.............................. CYCLE   47 ..............................
........................................................................

 iter      E             dE          RMSdq      gap      omega  full diag
   1    -42.6696334 -0.426696E+02  0.143E-01    1.62       0.0  T
   2    -42.6695855  0.478711E-04  0.931E-02    1.57       1.0  T
   3    -42.6691962  0.389281E-03  0.111E-01    1.69       1.0  T
   4    -42.6696457 -0.449441E-03  0.300E-02    1.59       1.0  T
   5    -42.6696758 -0.301131E-04  0.461E-03    1.61       4.3  T
   6    -42.6696759 -0.634389E-07  0.293E-03    1.60       6.8  T
   7    -42.6696760 -0.126158E-06  0.114E-03    1.60      17.5  T
   8    -42.6696760 -0.216459E-07  0.459E-04    1.60      43.5  T
   9    -42.6696760 -0.236413E-08  0.256E-04    1.60      78.2  T
     SCC iter.                  ...        0 min,  0.013 sec
     gradient                   ...        0 min,  0.011 sec
 * total energy  :   -42.1423207 Eh     change       -0.2797746E-03 Eh
   gradient norm :     0.0120014 Eh/α   predicted    -0.2726348E-03 (  -2.55%)
   displ. norm   :     0.2240395 α      lambda       -0.2706584E-03
   maximum displ.:     0.1276843 α      in ANC's #1, #4, #6, ...

........................................................................
.............................. CYCLE   48 ..............................
........................................................................

 iter      E             dE          RMSdq      gap      omega  full diag
   1    -42.6696150 -0.426696E+02  0.891E-02    1.58       0.0  T
   2    -42.6695688  0.462753E-04  0.692E-02    1.62       1.0  T
   3    -42.6695495  0.192636E-04  0.578E-02    1.56       1.0  T
   4    -42.6696234 -0.738767E-04  0.312E-02    1.61       1.0  T
   5    -42.6696573 -0.339654E-04  0.413E-03    1.59       4.8  T
   6    -42.6696577 -0.382676E-06  0.175E-03    1.60      11.4  T
   7    -42.6696577 -0.247086E-07  0.864E-04    1.59      23.1  T
   8    -42.6696578 -0.112509E-07  0.245E-04    1.59      81.7  T
     SCC iter.                  ...        0 min,  0.012 sec
     gradient                   ...        0 min,  0.011 sec
 * total energy  :   -42.1425151 Eh     change       -0.1943437E-03 Eh
   gradient norm :     0.0088101 Eh/α   predicted    -0.1421480E-03 ( -26.86%)
   displ. norm   :     0.2073882 α      lambda       -0.3020645E-03
   maximum displ.:     0.1219126 α      in ANC's #4, #1, #3, ...

........................................................................
.............................. CYCLE   49 ..............................
........................................................................

 iter      E             dE          RMSdq      gap      omega  full diag
   1    -42.6739573 -0.426740E+02  0.722E-02    1.60       0.0  T
   2    -42.6739395  0.177952E-04  0.494E-02    1.56       1.0  T
   3    -42.6739054  0.341324E-04  0.498E-02    1.62       1.0  T
   4    -42.6739589 -0.535242E-04  0.235E-02    1.57       1.0  T
   5    -42.6739816 -0.226973E-04  0.329E-03    1.59       6.1  T
   6    -42.6739818 -0.167072E-06  0.152E-03    1.59      13.2  T
   7    -42.6739818 -0.173213E-07  0.885E-04    1.59      22.6  T
   8    -42.6739818 -0.124435E-07  0.320E-04    1.59      62.4  T
     SCC iter.                  ...        0 min,  0.011 sec
[...]
H            2.17237547532333        1.97333499267133        1.08159636345460
H            3.66397291114434        1.12932392760874        0.57882110745259
H            2.61040546317666        1.91410971482406       -0.62189712147355
H            3.42548518130377       -1.36718730891002        0.23200995724975
H           -0.55997296381195        4.32874130277626        0.14332363321378
H           -1.82755186011688        3.32437317857608       -0.61784344032268
H           -1.67768628068729        3.37338846488645        1.14141956658055
H           -0.91253914309086       -3.77074806733802        0.52915897296827
H           -0.73694557396799       -3.66058055133772       -1.24651930160408
H           -2.32292057933404       -3.42675203130722       -0.48895435013362
H            1.49058544054095       -2.99783489357940       -0.07877358636416

 Bond Distances (Angstroems)
 ---------------------------
C1-N2=1.4337         C1-H15=1.0897        C1-H16=1.0874        C1-H17=1.0913        N2-C1=1.4337         N2-C3=1.3368         
N2-C6=1.3771         C3-N2=1.3368         C3-N4=1.3561         C3-H18=1.0704        N4-C3=1.3561         N4-C5=1.3644         
N4-H25=1.0090        C5-N4=1.3644         C5-C6=1.3979         C5-N13=1.3638        C6-N2=1.3771         C6-C5=1.3979         
C6-C7=1.4326         C7-C6=1.4326         C7-O8=1.4515         C7-N9=1.3067         O8-C7=1.4515         O8-C11=1.4593        
N9-C7=1.3067         N9-C10=1.4180        C10-N9=1.4180        C10-H19=1.0900       C10-H20=1.0947       C10-H21=1.0950       
C11-O8=1.4593        C11-O12=1.1779       C11-N13=1.3848       O12-C11=1.1779       N13-C5=1.3638        N13-C11=1.3848       
N13-C14=1.4497       C14-N13=1.4497       C14-H22=1.0903       C14-H23=1.0908       C14-H24=1.0892       H15-C1=1.0897        
H16-C1=1.0874        H17-C1=1.0913        H18-C3=1.0704        H19-C10=1.0900       H20-C10=1.0947       H21-C10=1.0950       
H22-C14=1.0903       H23-C14=1.0908       H24-C14=1.0892       H25-N4=1.0090        
 C  H  Rav=1.0889 sigma=0.0066  Rmin=1.0704  Rmax=1.0950    10
 C  C  Rav=1.4153 sigma=0.0174  Rmin=1.3979  Rmax=1.4326     2
 N  H  Rav=1.0090 sigma=0.0000  Rmin=1.0090  Rmax=1.0090     1
 N  C  Rav=1.3791 sigma=0.0419  Rmin=1.3067  Rmax=1.4497    10
 O  C  Rav=1.3629 sigma=0.1309  Rmin=1.1779  Rmax=1.4593     3

 selected bond angles (degree)
 --------------------
H15-C1-N2=109.53               H16-C1-N2=109.79               H16-C1-H15=110.24              H17-C1-N2=110.10               
H17-C1-H15=107.59              H17-C1-H16=109.55              C3-N2-C1=126.77                C6-N2-C1=124.98                
C6-N2-C3=108.23                N4-C3-N2=109.48                H18-C3-N2=125.73               H18-C3-N4=124.78               
C5-N4-C3=108.31                H25-N4-C3=125.23               H25-N4-C5=126.46               C6-C5-N4=106.97                
N13-C5-N4=126.60               N13-C5-C6=126.43               C5-C6-N2=107.01                C7-C6-N2=130.75                
C7-C6-C5=122.22                O8-C7-C6=107.14                N9-C7-C6=121.30                N9-C7-O8=131.56                
C11-O8-C7=132.45               C10-N9-C7=123.95               H19-C10-N9=107.67              H20-C10-N9=112.25              
H20-C10-H19=109.80             H21-C10-N9=110.70              H21-C10-H19=108.84             H21-C10-H20=107.54             

 selected dihedral angles (degree)
 ---------------------------------
C3-N2-C1-H15=228.16           C3-N2-C1-H16=349.35           C3-N2-C1-H17=110.04           C6-N2-C1-H15= 49.42           
C6-N2-C1-H16=170.61           C6-N2-C1-H17=291.30           N4-C3-N2-C1=180.97            N4-C3-N2-C6=359.88            
H18-C3-N2-C1=  1.17           H18-C3-N2-C6=180.08           C5-N4-C3-N2=  0.13            C5-N4-C3-H18=179.93           
H25-N4-C3-N2=180.04           H25-N4-C3-H18=359.84          C6-C5-N4-C3=359.91            C6-C5-N4-H25=180.00           
N13-C5-N4-C3=179.97           N13-C5-N4-H25=  0.06          C5-C6-N2-C1=179.00            C5-C6-N2-C3=  0.06            
C7-C6-N2-C1=357.12            C7-C6-N2-C3=178.18            N2-C6-C5-N4=  0.00            N2-C6-C5-N13=179.96           
C7-C6-C5-N4=181.70            C7-C6-C5-N13=  1.65           O8-C7-C6-N2=180.55            O8-C7-C6-C5=358.42            
N9-C7-C6-N2=  0.54            N9-C7-C6-C5=178.41            C11-O8-C7-C6=  0.50           C11-O8-C7-N9=180.51           
C10-N9-C7-C6=180.96           C10-N9-C7-O8=  0.95           H19-C10-N9-C7=190.90          H20-C10-N9-C7=311.86          
H21-C10-N9-C7= 72.03          
           -------------------------------------------------
          |                Final Singlepoint                |
           -------------------------------------------------

          ...................................................
          :                      SETUP                      :
          :.................................................:
          :  # basis functions                  67          :
          :  # atomic orbitals                  67          :
          :  # shells                           39          :
          :  # electrons                        74          :
          :  max. iterations                   250          :
          :  Hamiltonian                  GFN2-xTB          :
          :  restarted?                      false          :
          :  GBSA solvation                  false          :
          :  PC potential                    false          :
          :  electronic temp.         7500.0000000     K    :
          :  accuracy                    1.0000000          :
          :  -> integral cutoff          0.2500000E+02      :
          :  -> integral neglect         0.1000000E-07      :
          :  -> SCF convergence          0.1000000E-05 Eh   :
          :  -> wf. convergence          0.1000000E-03 e    :
          :  Broyden damping             0.4000000          :
          ...................................................

 iter      E             dE          RMSdq      gap      omega  full diag
   1    -42.7244847 -0.427245E+02  0.200E-04    2.91       0.0  T
   2    -42.7244847 -0.227999E-09  0.145E-04    2.91     138.1  T
   3    -42.7244847 -0.318870E-09  0.830E-05    2.91     240.9  T

   *** convergence criteria satisfied after 3 iterations ***

         #    Occupation            Energy/Eh            Energy/eV
      -------------------------------------------------------------
         1        2.0000           -0.9031171             -24.5751
       ...           ...                  ...                  ...
        31        1.9954           -0.6199160             -16.8688
        32        1.9937           -0.6123469             -16.6628
        33        1.9909           -0.6037723             -16.4295
        34        1.9835           -0.5894882             -16.0408
        35        1.9674           -0.5731412             -15.5960
        36        1.8619           -0.5375521             -14.6275
        37        1.8505           -0.5355266             -14.5724 (HOMO)
        38        0.2397           -0.4284226             -11.6580 (LUMO)
        39        0.1063           -0.4073704             -11.0851
        40        0.0243           -0.3713413             -10.1047
        41        0.0012           -0.2996562              -8.1541
        42        0.0002           -0.2505001              -6.8165
       ...           ...                  ...                  ...
        67                          0.5818214              15.8322
      -------------------------------------------------------------
                  HL-Gap            0.1071040 Eh            2.9144 eV
             Fermi-level           -0.4757737 Eh          -12.9465 eV

 SCC (total)                   0 d,  0 h,  0 min,  0.021 sec
 SCC setup                      ...        0 min,  0.000 sec (  0.913%)
 Dispersion                     ...        0 min,  0.000 sec (  0.882%)
 classical contributions        ...        0 min,  0.000 sec (  0.322%)
 integral evaluation            ...        0 min,  0.004 sec ( 20.754%)
 iterations                     ...        0 min,  0.005 sec ( 22.452%)
 molecular gradient             ...        0 min,  0.011 sec ( 54.088%)
 printout                       ...        0 min,  0.000 sec (  0.529%)

         :::::::::::::::::::::::::::::::::::::::::::::::::::::
         ::                     SUMMARY                     ::
         :::::::::::::::::::::::::::::::::::::::::::::::::::::
         :: total energy             -42.218411136541 Eh    ::
         :: gradient norm              0.002112789063 Eh/a0 ::
         :: HOMO-LUMO gap              2.914447097282 eV    ::
         ::.................................................::
         :: SCC energy               -42.724484683180 Eh    ::
         :: -> isotropic ES            0.130991999675 Eh    ::
         :: -> anisotropic ES         -0.007595894951 Eh    ::
         :: -> anisotropic XC          0.015377134588 Eh    ::
         :: -> dispersion             -0.021719694178 Eh    ::
         :: repulsion energy           0.504400908164 Eh    ::
         :: add. restraining           0.001588418392 Eh    ::
         :: total charge               1.000000000000 e     ::
         :::::::::::::::::::::::::::::::::::::::::::::::::::::

           -------------------------------------------------
          |                Property Printout                |
           -------------------------------------------------

    * Orbital Energies and Occupations

         #    Occupation            Energy/Eh            Energy/eV
      -------------------------------------------------------------
         1        2.0000           -0.9031171             -24.5751
       ...           ...                  ...                  ...
        25        1.9993           -0.6650750             -18.0976
        26        1.9990           -0.6566514             -17.8684
        27        1.9982           -0.6420717             -17.4717
        28        1.9977           -0.6370131             -17.3340
        29        1.9967           -0.6277480             -17.0819
        30        1.9962           -0.6244218             -16.9914
        31        1.9954           -0.6199160             -16.8688
        32        1.9937           -0.6123469             -16.6628
        33        1.9909           -0.6037723             -16.4295
        34        1.9835           -0.5894882             -16.0408
        35        1.9674           -0.5731412             -15.5960
        36        1.8619           -0.5375521             -14.6275
        37        1.8505           -0.5355266             -14.5724 (HOMO)
        38        0.2397           -0.4284226             -11.6580 (LUMO)
        39        0.1063           -0.4073704             -11.0851
        40        0.0243           -0.3713413             -10.1047
        41        0.0012           -0.2996562              -8.1541
        42        0.0002           -0.2505001              -6.8165
        43        0.0000           -0.1911178              -5.2006
        44        0.0000           -0.1763231              -4.7980
        45        0.0000           -0.1455215              -3.9598
        46                         -0.0764829              -2.0812
        47                         -0.0684935              -1.8638
        48                         -0.0430234              -1.1707
       ...                                ...                  ...
        67                          0.5818214              15.8322
      -------------------------------------------------------------
                  HL-Gap            0.1071040 Eh            2.9144 eV
             Fermi-level           -0.4757737 Eh          -12.9465 eV

     #   Z          covCN         q      C6AA      α(0)
     1   6 C        3.692    -0.093    22.463     6.782
     2   7 N        2.826     0.067    20.074     6.654
     3   6 C        3.031     0.040    27.066     8.533
     4   7 N        2.786    -0.065    22.496     7.044
     5   6 C        3.027     0.112    25.514     8.285
     6   6 C        3.091     0.003    27.849     8.650
     7   6 C        2.756     0.212    23.503     7.939
     8   8 O        1.691    -0.307    19.114     5.903
     9   7 N        1.826    -0.188    25.893     7.540
    10   6 C        3.696    -0.036    21.395     6.616
    11   6 C        2.642     0.398    20.278     7.367
    12   8 O        0.857    -0.288    19.558     5.929
    13   7 N        2.731    -0.054    22.287     7.011
    14   6 C        3.698    -0.072    22.054     6.717
    15   1 H        0.925     0.122     1.596     1.976
    16   1 H        0.925     0.105     1.741     2.063
    17   1 H        0.924     0.116     1.650     2.008
    18   1 H        0.926     0.119     1.618     1.989
    19   1 H        0.925     0.096     1.826     2.113
    20   1 H        0.924     0.092     1.862     2.134
    21   1 H        0.924     0.097     1.816     2.107
    22   1 H        0.924     0.087     1.907     2.159
    23   1 H        0.924     0.087     1.904     2.158
    24   1 H        0.925     0.122     1.594     1.974
    25   1 H        0.860     0.227     0.979     1.550

 Mol. C6AA /au·bohr⁶  :       6530.961786
 Mol. C8AA /au·bohr⁸  :     149754.654230
 Mol. α(0) /au        :        123.204274


Wiberg/Mayer (AO) data.
largest (>0.10) Wiberg bond orders for each atom

 ---------------------------------------------------------------------------
     #   Z sym  total        # sym  WBO       # sym  WBO       # sym  WBO
 ---------------------------------------------------------------------------
     1   6 C    3.918 --     2 N    0.994    16 H    0.972    15 H    0.954
                            17 H    0.952
     2   7 N    3.613 --     3 C    1.337     6 C    1.149     1 C    0.994
     3   6 C    3.742 --     2 N    1.337     4 N    1.251    18 H    0.954
     4   7 N    3.546 --     3 C    1.251     5 C    1.191    25 H    0.920
     5   6 C    3.859 --     6 C    1.326     4 N    1.191    13 N    1.160
     6   6 C    3.866 --     5 C    1.326     2 N    1.149     7 C    1.141
     7   6 C    3.833 --     9 N    1.622     6 C    1.141     8 O    0.951
     8   8 O    2.221 --     7 C    0.951    11 C    0.942    12 O    0.134
                             9 N    0.101
     9   7 N    2.904 --     7 C    1.622    10 C    1.055     8 O    0.101
    10   6 C    3.901 --     9 N    1.055    19 H    0.954    20 H    0.932
                            21 H    0.924
    11   6 C    3.905 --    12 O    1.800    13 N    1.090     8 O    0.942
    12   8 O    2.139 --    11 C    1.800     8 O    0.134    13 N    0.128
    13   7 N    3.508 --     5 C    1.160    11 C    1.090    14 C    0.973
                            12 O    0.128
    14   6 C    3.919 --    13 N    0.973    22 H    0.968    23 H    0.968
                            24 H    0.966
    15   1 H    0.979 --     1 C    0.954
    16   1 H    0.986 --     1 C    0.972
    17   1 H    0.978 --     1 C    0.952
    18   1 H    0.985 --     3 C    0.954
    19   1 H    0.967 --    10 C    0.954
    20   1 H    0.953 --    10 C    0.932
    21   1 H    0.954 --    10 C    0.924
    22   1 H    0.985 --    14 C    0.968
    23   1 H    0.985 --    14 C    0.968
    24   1 H    0.983 --    14 C    0.966
    25   1 H    0.948 --     4 N    0.920
 ---------------------------------------------------------------------------

Topologies differ in total number of bonds
Writing topology from bond orders to xtbtopo.mol

molecular dipole:
                 x           y           z       tot (Debye)
 q only:        2.920      -1.164       0.220
   full:        2.951      -1.560       0.197       8.499
molecular quadrupole (traceless):
                xx          xy          yy          xz          yz          zz
 q only:       -4.109      -3.039      23.622       0.793       3.274     -19.513
  q+dip:       -6.240      -7.836      23.424      -0.117       2.622     -17.184
   full:       -7.204      -7.662      22.996      -0.358       2.472     -15.792

           -------------------------------------------------
          |                Geometry Summary                 |
           -------------------------------------------------

      molecular mass/u    :      195.1988581
   center of mass at/Å    :       -0.1871596      -0.2118645      -0.0468131
  moments of inertia/u·Å² :        0.5601302E+03   0.7142096E+03   0.1264642E+04
rotational constants/cm⁻¹ :        0.3009592E-01   0.2360320E-01   0.1332997E-01

 * 24 selected distances

     #   Z          #   Z                                           value/Å
     1   6 C        2   7 N                                       1.4336682
     2   7 N        3   6 C                                       1.3367807
     3   6 C        4   7 N                                       1.3561145
     4   7 N        5   6 C                                       1.3643524
     2   7 N        6   6 C                                       1.3770571
     5   6 C        6   6 C                                       1.3979311
     6   6 C        7   6 C                                       1.4326461
     7   6 C        9   7 N                                       1.3067414
     9   7 N       10   6 C                                       1.4179591
    11   6 C       12   8 O                                       1.1778734
     5   6 C       13   7 N                                       1.3637739
    11   6 C       13   7 N                                       1.3848229
    13   7 N       14   6 C                                       1.4497054 (max)
     1   6 C       15   1 H                                       1.0897136
     1   6 C       16   1 H                                       1.0874389
     1   6 C       17   1 H                                       1.0912697
     3   6 C       18   1 H                                       1.0703557
    10   6 C       19   1 H                                       1.0900101
    10   6 C       20   1 H                                       1.0947039
    10   6 C       21   1 H                                       1.0950072
    14   6 C       22   1 H                                       1.0902575
    14   6 C       23   1 H                                       1.0908210
    14   6 C       24   1 H                                       1.0892219
     4   7 N       25   1 H                                       1.0090247 (min)

 * 5 distinct bonds (by element types)

   Z      Z             #   av. dist./Å        max./Å        min./Å
   1 H    6 C          10     1.0888800     1.0950072     1.0703557
   6 C    6 C           2     1.4152886     1.4326461     1.3979311
   1 H    7 N           1     1.0090247     1.0090247     1.0090247
   6 C    7 N          10     1.3790976     1.4497054     1.3067414
   6 C    8 O           1     1.1778734     1.1778734     1.1778734


optimized geometry written to: xtbopt.xyz


           -------------------------------------------------
          | TOTAL ENERGY              -42.218411136541 Eh   |
          | GRADIENT NORM               0.002112789063 Eh/α |
          | HOMO-LUMO GAP               2.914447097282 eV   |
           -------------------------------------------------

------------------------------------------------------------------------
 * finished run on 2024/06/05 at 19:58:52.664     
------------------------------------------------------------------------
 total:
 * wall-time:     0 d,  0 h,  0 min,  3.059 sec
 *  cpu-time:     0 d,  0 h,  0 min,  3.039 sec
 * ratio c/w:     0.993 speedup
 SCF:
 * wall-time:     0 d,  0 h,  0 min,  0.042 sec
 *  cpu-time:     0 d,  0 h,  0 min,  0.041 sec
 * ratio c/w:     0.976 speedup
 ANC optimizer:
 * wall-time:     0 d,  0 h,  0 min,  2.991 sec
 *  cpu-time:     0 d,  0 h,  0 min,  2.987 sec
 * ratio c/w:     0.999 speedup

