      -----------------------------------------------------------      
     |                   =====================                   |     
     |                           x T B                           |     
     |                   =====================                   |     
     |                         S. Grimme                         |     
     |          Mulliken Center for Theoretical Chemistry        |     
     |                    University of Bonn                     |     
      -----------------------------------------------------------      

   * xtb version 6.6.1 (8d0f1dd) compiled by 'conda@1efc2f54142f' on 2023-08-01

   xtb is free software: you can redistribute it and/or modify it under
   the terms of the GNU Lesser General Public License as published by
   the Free Software Foundation, either version 3 of the License, or
   (at your option) any later version.
   
   xtb is distributed in the hope that it will be useful,
   but WITHOUT ANY WARRANTY; without even the implied warranty of
   MERCHANTABILITY or FITNESS FOR A PARTICULAR PURPOSE.  See the
   GNU Lesser General Public License for more details.
   
   Cite this work as:
   * C. Bannwarth, E. Caldeweyher, S. Ehlert, A. Hansen, P. Pracht,
     J. Seibert, S. Spicher, S. Grimme, WIREs Comput. Mol. Sci., 2020, 11,
     e01493. DOI: 10.1002/wcms.1493
   
   for GFN2-xTB:
   * C. Bannwarth, S. Ehlert and S. Grimme., J. Chem. Theory Comput., 2019,
     15, 1652-1671. DOI: 10.1021/acs.jctc.8b01176
   for GFN1-xTB:
   * S. Grimme, C. Bannwarth, P. Shushkov, J. Chem. Theory Comput., 2017,
     13, 1989-2009. DOI: 10.1021/acs.jctc.7b00118
   for GFN0-xTB:
   * P. Pracht, E. Caldeweyher, S. Ehlert, S. Grimme, ChemRxiv, 2019, preprint.
     DOI: 10.26434/chemrxiv.8326202.v1
   for GFN-FF:
   * S. Spicher and S. Grimme, Angew. Chem. Int. Ed., 2020, 59, 15665-15673.
     DOI: 10.1002/anie.202004239
   
   for ALPB and GBSA implicit solvation:
   * S. Ehlert, M. Stahn, S. Spicher, S. Grimme, J. Chem. Theory Comput.,
     2021, 17, 4250-4261. DOI: 10.1021/acs.jctc.1c00471
   
   for DFT-D4:
   * E. Caldeweyher, C. Bannwarth and S. Grimme, J. Chem. Phys., 2017,
     147, 034112. DOI: 10.1063/1.4993215
   * E. Caldeweyher, S. Ehlert, A. Hansen, H. Neugebauer, S. Spicher,
     C. Bannwarth and S. Grimme, J. Chem. Phys., 2019, 150, 154122.
     DOI: 10.1063/1.5090222
   * E. Caldeweyher, J.-M. Mewes, S. Ehlert and S. Grimme, Phys. Chem. Chem. Phys.
     2020, 22, 8499-8512. DOI: 10.1039/D0CP00502A
   
   for sTDA-xTB:
   * S. Grimme and C. Bannwarth, J. Chem. Phys., 2016, 145, 054103.
     DOI: 10.1063/1.4959605
   
   in the mass-spec context:
   * V. Asgeirsson, C. Bauer and S. Grimme, Chem. Sci., 2017, 8, 4879.
     DOI: 10.1039/c7sc00601b
   * J. Koopman and S. Grimme, ACS Omega 2019, 4, 12, 15120-15133.
     DOI: 10.1021/acsomega.9b02011
   
   for metadynamics refer to:
   * S. Grimme, J. Chem. Theory Comput., 2019, 155, 2847-2862
     DOI: 10.1021/acs.jctc.9b00143
   
   for SPH calculations refer to:
   * S. Spicher and S. Grimme, J. Chem. Theory Comput., 2021, 17, 1701-1714
     DOI: 10.1021/acs.jctc.0c01306
   
   with help from (in alphabetical order)
   P. Atkinson, C. Bannwarth, F. Bohle, G. Brandenburg, E. Caldeweyher
   M. Checinski, S. Dohm, S. Ehlert, S. Ehrlich, I. Gerasimov, C. Hölzer
   A. Katbashev, J. Koopman, C. Lavigne, S. Lehtola, F. März, M. Müller,
   F. Musil, H. Neugebauer, J. Pisarek, C. Plett, P. Pracht, F. Pultar,
   J. Seibert, P. Shushkov, S. Spicher, M. Stahn, M. Steiner, T. Strunk,
   J. Stückrath, T. Rose, and J. Unsleber
   
 * started run on 2024/06/05 at 19:59:10.841     

           -------------------------------------------------
          |                Calculation Setup                |
           -------------------------------------------------

          program call               : xtb xtbopt.xyz --opt crude --input .xc2 --gfn2
          hostname                   : n-62-31-11
          coordinate file            : xtbopt.xyz
          omp threads                :                     1

   ID    Z sym.   atoms
    1    6 C      1, 3, 5-7, 10, 11, 14
    2    7 N      2, 4, 9, 13
    3    8 O      8, 12
    4    1 H      15-25
########################################################################
[WARNING] Please study the warnings concerning your input carefully
-1- readin_getIntValue: could not parse ''
########################################################################

           -------------------------------------------------
          |                 G F N 2 - x T B                 |
           -------------------------------------------------

        Reference                      10.1021/acs.jctc.8b01176
      * Hamiltonian:
        H0-scaling (s, p, d)           1.850000    2.230000    2.230000
        zeta-weighting                 0.500000
      * Dispersion:
        s8                             2.700000
        a1                             0.520000
        a2                             5.000000
        s9                             5.000000
      * Repulsion:
        kExp                           1.500000    1.000000
        rExp                           1.000000
      * Coulomb:
        alpha                          2.000000
        third order                    shell-resolved
        anisotropic                    true
        a3                             3.000000
        a5                             4.000000
        cn-shift                       1.200000
        cn-exp                         4.000000
        max-rad                        5.000000

q/qsh data taken from xtbrestart
CAMM data taken from xtbrestart

          ...................................................
          :                      SETUP                      :
          :.................................................:
          :  # basis functions                  67          :
          :  # atomic orbitals                  67          :
          :  # shells                           39          :
          :  # electrons                        74          :
          :  max. iterations                   250          :
          :  Hamiltonian                  GFN2-xTB          :
          :  restarted?                       true          :
          :  GBSA solvation                  false          :
          :  PC potential                    false          :
          :  electronic temp.         5000.0000000     K    :
          :  accuracy                    1.0000000          :
          :  -> integral cutoff          0.2500000E+02      :
          :  -> integral neglect         0.1000000E-07      :
          :  -> SCF convergence          0.1000000E-05 Eh   :
          :  -> wf. convergence          0.1000000E-03 e    :
          :  Broyden damping             0.4000000          :
          ...................................................

 iter      E             dE          RMSdq      gap      omega  full diag
   1    -42.5695299 -0.425695E+02  0.473E-05    0.37       0.0  T
   2    -42.5695299  0.348514E-09  0.953E-05    0.37     209.9  T
   3    -42.5695299 -0.363379E-09  0.298E-05    0.37     671.0  T

   *** convergence criteria satisfied after 3 iterations ***

         #    Occupation            Energy/Eh            Energy/eV
      -------------------------------------------------------------
         1        2.0000           -0.8955387             -24.3688
       ...           ...                  ...                  ...
        31        1.9888           -0.6203533             -16.8807
        32        1.9474           -0.5955708             -16.2063
        33        1.9153           -0.5877448             -15.9933
        34        1.8871           -0.5829698             -15.8634
        35        1.8320           -0.5762016             -15.6792
        36        1.8135           -0.5743927             -15.6300
        37        1.5045           -0.5559602             -15.1284 (HOMO)
        38        1.1216           -0.5422440             -14.7552 (LUMO)
        39        0.0097           -0.4540675             -12.3558
        40        0.0005           -0.4074096             -11.0862
        41        0.0001           -0.3858576             -10.4997
        42        0.0000           -0.3027297              -8.2377
       ...           ...                  ...                  ...
        67                          0.5081459              13.8274
      -------------------------------------------------------------
                  HL-Gap            0.0137162 Eh            0.3732 eV
             Fermi-level           -0.5383755 Eh          -14.6499 eV

 SCC (total)                   0 d,  0 h,  0 min,  0.025 sec
 SCC setup                      ...        0 min,  0.000 sec (  1.050%)
 Dispersion                     ...        0 min,  0.000 sec (  1.212%)
 classical contributions        ...        0 min,  0.000 sec (  0.337%)
 integral evaluation            ...        0 min,  0.005 sec ( 20.378%)
 iterations                     ...        0 min,  0.006 sec ( 22.301%)
 molecular gradient             ...        0 min,  0.014 sec ( 54.084%)
 printout                       ...        0 min,  0.000 sec (  0.593%)

         :::::::::::::::::::::::::::::::::::::::::::::::::::::
         ::                     SUMMARY                     ::
         :::::::::::::::::::::::::::::::::::::::::::::::::::::
         :: total energy             -42.073592205880 Eh    ::
         :: gradient norm              0.031069774897 Eh/a0 ::
         :: HOMO-LUMO gap              0.373236877868 eV    ::
         ::.................................................::
         :: SCC energy               -42.569529871824 Eh    ::
         :: -> isotropic ES            0.133468380672 Eh    ::
         :: -> anisotropic ES         -0.008494263594 Eh    ::
         :: -> anisotropic XC          0.017721519871 Eh    ::
         :: -> dispersion             -0.022237504157 Eh    ::
         :: repulsion energy           0.495823614912 Eh    ::
         :: add. restraining           0.000000000000 Eh    ::
         :: total charge               1.000000000000 e     ::
         :::::::::::::::::::::::::::::::::::::::::::::::::::::

      ----------------------------------------------------------- 
     |                   =====================                   |
     |                        A N C O P T                        |
     |                   =====================                   |
     |               Approximate Normal Coordinate               |
     |                Rational Function Optimizer                |
      ----------------------------------------------------------- 

          ...................................................
          :                      SETUP                      :
          :.................................................:
          :   optimization level             crude          :
          :   max. optcycles                   200          :
          :   ANC micro-cycles                  20          :
          :   degrees of freedom                69          :
          :.................................................:
          :   RF solver                   davidson          :
          :   write xtbopt.log                true          :
          :   linear?                        false          :
          :   energy convergence         0.5000000E-03 Eh   :
          :   grad. convergence          0.1000000E-01 Eh/α :
          :   maxmium RF displ.          1.0000000          :
          :   Hlow (freq-cutoff)         0.1000000E-01      :
          :   Hmax (freq-cutoff)         5.0000000          :
          :   S6 in model hess.         20.0000000          :
          ...................................................

generating ANC from model Hessian ...
Using Lindh-Hessian (1995)
 Shifting diagonal of input Hessian by    7.8628430682539940E-003
 Lowest  eigenvalues of input Hessian
    0.000000    0.000000    0.000000    0.000000    0.000000    0.000000
    0.010000    0.010639    0.012819    0.014043    0.015344    0.018686
    0.019876    0.020601    0.022972    0.027588    0.029469    0.035474
 Highest eigenvalues
    1.893239    2.015094    2.093314    2.141754    2.348698    2.546698


........................................................................
.............................. CYCLE    1 ..............................
........................................................................

 iter      E             dE          RMSdq      gap      omega  full diag
   1    -42.5695299 -0.425695E+02  0.227E-05    0.37       0.0  T
   2    -42.5695299  0.943814E-10  0.471E-05    0.37     424.6  T
   3    -42.5695299 -0.103910E-09  0.170E-05    0.37    1174.8  T
     SCC iter.                  ...        0 min,  0.005 sec
     gradient                   ...        0 min,  0.014 sec
 * total energy  :   -42.0735922 Eh     change       -0.1555378E-10 Eh
   gradient norm :     0.0310698 Eh/α   predicted     0.0000000E+00 (-100.00%)
   displ. norm   :     0.5370472 α      lambda       -0.1057059E-01
   maximum displ.:     0.4083220 α      in ANC's #5, #11, #7, ...

........................................................................
.............................. CYCLE    2 ..............................
........................................................................

 iter      E             dE          RMSdq      gap      omega  full diag
   1    -42.5837647 -0.425838E+02  0.253E-01    0.45       0.0  T
   2    -42.5807203  0.304436E-02  0.305E-01    0.51       1.0  T
   3    -42.5826955 -0.197513E-02  0.225E-01    0.42       1.0  T
   4    -42.5833476 -0.652139E-03  0.148E-01    0.48       1.0  T
   5    -42.5843845 -0.103691E-02  0.173E-02    0.45       1.2  T
   6    -42.5843877 -0.319254E-05  0.120E-02    0.45       1.7  T
   7    -42.5843905 -0.280660E-05  0.466E-03    0.45       4.3  T
   8    -42.5843909 -0.364335E-06  0.183E-03    0.45      10.9  T
   9    -42.5843910 -0.111422E-06  0.676E-04    0.45      29.6  T
  10    -42.5843910 -0.636390E-08  0.239E-04    0.45      83.8  T
     SCC iter.                  ...        0 min,  0.014 sec
     gradient                   ...        0 min,  0.013 sec
 * total energy  :   -42.0827856 Eh     change       -0.9193370E-02 Eh
   gradient norm :     0.0212877 Eh/α   predicted    -0.6809702E-02 ( -25.93%)
   displ. norm   :     0.7672723 α      lambda       -0.1123412E-01
   maximum displ.:     0.6068146 α      in ANC's #5, #11, #7, ...

........................................................................
.............................. CYCLE    3 ..............................
........................................................................

 iter      E             dE          RMSdq      gap      omega  full diag
   1    -42.5934916 -0.425935E+02  0.475E-01    0.82       0.0  T
   2    -42.5871024  0.638924E-02  0.492E-01    0.63       1.0  T
   3    -42.5923235 -0.522117E-02  0.302E-01    0.81       1.0  T
   4    -42.5910316  0.129191E-02  0.369E-01    0.71       1.0  T
   5    -42.5959087 -0.487708E-02  0.277E-02    0.73       1.0  T
   6    -42.5959077  0.101415E-05  0.148E-02    0.73       1.3  T
   7    -42.5959118 -0.410602E-05  0.509E-03    0.73       3.9  T
   8    -42.5959122 -0.355931E-06  0.192E-03    0.73      10.4  T
   9    -42.5959122 -0.250187E-07  0.105E-03    0.73      19.0  T
  10    -42.5959122 -0.809391E-08  0.514E-04    0.73      38.9  T
  11    -42.5959122 -0.710008E-08  0.957E-05    0.73     209.0  T
     SCC iter.                  ...        0 min,  0.015 sec
     gradient                   ...        0 min,  0.014 sec
 * total energy  :   -42.0915644 Eh     change       -0.8778871E-02 Eh
   gradient norm :     0.0261867 Eh/α   predicted    -0.8923865E-02 (   1.65%)
   displ. norm   :     0.6203087 α      lambda       -0.5504922E-02
   maximum displ.:     0.5282285 α      in ANC's #5, #11, #7, ...

........................................................................
.............................. CYCLE    4 ..............................
........................................................................

 iter      E             dE          RMSdq      gap      omega  full diag
   1    -42.5942886 -0.425943E+02  0.552E-01    1.33       0.0  T
   2    -42.5706011  0.236875E-01  0.877E-01    0.97       1.0  T
   3    -42.5995270 -0.289259E-01  0.263E-01    1.18       1.0  T
   4    -42.5970831  0.244391E-02  0.316E-01    1.19       1.0  T
   5    -42.5997019 -0.261875E-02  0.508E-02    1.17       1.0  T
   6    -42.5997822 -0.803023E-04  0.243E-02    1.18       1.0  T
   7    -42.5997884 -0.623864E-05  0.101E-02    1.18       2.0  T
   8    -42.5997916 -0.314584E-05  0.304E-03    1.18       6.6  T
   9    -42.5997918 -0.257823E-06  0.136E-03    1.18      14.7  T
  10    -42.5997918 -0.104849E-07  0.559E-04    1.18      35.8  T
  11    -42.5997918 -0.465910E-08  0.131E-04    1.18     153.1  T
     SCC iter.                  ...        0 min,  0.015 sec
     gradient                   ...        0 min,  0.013 sec
 * total energy  :   -42.0953497 Eh     change       -0.3785290E-02 Eh
   gradient norm :     0.0295252 Eh/α   predicted    -0.3811578E-02 (   0.69%)
   displ. norm   :     0.3287631 α      lambda       -0.2198251E-02
   maximum displ.:     0.2958676 α      in ANC's #5, #11, #7, ...

........................................................................
.............................. CYCLE    5 ..............................
........................................................................

 iter      E             dE          RMSdq      gap      omega  full diag
   1    -42.6043791 -0.426044E+02  0.275E-01    1.49       0.0  T
   2    -42.6018092  0.256986E-02  0.349E-01    1.33       1.0  T
   3    -42.6052144 -0.340515E-02  0.130E-01    1.42       1.0  T
   4    -42.6048963  0.318098E-03  0.132E-01    1.42       1.0  T
   5    -42.6052723 -0.375977E-03  0.202E-02    1.42       1.0  T
   6    -42.6052764 -0.409269E-05  0.105E-02    1.42       1.9  T
   7    -42.6052771 -0.730564E-06  0.334E-03    1.42       6.0  T
   8    -42.6052773 -0.211850E-06  0.102E-03    1.42      19.7  T
   9    -42.6052773 -0.599302E-08  0.567E-04    1.42      35.3  T
  10    -42.6052773 -0.471781E-08  0.167E-04    1.42     119.6  T
     SCC iter.                  ...        0 min,  0.013 sec
     gradient                   ...        0 min,  0.013 sec
 * total energy  :   -42.0969193 Eh     change       -0.1569597E-02 Eh
   gradient norm :     0.0212573 Eh/α   predicted    -0.1217941E-02 ( -22.40%)
   displ. norm   :     0.1993794 α      lambda       -0.1196164E-02
   maximum displ.:     0.1766781 α      in ANC's #5, #8, #50, ...

........................................................................
.............................. CYCLE    6 ..............................
........................................................................

 iter      E             dE          RMSdq      gap      omega  full diag
   1    -42.6074458 -0.426074E+02  0.145E-01    1.46       0.0  T
   2    -42.6073795  0.663130E-04  0.792E-02    1.46       1.0  T
   3    -42.6069973  0.382227E-03  0.131E-01    1.44       1.0  T
   4    -42.6074775 -0.480213E-03  0.263E-02    1.47       1.0  T
   5    -42.6074960 -0.184811E-04  0.102E-02    1.45       2.0  T
   6    -42.6074987 -0.276182E-05  0.494E-03    1.46       4.0  T
   7    -42.6074989 -0.173325E-06  0.187E-03    1.46      10.7  T
   8    -42.6074990 -0.109241E-06  0.399E-04    1.46      50.1  T
   9    -42.6074990 -0.131982E-08  0.228E-04    1.46      87.8  T
     SCC iter.                  ...        0 min,  0.012 sec
     gradient                   ...        0 min,  0.014 sec
 * total energy  :   -42.0976729 Eh     change       -0.7535683E-03 Eh
   gradient norm :     0.0158034 Eh/α   predicted    -0.6218945E-03 ( -17.47%)
   displ. norm   :     0.1115433 α      lambda       -0.6428024E-03
   maximum displ.:     0.0885914 α      in ANC's #11, #24, #18, ...

........................................................................
.............................. CYCLE    7 ..............................
........................................................................

 iter      E             dE          RMSdq      gap      omega  full diag
   1    -42.6069300 -0.426069E+02  0.133E-01    1.27       0.0  T
   2    -42.6051596  0.177040E-02  0.251E-01    1.38       1.0  T
   3    -42.6074287 -0.226916E-02  0.851E-02    1.33       1.0  T
   4    -42.6074051  0.236402E-04  0.684E-02    1.31       1.0  T
   5    -42.6075199 -0.114828E-03  0.875E-03    1.32       2.3  T
   6    -42.6075213 -0.142065E-05  0.487E-03    1.32       4.1  T
   7    -42.6075216 -0.265977E-06  0.184E-03    1.32      10.8  T
   8    -42.6075217 -0.408783E-07  0.676E-04    1.32      29.6  T
   9    -42.6075217 -0.129728E-07  0.261E-04    1.32      76.5  T
     SCC iter.                  ...        0 min,  0.012 sec
     gradient                   ...        0 min,  0.013 sec
 * total energy  :   -42.0979048 Eh     change       -0.2319043E-03 Eh
   gradient norm :     0.0123677 Eh/α   predicted    -0.3254030E-03 (  40.32%)
   displ. norm   :     0.0829471 α      lambda       -0.3088021E-03
   maximum displ.:     0.0596029 α      in ANC's #5, #11, #8, ...

........................................................................
.............................. CYCLE    8 ..............................
........................................................................

 iter      E             dE          RMSdq      gap      omega  full diag
   1    -42.6052400 -0.426052E+02  0.837E-02    1.37       0.0  T
   2    -42.6052334  0.665168E-05  0.469E-02    1.36       1.0  T
   3    -42.6052326  0.733944E-06  0.498E-02    1.37       1.0  T
   4    -42.6052653 -0.326769E-04  0.110E-02    1.36       1.8  T
   5    -42.6052645  0.872259E-06  0.123E-02    1.36       1.6  T
   6    -42.6052697 -0.520272E-05  0.318E-03    1.36       6.3  T
   7    -42.6052699 -0.204179E-06  0.803E-04    1.36      24.9  T
   8    -42.6052699 -0.105920E-07  0.270E-04    1.36      74.0  T
     SCC iter.                  ...        0 min,  0.011 sec
     gradient                   ...        0 min,  0.014 sec
 * total energy  :   -42.0980873 Eh     change       -0.1824509E-03 Eh
   gradient norm :     0.0060978 Eh/α   predicted    -0.1554665E-03 ( -14.79%)
   displ. norm   :     0.0407761 α      lambda       -0.8283992E-04
   maximum displ.:     0.0242951 α      in ANC's #5, #11, #8, ...

   *** GEOMETRY OPTIMIZATION CONVERGED AFTER 8 ITERATIONS ***

------------------------------------------------------------------------
 total energy gain   :        -0.0244951 Eh      -15.3709 kcal/mol
 total RMSD          :         0.4797523 a0        0.2539 Å
 total power (kW/mol):        -8.0389686 (step) -250.7154 (real)
------------------------------------------------------------------------

 ANCopt (total)                0 d,  0 h,  0 min,  0.257 sec
 optimizer setup                ...        0 min,  0.001 sec (  0.254%)
 model hessian                  ...        0 min,  0.006 sec (  2.231%)
 ANC generation                 ...        0 min,  0.001 sec (  0.297%)
 coordinate transformation      ...        0 min,  0.000 sec (  0.029%)
 single point calculation       ...        0 min,  0.246 sec ( 95.792%)
 optimization log               ...        0 min,  0.002 sec (  0.906%)
 hessian update                 ...        0 min,  0.000 sec (  0.040%)
 rational function              ...        0 min,  0.001 sec (  0.251%)

================
 final structure:
================
25
 xtb: 6.6.1 (8d0f1dd)
C            3.11366137337557        1.14258336678860        0.02759338375913
N            2.27483559781059       -0.05045452173394       -0.00963816771220
C            2.86349892365136       -1.19731557394931       -0.03236767135695
N            0.93802409170593       -2.36778900420032       -0.01495844834696
C            0.26356232343027       -1.27419288745371       -0.00388424911850
C            0.90837224137589        0.01562571272999       -0.00145549251698
C            0.12037399628179        1.23192719899640       -0.01469208964567
O            0.57828362013929        2.35855827226987       -0.04060326081769
N           -1.25110287874465        1.02232079115725        0.00026674714272
C           -2.12480095637708        2.18273180709461       -0.00321702505458
C           -1.89976943530923       -0.20038585899775        0.01178499888657
O           -3.09858313342514       -0.28189448261955        0.02357240657290
N           -1.09356005165645       -1.33269720038293        0.00620137160176
C           -1.71958868342513       -2.64037150168869        0.00548629533931
H            3.56895938878464        1.23739200991173        1.01430867216439
H            3.90364850513753        1.06694357304947       -0.71793770768792
H            2.50535730178541        2.02849375775899       -0.16383484888486
H            3.91452892511372       -1.40762615911563       -0.02431316615235
H           -1.51041403592701        3.08035437082524        0.00464307802086
H           -2.75925223758660        2.16495895240617       -0.89083108879690
H           -2.77374945150457        2.15659261478773        0.87341769795875
H           -1.39930699453344       -3.20084941706985        0.88472842100690
H           -1.41409961951743       -3.19263545228330       -0.88420443210038
H           -2.79938759315683       -2.50630839369452        0.01502420924032
H            2.05094029667166       -2.21772343298670       -0.03391801560168

 Bond Distances (Angstroems)
 ---------------------------
C1-N2=1.4589         C1-H15=1.0908        C1-H16=1.0889        C1-H17=1.0916        N2-C1=1.4589         N2-C3=1.2893         
N2-C6=1.3681         C3-N2=1.2893         C3-H18=1.0719        C3-H25=1.3044        N4-C5=1.2849         N4-H25=1.1231        
C5-N4=1.2849         C5-C6=1.4420         C5-N13=1.3584        C6-N2=1.3681         C6-C5=1.4420         C6-C7=1.4493         
C7-C6=1.4493         C7-O8=1.2164         C7-N9=1.3875         O8-C7=1.2164         N9-C7=1.3875         N9-C10=1.4526        
N9-C11=1.3842        C10-N9=1.4526        C10-H19=1.0878       C10-H20=1.0912       C10-H21=1.0910       C11-N9=1.3842        
C11-O12=1.2016       C11-N13=1.3900       O12-C11=1.2016       N13-C5=1.3584        N13-C11=1.3900       N13-C14=1.4498       
C14-N13=1.4498       C14-H22=1.0908       C14-H23=1.0908       C14-H24=1.0881       H15-C1=1.0908        H16-C1=1.0889        
H17-C1=1.0916        H18-C3=1.0719        H19-C10=1.0878       H20-C10=1.0912       H21-C10=1.0910       H22-C14=1.0908       
H23-C14=1.0908       H24-C14=1.0881       H25-C3=1.3044        H25-N4=1.1231        
 C  H  Rav=1.1079 sigma=0.0624  Rmin=1.0719  Rmax=1.3044    11
 C  C  Rav=1.4457 sigma=0.0036  Rmin=1.4420  Rmax=1.4493     2
 N  H  Rav=1.1231 sigma=0.0000  Rmin=1.1231  Rmax=1.1231     1
 N  C  Rav=1.3824 sigma=0.0586  Rmin=1.2849  Rmax=1.4589    10
 O  C  Rav=1.2090 sigma=0.0074  Rmin=1.2016  Rmax=1.2164     2

 selected bond angles (degree)
 --------------------
H15-C1-N2=109.52               H16-C1-N2=110.05               H16-C1-H15=108.82              H17-C1-N2=109.80               
H17-C1-H15=108.70              H17-C1-H16=109.91              C3-N2-C1=117.73                C6-N2-C1=122.32                
C6-N2-C3=119.94                H18-C3-N2=128.47               H25-C3-N2=114.30               H25-C3-H18=117.21              
H25-N4-C5=113.99               C6-C5-N4=121.77                N13-C5-N4=119.20               N13-C5-C6=119.03               
C5-C6-N2=113.79                C7-C6-N2=125.70                C7-C6-C5=120.50                O8-C7-C6=124.95                
N9-C7-C6=114.24                N9-C7-O8=120.81                C10-N9-C7=118.28               C11-N9-C7=126.64               
C11-N9-C10=115.08              H19-C10-N9=108.63              H20-C10-N9=109.80              H20-C10-H19=110.35             
H21-C10-N9=109.68              H21-C10-H19=110.48             H21-C10-H20=107.90             

 selected dihedral angles (degree)
 ---------------------------------
C3-N2-C1-H15=287.64           C3-N2-C1-H16= 47.23           C3-N2-C1-H17=168.34           C6-N2-C1-H15=106.68           
C6-N2-C1-H16=226.27           C6-N2-C1-H17=347.39           H18-C3-N2-C1=  0.23           H18-C3-N2-C6=181.17           
H25-C3-N2-C1=178.50           H25-C3-N2-C6=359.43           C6-C5-N4-H25=359.35           N13-C5-N4-H25=179.37          
C5-C6-N2-C1=181.69            C5-C6-N2-C3=  0.71            C7-C6-N2-C1=  2.84            C7-C6-N2-C3=181.86            
N2-C6-C5-N4=359.90            N2-C6-C5-N13=179.88           C7-C6-C5-N4=178.81            C7-C6-C5-N13=358.80           
O8-C7-C6-N2=  0.33            O8-C7-C6-C5=181.54            N9-C7-C6-N2=180.12            N9-C7-C6-C5=  1.33            
C10-N9-C7-C6=179.64           C10-N9-C7-O8=359.44           C11-N9-C7-C6=359.28           C11-N9-C7-O8=179.08           
H19-C10-N9-C7=358.74          H19-C10-N9-C11=179.05         H20-C10-N9-C7=119.49          H20-C10-N9-C11=299.81         
H21-C10-N9-C7=237.90          H21-C10-N9-C11= 58.21         
           -------------------------------------------------
          |                Final Singlepoint                |
           -------------------------------------------------

          ...................................................
          :                      SETUP                      :
          :.................................................:
          :  # basis functions                  67          :
          :  # atomic orbitals                  67          :
          :  # shells                           39          :
          :  # electrons                        74          :
          :  max. iterations                   250          :
          :  Hamiltonian                  GFN2-xTB          :
          :  restarted?                      false          :
          :  GBSA solvation                  false          :
          :  PC potential                    false          :
          :  electronic temp.         5000.0000000     K    :
          :  accuracy                    1.0000000          :
          :  -> integral cutoff          0.2500000E+02      :
          :  -> integral neglect         0.1000000E-07      :
          :  -> SCF convergence          0.1000000E-05 Eh   :
          :  -> wf. convergence          0.1000000E-03 e    :
          :  Broyden damping             0.4000000          :
          ...................................................

 iter      E             dE          RMSdq      gap      omega  full diag
   1    -42.6052699 -0.426053E+02  0.145E-04    1.36       0.0  T
   2    -42.6052699  0.829701E-10  0.107E-04    1.36     187.6  T
   3    -42.6052699  0.193118E-09  0.109E-04    1.36     183.3  T

   *** convergence criteria satisfied after 3 iterations ***

         #    Occupation            Energy/Eh            Energy/eV
      -------------------------------------------------------------
         1        2.0000           -0.8968600             -24.4048
       ...           ...                  ...                  ...
        31        1.9907           -0.6156151             -16.7517
        32        1.9831           -0.6060511             -16.4915
        33        1.9557           -0.5906061             -16.0712
        34        1.9336           -0.5840117             -15.8918
        35        1.9102           -0.5790338             -15.7563
        36        1.8740           -0.5733686             -15.6022
        37        1.7931           -0.5648215             -15.3696 (HOMO)
        38        0.5365           -0.5147372             -14.0067 (LUMO)
        39        0.0346           -0.4666858             -12.6992
        40        0.0007           -0.4035811             -10.9820
        41        0.0002           -0.3846232             -10.4661
        42        0.0000           -0.2965791              -8.0703
       ...           ...                  ...                  ...
        67                          0.5261631              14.3176
      -------------------------------------------------------------
                  HL-Gap            0.0500843 Eh            1.3629 eV
             Fermi-level           -0.5306263 Eh          -14.4391 eV

 SCC (total)                   0 d,  0 h,  0 min,  0.023 sec
 SCC setup                      ...        0 min,  0.000 sec (  0.846%)
 Dispersion                     ...        0 min,  0.000 sec (  0.753%)
 classical contributions        ...        0 min,  0.000 sec (  0.316%)
 integral evaluation            ...        0 min,  0.005 sec ( 19.811%)
 iterations                     ...        0 min,  0.005 sec ( 20.003%)
 molecular gradient             ...        0 min,  0.014 sec ( 57.758%)
 printout                       ...        0 min,  0.000 sec (  0.464%)

         :::::::::::::::::::::::::::::::::::::::::::::::::::::
         ::                     SUMMARY                     ::
         :::::::::::::::::::::::::::::::::::::::::::::::::::::
         :: total energy             -42.098087258427 Eh    ::
         :: gradient norm              0.006099318048 Eh/a0 ::
         :: HOMO-LUMO gap              1.362862292769 eV    ::
         ::.................................................::
         :: SCC energy               -42.605269870351 Eh    ::
         :: -> isotropic ES            0.140301448839 Eh    ::
         :: -> anisotropic ES         -0.005443375282 Eh    ::
         :: -> anisotropic XC          0.016730486981 Eh    ::
         :: -> dispersion             -0.022442185467 Eh    ::
         :: repulsion energy           0.507065633562 Eh    ::
         :: add. restraining           0.000000000000 Eh    ::
         :: total charge               1.000000000000 e     ::
         :::::::::::::::::::::::::::::::::::::::::::::::::::::

           -------------------------------------------------
          |                Property Printout                |
           -------------------------------------------------

    * Orbital Energies and Occupations

         #    Occupation            Energy/Eh            Energy/eV
      -------------------------------------------------------------
         1        2.0000           -0.8968600             -24.4048
       ...           ...                  ...                  ...
        25        1.9998           -0.6747259             -18.3602
        26        1.9993           -0.6566288             -17.8678
        27        1.9990           -0.6504910             -17.7008
        28        1.9985           -0.6441901             -17.5293
        29        1.9974           -0.6358528             -17.3024
        30        1.9941           -0.6227915             -16.9470
        31        1.9907           -0.6156151             -16.7517
        32        1.9831           -0.6060511             -16.4915
        33        1.9557           -0.5906061             -16.0712
        34        1.9336           -0.5840117             -15.8918
        35        1.9102           -0.5790338             -15.7563
        36        1.8740           -0.5733686             -15.6022
        37        1.7931           -0.5648215             -15.3696 (HOMO)
        38        0.5365           -0.5147372             -14.0067 (LUMO)
        39        0.0346           -0.4666858             -12.6992
        40        0.0007           -0.4035811             -10.9820
        41        0.0002           -0.3846232             -10.4661
        42        0.0000           -0.2965791              -8.0703
        43                         -0.2106639              -5.7325
        44                         -0.1640756              -4.4647
        45                         -0.1460563              -3.9744
        46                         -0.0797340              -2.1697
        47                         -0.0455835              -1.2404
        48                         -0.0393632              -1.0711
       ...                                ...                  ...
        67                          0.5261631              14.3176
      -------------------------------------------------------------
                  HL-Gap            0.0500843 Eh            1.3629 eV
             Fermi-level           -0.5306263 Eh          -14.4391 eV

     #   Z          covCN         q      C6AA      α(0)
     1   6 C        3.716    -0.102    22.585     6.789
     2   7 N        2.740     0.148    18.734     6.428
     3   6 C        2.726    -0.044    29.077     8.828
     4   7 N        1.816    -0.264    27.705     7.799
     5   6 C        2.844     0.160    24.546     8.120
     6   6 C        2.950    -0.039    28.965     8.827
     7   6 C        2.764     0.272    22.410     7.753
     8   8 O        0.859    -0.360    20.901     6.130
     9   7 N        2.743    -0.069    22.585     7.058
    10   6 C        3.709    -0.062    21.830     6.678
    11   6 C        2.720     0.321    21.552     7.600
    12   8 O        0.860    -0.333    20.388     6.054
    13   7 N        2.753    -0.036    21.937     6.956
    14   6 C        3.705    -0.070    22.000     6.706
    15   1 H        0.924     0.120     1.612     1.986
    16   1 H        0.925     0.114     1.660     2.015
    17   1 H        0.924     0.156     1.352     1.818
    18   1 H        0.926     0.150     1.388     1.842
    19   1 H        0.925     0.121     1.606     1.982
    20   1 H        0.924     0.113     1.674     2.024
    21   1 H        0.924     0.113     1.671     2.021
    22   1 H        0.924     0.109     1.703     2.041
    23   1 H        0.924     0.109     1.703     2.041
    24   1 H        0.925     0.125     1.576     1.963
    25   1 H        1.601     0.249     0.875     1.460

 Mol. C6AA /au·bohr⁶  :       6514.772834
 Mol. C8AA /au·bohr⁸  :     150113.713355
 Mol. α(0) /au        :        122.917367


Wiberg/Mayer (AO) data.
largest (>0.10) Wiberg bond orders for each atom

 ---------------------------------------------------------------------------
     #   Z sym  total        # sym  WBO       # sym  WBO       # sym  WBO
 ---------------------------------------------------------------------------
     1   6 C    3.855 --    16 H    0.962    15 H    0.951     2 N    0.938
                            17 H    0.932
     2   7 N    3.761 --     3 C    1.570     6 C    1.182     1 C    0.938
     3   6 C    3.435 --     2 N    1.570    18 H    0.929    25 H    0.381
                             4 N    0.251     6 C    0.137
     4   7 N    2.622 --     5 C    1.579    25 H    0.537     3 C    0.251
     5   6 C    3.965 --     4 N    1.579    13 N    1.162     6 C    1.122
     6   6 C    3.742 --     2 N    1.182     5 C    1.122     7 C    1.101
                             3 C    0.137
     7   6 C    3.951 --     8 O    1.634     9 N    1.113     6 C    1.101
     8   8 O    1.971 --     7 C    1.634     9 N    0.122
     9   7 N    3.500 --     7 C    1.113    11 C    1.101    10 C    0.977
                             8 O    0.122    12 O    0.113
    10   6 C    3.873 --     9 N    0.977    19 H    0.961    21 H    0.946
                            20 H    0.946
    11   6 C    3.956 --    12 O    1.688     9 N    1.101    13 N    1.081
    12   8 O    2.002 --    11 C    1.688     9 N    0.113    13 N    0.112
    13   7 N    3.499 --     5 C    1.162    11 C    1.081    14 C    0.976
                            12 O    0.112
    14   6 C    3.884 --    13 N    0.976    24 H    0.962    22 H    0.950
                            23 H    0.950
    15   1 H    0.983 --     1 C    0.951
    16   1 H    0.985 --     1 C    0.962
    17   1 H    0.969 --     1 C    0.932
    18   1 H    0.959 --     3 C    0.929
    19   1 H    0.979 --    10 C    0.961
    20   1 H    0.963 --    10 C    0.946
    21   1 H    0.963 --    10 C    0.946
    22   1 H    0.969 --    14 C    0.950
    23   1 H    0.969 --    14 C    0.950
    24   1 H    0.980 --    14 C    0.962
    25   1 H    0.937 --     4 N    0.537     3 C    0.381
 ---------------------------------------------------------------------------

Topologies differ in total number of bonds
Writing topology from bond orders to xtbtopo.mol

molecular dipole:
                 x           y           z       tot (Debye)
 q only:        2.229      -0.823       0.018
   full:        2.521      -0.762       0.031       6.695
molecular quadrupole (traceless):
                xx          xy          yy          xz          yz          zz
 q only:       18.711      -2.840      -0.730       0.204       0.249     -17.981
  q+dip:       19.645      -4.841      -6.228       0.363       0.267     -13.417
   full:       18.516      -4.174      -6.750       0.377       0.287     -11.766

           -------------------------------------------------
          |                Geometry Summary                 |
           -------------------------------------------------

      molecular mass/u    :      195.1988581
   center of mass at/Å    :       -0.0334495      -0.0751592      -0.0029603
  moments of inertia/u·Å² :        0.4833173E+03   0.7302739E+03   0.1204015E+04
rotational constants/cm⁻¹ :        0.3487902E-01   0.2308399E-01   0.1400118E-01

 * 22 selected distances

     #   Z          #   Z                                           value/Å
     1   6 C        2   7 N                                       1.4588882 (max)
     2   7 N        3   6 C                                       1.2893144
     4   7 N        5   6 C                                       1.2849024
     2   7 N        6   6 C                                       1.3680848
     7   6 C        8   8 O                                       1.2164088
     7   6 C        9   7 N                                       1.3874825
     9   7 N       10   6 C                                       1.4525545
     9   7 N       11   6 C                                       1.3841650
    11   6 C       12   8 O                                       1.2016394
     5   6 C       13   7 N                                       1.3584204
    11   6 C       13   7 N                                       1.3900123
    13   7 N       14   6 C                                       1.4498017
     1   6 C       15   1 H                                       1.0908218
     1   6 C       16   1 H                                       1.0888608
     1   6 C       17   1 H                                       1.0915659
     3   6 C       18   1 H                                       1.0718954 (min)
    10   6 C       19   1 H                                       1.0877773
    10   6 C       20   1 H                                       1.0911935
    10   6 C       21   1 H                                       1.0910115
    14   6 C       22   1 H                                       1.0907716
    14   6 C       23   1 H                                       1.0908111
    14   6 C       24   1 H                                       1.0881313

 * 3 distinct bonds (by element types)

   Z      Z             #   av. dist./Å        max./Å        min./Å
   1 H    6 C          10     1.0882840     1.0915659     1.0718954
   6 C    7 N          10     1.3823626     1.4588882     1.2849024
   6 C    8 O           2     1.2090241     1.2164088     1.2016394


optimized geometry written to: xtbopt.xyz


           -------------------------------------------------
          | TOTAL ENERGY              -42.098087258427 Eh   |
          | GRADIENT NORM               0.006099318048 Eh/α |
          | HOMO-LUMO GAP               1.362862292769 eV   |
           -------------------------------------------------

------------------------------------------------------------------------
 * finished run on 2024/06/05 at 19:59:11.187     
------------------------------------------------------------------------
 total:
 * wall-time:     0 d,  0 h,  0 min,  0.345 sec
 *  cpu-time:     0 d,  0 h,  0 min,  0.316 sec
 * ratio c/w:     0.915 speedup
 SCF:
 * wall-time:     0 d,  0 h,  0 min,  0.025 sec
 *  cpu-time:     0 d,  0 h,  0 min,  0.025 sec
 * ratio c/w:     1.000 speedup
 ANC optimizer:
 * wall-time:     0 d,  0 h,  0 min,  0.287 sec
 *  cpu-time:     0 d,  0 h,  0 min,  0.279 sec
 * ratio c/w:     0.974 speedup

