25
 energy: -42.073592205896 gnorm: 0.031069802260 xtb: 6.6.1 (8d0f1dd)
C            3.06394535505175        1.25355590890045        0.02261733513292
N            2.36999039869888       -0.04937901816905       -0.00834732242064
C            3.21741110429768       -1.01933309350390       -0.01803071779654
N            0.68571741510430       -2.60564890675124       -0.00911496963499
C            0.24440126146430       -1.40234294398435       -0.00398456383985
C            0.97145960434437       -0.13044239455082       -0.00414868618130
C            0.17472555404133        1.09358893963230       -0.01079081538701
O            0.62397924733278        2.23450187392333       -0.02781095912410
N           -1.20027571001460        0.96567255106675        0.00038539813846
C           -2.01270706639497        2.16855703864546       -0.00094978118240
C           -1.90668238794401       -0.21985850218726        0.00671949525552
O           -3.11052475760753       -0.23881490502352        0.01393868657212
N           -1.13801473302717       -1.35877938824745        0.00235665887846
C           -1.83714935145826       -2.62612203072563        0.00098245757013
H            3.52761752802907        1.39498638573827        0.99981456714520
H            3.82678007807219        1.28494748732688       -0.75427465880279
H            2.36115532614796        2.07404794346936       -0.14547092838509
H            4.30953074130439       -0.78792142056826       -0.01519968194708
H           -1.36027743649479        3.03891302236580        0.00649532395523
H           -2.64966168117276        2.17886383202148       -0.88724399345468
H           -2.66195062712858        2.17100745732379        0.87621902473831
H           -1.55532110043586       -3.20972898013998        0.87830164667944
H           -1.56757283240673       -3.20081461591408       -0.88616307383203
H           -2.90737610344349       -2.42557771479128        0.00914742806384
H            1.69123168773978       -2.76563998425714       -0.01427625224113
25
 energy: -42.082785576059 gnorm: 0.021287820881 xtb: 6.6.1 (8d0f1dd)
C            3.06942598595271        1.23667586705952        0.02322594079078
N            2.34162102530818       -0.04841209013744       -0.00940070460928
C            3.12088935815293       -1.07248500424774       -0.02042167080230
N            0.77226453870181       -2.55225055849795       -0.00902377448558
C            0.26350031333654       -1.37489024092002       -0.00382552490529
C            0.95333722655723       -0.09557942825963       -0.00393246251264
C            0.16179893203403        1.12096938639444       -0.01155126751223
O            0.61072199286437        2.26150305207164       -0.03097811719157
N           -1.20985548147776        0.97535743982373        0.00016401467714
C           -2.02802475061303        2.17258725114760       -0.00104229705232
C           -1.90148492467546       -0.22181878840516        0.00698134882491
O           -3.10519434364710       -0.25275655036969        0.01458047639427
N           -1.12112287325261       -1.35649843432236        0.00242462638136
C           -1.81506694129779       -2.62744448775418        0.00121465143561
H            3.53227003367738        1.37325088174943        1.00134840359822
H            3.83293057080864        1.26056806765636       -0.75333225313888
H            2.37409298799322        2.06693193426104       -0.14386430259718
H            4.20936033967028       -0.93093220293628       -0.01478061198299
H           -1.37613768642412        3.04372830810437        0.00650700276306
H           -2.66318403597070        2.18023792926246       -0.88826965876516
H           -2.67539017331963        2.17194408179693        0.87717355419733
H           -1.53467715836618       -3.21063365062858        0.87930890079804
H           -1.54701598871472       -3.20194261947806       -0.88653047768782
H           -2.88687776260487       -2.42981046255981        0.00938457052027
H            1.78225032940667       -2.67006113921070       -0.01418874923775
25
 energy: -42.091564447492 gnorm: 0.026187066665 xtb: 6.6.1 (8d0f1dd)
C            3.07634106035364        1.21035394102327        0.02435735982532
N            2.30609222479130       -0.04730804926644       -0.00795484715977
C            2.98578678237557       -1.14570297997523       -0.02164645092345
N            0.88624970772120       -2.46939953110811       -0.00913137707651
C            0.28013742953978       -1.33508186110417       -0.00360339619556
C            0.92785019594578       -0.04690237039021       -0.00294491468557
C            0.14467422573454        1.16147296106333       -0.01336942261428
O            0.59847228016905        2.29837948331552       -0.03493819161141
N           -1.22421475832130        0.99048465710149       -0.00017741056965
C           -2.05410872810466        2.17818089000125       -0.00104158858067
C           -1.89416161783147       -0.22279709952240        0.00731259273858
O           -3.09659962499514       -0.26905657010596        0.01570832361782
N           -1.10146088320620       -1.35504999839567        0.00238769303264
C           -1.78310252462779       -2.63305295704250        0.00138951623073
H            3.54069764465824        1.33365533524789        1.00280719042405
H            3.84409381435788        1.20777315179881       -0.74776836748547
H            2.39996373867959        2.05588012212637       -0.14495450999998
H            4.07274606558100       -1.12528695384623       -0.01926065892501
H           -1.40422307223633        3.05148571296268        0.00667204589391
H           -2.68778193153124        2.18400566616722       -0.88892135277273
H           -2.70007574000257        2.17483521521203        0.87779771268268
H           -1.49969417090697       -3.21286821833598        0.88065142061604
H           -1.51228136168699       -3.20452891805382       -0.88733949356026
H           -2.85732917929063       -2.44495865776141        0.00964690835814
H            1.91235993693378       -2.51627442951187       -0.01450716335960
25
 energy: -42.095349737246 gnorm: 0.029526779928 xtb: 6.6.1 (8d0f1dd)
C            3.08701104429349        1.18024610722471        0.02477893632124
N            2.28501858540374       -0.05082621044519       -0.00765239006419
C            2.89150373601748       -1.19238093040148       -0.02406611184929
N            0.95866051195504       -2.39869641311952       -0.00963743674607
C            0.28356008210520       -1.30165959860949       -0.00290851433340
C            0.91048890263058       -0.00968296133623       -0.00196188312109
C            0.13045948424259        1.19691983088530       -0.01405834120236
O            0.58721907618766        2.33049664675457       -0.03839424730092
N           -1.23786715892447        1.00513738627608       -0.00016841301051
C           -2.08278593641914        2.18260958332245       -0.00115908442006
C           -1.89008427078664       -0.21969447543695        0.00800389796356
O           -3.09118332589272       -0.28038959286569        0.01698991378558
N           -1.08906277913275       -1.35112905164925        0.00286673055394
C           -1.75406059025774       -2.63859283532843        0.00171140415935
H            3.55183614889589        1.28945837266755        1.00460857660399
H            3.86017897909873        1.14974004823236       -0.74168372672693
H            2.42930884073880        2.03802621331409       -0.14788102867748
H            3.97553837320798       -1.27860659809184       -0.02122344508779
H           -1.43950500598255        3.06119926784236        0.00687288780739
H           -2.71620878730620        2.18495989302059       -0.88915531421859
H           -2.72879676081091        2.17503640122993        0.87752234194008
H           -1.46299215256290       -3.21340027985749        0.88182509117686
H           -1.47575075561819       -3.20515273819601       -0.88790833970720
H           -2.83036464167607       -2.46459025896769        0.01003850005395
H            2.00830991469317       -2.37078926486489       -0.01618838600008
25
 energy: -42.096919333862 gnorm: 0.021258006633 xtb: 6.6.1 (8d0f1dd)
C            3.09506663941002        1.15723450085538        0.02495362004937
N            2.27697772919548       -0.05516418837829       -0.00798056403011
C            2.85833145671692       -1.20264867799336       -0.02614741010688
N            0.97591484207204       -2.36436371755161       -0.01051820037242
C            0.27778635320169       -1.28462431117160       -0.00256964082554
C            0.90504389126006        0.00622369393693       -0.00146436571084
C            0.12445913931137        1.21736996206825       -0.01478583931513
O            0.58264781566454        2.34788267193174       -0.04035859925003
N           -1.24467997041532        1.01500406569374       -0.00017637667556
C           -2.10310363986729        2.18462197795565       -0.00136004813154
C           -1.88889390781822       -0.21337381180889        0.00886538139643
O           -3.08884857674941       -0.28385834532563        0.01856748765824
N           -1.08472499306280       -1.34565266784179        0.00362012799874
C           -1.73555905325321       -2.64124742757971        0.00231720081332
H            3.55953392884297        1.25631945903440        1.00630077963009
H            3.87349053377651        1.10575236118620       -0.73541777522198
H            2.45353172502680        2.02411699701979       -0.15202578267185
H            3.92820140716786       -1.35016459281603       -0.02140211292662
H           -1.46964424617384        3.07023013733163        0.00683252858447
H           -2.73716395385739        2.18167926765607       -0.88900352762537
H           -2.74993324890167        2.17143999287570        0.87675326160208
H           -1.43559880432608       -3.21094947789065        0.88279577380870
H           -1.44862113487300       -3.20257983918203       -0.88790661188526
H           -2.81301520684747       -2.48018677649594        0.01079236184202
H            2.04923278859951       -2.28482271191012       -0.01951005073434
25
 energy: -42.097672902137 gnorm: 0.015803620674 xtb: 6.6.1 (8d0f1dd)
C            3.10468196530741        1.14514012131506        0.02558148438510
N            2.27368197241639       -0.05275243198045       -0.00843794121014
C            2.85015668746199       -1.20099566703443       -0.02835862999323
N            0.96365725002661       -2.35551492794762       -0.01187058828094
C            0.27024703575568       -1.27610260201969       -0.00250842575231
C            0.90532191083474        0.01506250731435       -0.00099417466059
C            0.12154141776764        1.23082754816890       -0.01506311231887
O            0.57970243750934        2.35884296668366       -0.04146511518507
N           -1.24856029585441        1.02166158036194       -0.00010081104239
C           -2.11848616654191        2.18458676895546       -0.00200487666943
C           -1.89089181047320       -0.20601480685287        0.01003114786024
O           -3.09000471969432       -0.28429791546002        0.02048531029298
N           -1.08507965677508       -1.33910733436214        0.00475699792996
C           -1.72278577498914       -2.64191807982153        0.00338809781875
H            3.56761822543271        1.23801459665466        1.00864177478786
H            3.88795694253692        1.07781288958910       -0.72853875326274
H            2.47968833223187        2.02203516437639       -0.15624179144520
H            3.90934972057274       -1.39557317079681       -0.02180799377385
H           -1.49615488340735        3.07765606660854        0.00619597769123
H           -2.75297984932373        2.17389652431038       -0.88948182221555
H           -2.76619757917486        2.16400883801497        0.87550625453132
H           -1.41283594055546       -3.20662425374647        0.88357713318236
H           -1.42626720395344       -3.19811544615653       -0.88687285508177
H           -2.80133331969455       -2.49423068845320        0.01211093235785
H            2.05840481668350       -2.24005970612180       -0.02535660204561
25
 energy: -42.097904806411 gnorm: 0.012368376217 xtb: 6.6.1 (8d0f1dd)
C            3.11072321619315        1.14480880521365        0.02669479266089
N            2.27731581185418       -0.05005637887709       -0.00902890349818
C            2.87011317622779       -1.18999088844725       -0.03034410595666
N            0.93425832902684       -2.37018289651395       -0.01345085779758
C            0.26410020286720       -1.27784636044816       -0.00309019379309
C            0.90995964981020        0.01224821438975       -0.00115093081539
C            0.12243441582857        1.23020760036120       -0.01492010481707
O            0.58012422568989        2.35732526353623       -0.04116296130789
N           -1.24884077037610        1.02212807466550        0.00005976701288
C           -2.12225877032472        2.18319506169689       -0.00277097920505
C           -1.89606614476564       -0.20125454277636        0.01108511788031
O           -3.09493253399416       -0.28122232020265        0.02225978354602
N           -1.09093308821947       -1.33443774427766        0.00574451734499
C           -1.72126746939106       -2.64050837070254        0.00462994405437
H            3.57022444581885        1.23782967493220        1.01157987319113
H            3.89745063379547        1.07199262689759       -0.72272772983620
H            2.49584780946843        2.02712697638168       -0.16018695175762
H            3.92031108503058       -1.38640050588642       -0.02267845659548
H           -1.50640061347619        3.08013183847459        0.00522977702310
H           -2.75707875028115        2.16742384038649       -0.89013617092667
H           -2.77093014182184        2.15842670665805        0.87409772180233
H           -1.40411939229525       -3.20230392798907        0.88414250342265
H           -1.41820511895453       -3.19386483211159       -0.88520849168543
H           -2.80047010399441       -2.50162547983262        0.01374141392580
H            2.03907141038342       -2.24491189392861       -0.03123675597218
25
 energy: -42.098087257277 gnorm: 0.006097801636 xtb: 6.6.1 (8d0f1dd)
C            3.11366137337557        1.14258336678860        0.02759338375913
N            2.27483559781059       -0.05045452173394       -0.00963816771220
C            2.86349892365136       -1.19731557394931       -0.03236767135695
N            0.93802409170593       -2.36778900420032       -0.01495844834696
C            0.26356232343027       -1.27419288745371       -0.00388424911850
C            0.90837224137589        0.01562571272999       -0.00145549251698
C            0.12037399628179        1.23192719899640       -0.01469208964567
O            0.57828362013929        2.35855827226987       -0.04060326081769
N           -1.25110287874465        1.02232079115725        0.00026674714272
C           -2.12480095637708        2.18273180709461       -0.00321702505458
C           -1.89976943530923       -0.20038585899775        0.01178499888657
O           -3.09858313342514       -0.28189448261955        0.02357240657290
N           -1.09356005165645       -1.33269720038293        0.00620137160176
C           -1.71958868342513       -2.64037150168869        0.00548629533931
H            3.56895938878464        1.23739200991173        1.01430867216439
H            3.90364850513753        1.06694357304947       -0.71793770768792
H            2.50535730178541        2.02849375775899       -0.16383484888486
H            3.91452892511372       -1.40762615911563       -0.02431316615235
H           -1.51041403592701        3.08035437082524        0.00464307802086
H           -2.75925223758660        2.16495895240617       -0.89083108879690
H           -2.77374945150457        2.15659261478773        0.87341769795875
H           -1.39930699453344       -3.20084941706985        0.88472842100690
H           -1.41409961951743       -3.19263545228330       -0.88420443210038
H           -2.79938759315683       -2.50630839369452        0.01502420924032
H            2.05094029667166       -2.21772343298670       -0.03391801560168
