      -----------------------------------------------------------      
     |                   =====================                   |     
     |                           x T B                           |     
     |                   =====================                   |     
     |                         S. Grimme                         |     
     |          Mulliken Center for Theoretical Chemistry        |     
     |                    University of Bonn                     |     
      -----------------------------------------------------------      

   * xtb version 6.6.1 (8d0f1dd) compiled by 'conda@1efc2f54142f' on 2023-08-01

   xtb is free software: you can redistribute it and/or modify it under
   the terms of the GNU Lesser General Public License as published by
   the Free Software Foundation, either version 3 of the License, or
   (at your option) any later version.
   
   xtb is distributed in the hope that it will be useful,
   but WITHOUT ANY WARRANTY; without even the implied warranty of
   MERCHANTABILITY or FITNESS FOR A PARTICULAR PURPOSE.  See the
   GNU Lesser General Public License for more details.
   
   Cite this work as:
   * C. Bannwarth, E. Caldeweyher, S. Ehlert, A. Hansen, P. Pracht,
     J. Seibert, S. Spicher, S. Grimme, WIREs Comput. Mol. Sci., 2020, 11,
     e01493. DOI: 10.1002/wcms.1493
   
   for GFN2-xTB:
   * C. Bannwarth, S. Ehlert and S. Grimme., J. Chem. Theory Comput., 2019,
     15, 1652-1671. DOI: 10.1021/acs.jctc.8b01176
   for GFN1-xTB:
   * S. Grimme, C. Bannwarth, P. Shushkov, J. Chem. Theory Comput., 2017,
     13, 1989-2009. DOI: 10.1021/acs.jctc.7b00118
   for GFN0-xTB:
   * P. Pracht, E. Caldeweyher, S. Ehlert, S. Grimme, ChemRxiv, 2019, preprint.
     DOI: 10.26434/chemrxiv.8326202.v1
   for GFN-FF:
   * S. Spicher and S. Grimme, Angew. Chem. Int. Ed., 2020, 59, 15665-15673.
     DOI: 10.1002/anie.202004239
   
   for ALPB and GBSA implicit solvation:
   * S. Ehlert, M. Stahn, S. Spicher, S. Grimme, J. Chem. Theory Comput.,
     2021, 17, 4250-4261. DOI: 10.1021/acs.jctc.1c00471
   
   for DFT-D4:
   * E. Caldeweyher, C. Bannwarth and S. Grimme, J. Chem. Phys., 2017,
     147, 034112. DOI: 10.1063/1.4993215
   * E. Caldeweyher, S. Ehlert, A. Hansen, H. Neugebauer, S. Spicher,
     C. Bannwarth and S. Grimme, J. Chem. Phys., 2019, 150, 154122.
     DOI: 10.1063/1.5090222
   * E. Caldeweyher, J.-M. Mewes, S. Ehlert and S. Grimme, Phys. Chem. Chem. Phys.
     2020, 22, 8499-8512. DOI: 10.1039/D0CP00502A
   
   for sTDA-xTB:
   * S. Grimme and C. Bannwarth, J. Chem. Phys., 2016, 145, 054103.
     DOI: 10.1063/1.4959605
   
   in the mass-spec context:
   * V. Asgeirsson, C. Bauer and S. Grimme, Chem. Sci., 2017, 8, 4879.
     DOI: 10.1039/c7sc00601b
   * J. Koopman and S. Grimme, ACS Omega 2019, 4, 12, 15120-15133.
     DOI: 10.1021/acsomega.9b02011
   
   for metadynamics refer to:
   * S. Grimme, J. Chem. Theory Comput., 2019, 155, 2847-2862
     DOI: 10.1021/acs.jctc.9b00143
   
   for SPH calculations refer to:
   * S. Spicher and S. Grimme, J. Chem. Theory Comput., 2021, 17, 1701-1714
     DOI: 10.1021/acs.jctc.0c01306
   
   with help from (in alphabetical order)
   P. Atkinson, C. Bannwarth, F. Bohle, G. Brandenburg, E. Caldeweyher
   M. Checinski, S. Dohm, S. Ehlert, S. Ehrlich, I. Gerasimov, C. Hölzer
   A. Katbashev, J. Koopman, C. Lavigne, S. Lehtola, F. März, M. Müller,
   F. Musil, H. Neugebauer, J. Pisarek, C. Plett, P. Pracht, F. Pultar,
   J. Seibert, P. Shushkov, S. Spicher, M. Stahn, M. Steiner, T. Strunk,
   J. Stückrath, T. Rose, and J. Unsleber
   
 * started run on 2024/06/05 at 19:58:21.238     

           -------------------------------------------------
          |                Calculation Setup                |
           -------------------------------------------------

          program call               : xtb xtbopt.xyz --opt crude --input .xc2 --gfn2
          hostname                   : n-62-11-68
          coordinate file            : xtbopt.xyz
          omp threads                :                     1

   ID    Z sym.   atoms
    1    6 C      1, 3, 5-7, 10, 11, 14
    2    7 N      2, 4, 9, 13
    3    8 O      8, 12
    4    1 H      15-25

molecular fragmentation (1/2 indicates fragments):
1111111211111111112111111
# atoms in fragment 1/2:    23     2
 fragment masses (1/2) :      178.19       17.01
CMA distance (Bohr)    :   9.282
constraining FC (au)   :  0.0500
########################################################################
[WARNING] Please study the warnings concerning your input carefully
-1- readin_getIntValue: could not parse ''
########################################################################

           -------------------------------------------------
          |                 G F N 2 - x T B                 |
           -------------------------------------------------

        Reference                      10.1021/acs.jctc.8b01176
      * Hamiltonian:
        H0-scaling (s, p, d)           1.850000    2.230000    2.230000
        zeta-weighting                 0.500000
      * Dispersion:
        s8                             2.700000
        a1                             0.520000
        a2                             5.000000
        s9                             5.000000
      * Repulsion:
        kExp                           1.500000    1.000000
        rExp                           1.000000
      * Coulomb:
        alpha                          2.000000
        third order                    shell-resolved
        anisotropic                    true
        a3                             3.000000
        a5                             4.000000
        cn-shift                       1.200000
        cn-exp                         4.000000
        max-rad                        5.000000

q/qsh data taken from xtbrestart
CAMM data taken from xtbrestart

          ...................................................
          :                      SETUP                      :
          :.................................................:
          :  # basis functions                  67          :
          :  # atomic orbitals                  67          :
          :  # shells                           39          :
          :  # electrons                        74          :
          :  max. iterations                   250          :
          :  Hamiltonian                  GFN2-xTB          :
          :  restarted?                       true          :
          :  GBSA solvation                  false          :
          :  PC potential                    false          :
          :  electronic temp.         5000.0000000     K    :
          :  accuracy                    1.0000000          :
          :  -> integral cutoff          0.2500000E+02      :
          :  -> integral neglect         0.1000000E-07      :
          :  -> SCF convergence          0.1000000E-05 Eh   :
          :  -> wf. convergence          0.1000000E-03 e    :
          :  Broyden damping             0.4000000          :
          ...................................................

 iter      E             dE          RMSdq      gap      omega  full diag
   1    -42.5488489 -0.425488E+02  0.682E-05    0.49       0.0  T
   2    -42.5488489  0.689674E-09  0.138E-04    0.49     144.6  T
   3    -42.5488489 -0.580805E-09  0.708E-05    0.49     282.4  T

   *** convergence criteria satisfied after 3 iterations ***

         #    Occupation            Energy/Eh            Energy/eV
      -------------------------------------------------------------
         1        2.0000           -0.9098593             -24.7585
       ...           ...                  ...                  ...
        31        1.9995           -0.6166466             -16.7798
        32        1.9985           -0.5999107             -16.3244
        33        1.9973           -0.5903431             -16.0641
        34        1.9904           -0.5703311             -15.5195
        35        1.6730           -0.5117504             -13.9254
        36        1.6247           -0.5091047             -13.8534
        37        1.5615           -0.5060120             -13.7693 (HOMO)
        38        1.0691           -0.4880926             -13.2817 (LUMO)
        39        0.0739           -0.4342819             -11.8174
        40        0.0108           -0.4032403             -10.9727
        41        0.0025           -0.3797944             -10.3347
        42        0.0000           -0.2876876              -7.8284
       ...           ...                  ...                  ...
        67                          0.5276675              14.3586
      -------------------------------------------------------------
                  HL-Gap            0.0179193 Eh            0.4876 eV
             Fermi-level           -0.4859013 Eh          -13.2220 eV

 SCC (total)                   0 d,  0 h,  0 min,  0.022 sec
 SCC setup                      ...        0 min,  0.000 sec (  1.155%)
 Dispersion                     ...        0 min,  0.000 sec (  1.304%)
 classical contributions        ...        0 min,  0.000 sec (  0.373%)
 integral evaluation            ...        0 min,  0.005 sec ( 21.160%)
 iterations                     ...        0 min,  0.005 sec ( 24.414%)
 molecular gradient             ...        0 min,  0.011 sec ( 50.929%)
 printout                       ...        0 min,  0.000 sec (  0.634%)

         :::::::::::::::::::::::::::::::::::::::::::::::::::::
         ::                     SUMMARY                     ::
         :::::::::::::::::::::::::::::::::::::::::::::::::::::
         :: total energy             -42.034551223248 Eh    ::
         :: gradient norm              0.001806014150 Eh/a0 ::
         :: HOMO-LUMO gap              0.487609503635 eV    ::
         ::.................................................::
         :: SCC energy               -42.548848864169 Eh    ::
         :: -> isotropic ES            0.145749464226 Eh    ::
         :: -> anisotropic ES         -0.012342785998 Eh    ::
         :: -> anisotropic XC          0.015330520557 Eh    ::
         :: -> dispersion             -0.021549000563 Eh    ::
         :: repulsion energy           0.514232805667 Eh    ::
         :: add. restraining           0.000000000000 Eh    ::
         :: total charge               1.000000000000 e     ::
         :::::::::::::::::::::::::::::::::::::::::::::::::::::

      ----------------------------------------------------------- 
     |                   =====================                   |
     |                        A N C O P T                        |
     |                   =====================                   |
     |               Approximate Normal Coordinate               |
     |                Rational Function Optimizer                |
      ----------------------------------------------------------- 

          ...................................................
          :                      SETUP                      :
          :.................................................:
          :   optimization level             crude          :
          :   max. optcycles                   200          :
          :   ANC micro-cycles                  20          :
          :   degrees of freedom                69          :
          :.................................................:
          :   RF solver                   davidson          :
          :   write xtbopt.log                true          :
          :   linear?                        false          :
          :   energy convergence         0.5000000E-03 Eh   :
          :   grad. convergence          0.1000000E-01 Eh/α :
          :   maxmium RF displ.          1.0000000          :
          :   Hlow (freq-cutoff)         0.1000000E-01      :
          :   Hmax (freq-cutoff)         5.0000000          :
          :   S6 in model hess.         20.0000000          :
          ...................................................

generating ANC from model Hessian ...
Using Lindh-Hessian (1995)
 Shifting diagonal of input Hessian by    1.0083388782942369E-002
 Lowest  eigenvalues of input Hessian
    0.010000    0.000000    0.000000    0.000000    0.000000    0.000000
    0.000000    0.010090    0.010958    0.012727    0.015365    0.016634
    0.019526    0.020288    0.021065    0.022304    0.023472    0.027173
 Highest eigenvalues
    2.006709    2.119279    2.186875    2.223388    2.266415    2.495544


........................................................................
.............................. CYCLE    1 ..............................
........................................................................

 iter      E             dE          RMSdq      gap      omega  full diag
   1    -42.5488489 -0.425488E+02  0.357E-05    0.49       0.0  T
   2    -42.5488489  0.117929E-09  0.658E-05    0.49     304.0  T
   3    -42.5488489 -0.118924E-09  0.265E-05    0.49     754.3  T
     SCC iter.                  ...        0 min,  0.004 sec
     gradient                   ...        0 min,  0.011 sec
 * total energy  :   -42.0345512 Eh     change       -0.1423928E-09 Eh
   gradient norm :     0.0018059 Eh/α   predicted     0.0000000E+00 (-100.00%)
   displ. norm   :     0.0945872 α      lambda       -0.5437847E-04
   maximum displ.:     0.0617796 α      in ANC's #3, #2, #1, ...

   *** GEOMETRY OPTIMIZATION CONVERGED AFTER 1 ITERATIONS ***

------------------------------------------------------------------------
 total energy gain   :        -0.0000000 Eh       -0.0000 kcal/mol
 total RMSD          :         0.0000001 a0        0.0000 Å
 total power (kW/mol):        -0.0000004 (step)   -0.0000 (real)
------------------------------------------------------------------------

 ANCopt (total)                0 d,  0 h,  0 min,  0.027 sec
 optimizer setup                ...        0 min,  0.000 sec (  1.204%)
 model hessian                  ...        0 min,  0.005 sec ( 17.013%)
 ANC generation                 ...        0 min,  0.001 sec (  2.663%)
 coordinate transformation      ...        0 min,  0.000 sec (  0.028%)
 single point calculation       ...        0 min,  0.020 sec ( 73.271%)
 optimization log               ...        0 min,  0.001 sec (  4.869%)
 hessian update                 ...        0 min,  0.000 sec (  0.002%)
 rational function              ...        0 min,  0.000 sec (  0.664%)

================
 final structure:
================
25
 xtb: 6.6.1 (8d0f1dd)
C            3.14360910032823        1.03640605239167        0.06464378484049
N            2.25421824594517       -0.09066321502257        0.02404240394944
C            2.56832227443441       -1.38158343588179       -0.01886209240920
N            1.44351880859244       -2.13629589505864       -0.03226126262230
C            0.37610476583444       -1.29627995519650        0.00642767258523
C            0.88009163600930        0.01707046215703        0.04210859396119
C            0.05425524600884        1.12435620292356        0.06029337443935
O           -0.85414594062789        4.33081409421419       -0.08414379356080
N           -1.27790074549494        0.86326543650800        0.05764927833799
C           -2.13996222024788        1.86832374669798        0.05318669187693
C           -1.84775996799213       -0.48217789276461        0.05419692872236
O           -3.03392953571094       -0.64069191203427        0.08084873686666
N           -0.95170923563821       -1.54197900436230        0.01264042314291
C           -1.47239104392782       -2.89805391009898       -0.03024515469441
H            3.49008219319179        1.21246238257834        1.08508388934672
H            4.00551873330624        0.86504721338558       -0.57820998017477
H            2.59392656449072        1.91627921101292       -0.26860234915755
H            3.56324378666400       -1.78079701454529       -0.04372334597576
H           -1.30570657937779        5.13287409893229       -0.35155879793054
H           -3.19546542623988        1.65415183213919        0.04938092180716
H           -1.71528558785316        2.89145797737780        0.03405029263247
H           -1.09438635087153       -3.47488954272821        0.81407495782424
H           -1.19493071891565       -3.37957200018033       -0.96886011437072
H           -2.55795409424649       -2.84429839245774        0.03288005626265
H            1.42906760643210       -3.14698799835881       -0.06386949780436

 Bond Distances (Angstroems)
 ---------------------------
C1-N2=1.4363         C1-H15=1.0919        C1-H16=1.0888        C1-H17=1.0897        N2-C1=1.4363         N2-C3=1.3293         
N2-C6=1.3785         C3-N2=1.3293         C3-N4=1.3546         C3-H18=1.0723        N4-C3=1.3546         N4-C5=1.3589         
N4-H25=1.0113        C5-N4=1.3589         C5-C6=1.4072         C5-N13=1.3504        C6-N2=1.3785         C6-C5=1.4072         
C6-C7=1.3815         C7-C6=1.3815         C7-N9=1.3575         O8-H19=0.9585        N9-C7=1.3575         N9-C10=1.3241        
N9-C11=1.4612        C10-N9=1.3241        C10-H20=1.0770       C10-H21=1.1079       C11-N9=1.4612        C11-O12=1.1970       
C11-N13=1.3885       O12-C11=1.1970       N13-C5=1.3504        N13-C11=1.3885       N13-C14=1.4532       C14-N13=1.4532       
C14-H22=1.0902       C14-H23=1.0908       C14-H24=1.0887       H15-C1=1.0919        H16-C1=1.0888        H17-C1=1.0897        
H18-C3=1.0723        H19-O8=0.9585        H20-C10=1.0770       H21-C10=1.1079       H22-C14=1.0902       H23-C14=1.0908       
H24-C14=1.0887       H25-N4=1.0113        
 C  H  Rav=1.0886 sigma=0.0094  Rmin=1.0723  Rmax=1.1079     9
 C  C  Rav=1.3943 sigma=0.0129  Rmin=1.3815  Rmax=1.4072     2
 N  H  Rav=1.0113 sigma=0.0000  Rmin=1.0113  Rmax=1.0113     1
 N  C  Rav=1.3811 sigma=0.0461  Rmin=1.3241  Rmax=1.4612    11
 O  H  Rav=0.9585 sigma=0.0000  Rmin=0.9585  Rmax=0.9585     1
 O  C  Rav=1.1970 sigma=0.0000  Rmin=1.1970  Rmax=1.1970     1

 selected bond angles (degree)
 --------------------
H15-C1-N2=110.45               H16-C1-N2=110.49               H16-C1-H15=109.02              H17-C1-N2=108.22               
H17-C1-H15=108.40              H17-C1-H16=110.23              C3-N2-C1=128.07                C6-N2-C1=123.75                
C6-N2-C3=108.17                N4-C3-N2=110.19                H18-C3-N2=125.56               H18-C3-N4=124.25               
C5-N4-C3=107.91                H25-N4-C3=124.68               H25-N4-C5=127.41               C6-C5-N4=107.24                
N13-C5-N4=131.30               N13-C5-C6=121.46               C5-C6-N2=106.48                C7-C6-N2=131.20                
C7-C6-C5=122.30                N9-C7-C6=115.62                C10-N9-C7=119.53               C11-N9-C7=124.04               
C11-N9-C10=116.42              H20-C10-N9=119.15              H21-C10-N9=116.84              H21-C10-H20=124.00             

 selected dihedral angles (degree)
 ---------------------------------
C3-N2-C1-H15=278.08           C3-N2-C1-H16= 38.79           C3-N2-C1-H17=159.57           C6-N2-C1-H15= 97.18           
C6-N2-C1-H16=217.89           C6-N2-C1-H17=338.66           N4-C3-N2-C1=179.31            N4-C3-N2-C6=  0.11            
H18-C3-N2-C1=359.08           H18-C3-N2-C6=179.87           C5-N4-C3-N2=359.86            C5-N4-C3-H18=180.10           
H25-N4-C3-N2=179.98           H25-N4-C3-H18=  0.21          C6-C5-N4-C3=  0.11            C6-C5-N4-H25=179.99           
N13-C5-N4-C3=180.04           N13-C5-N4-H25=359.92          C5-C6-N2-C1=180.71            C5-C6-N2-C3=359.96            
C7-C6-N2-C1=  2.11            C7-C6-N2-C3=181.36            N2-C6-C5-N4=359.96            N2-C6-C5-N13=180.02           
C7-C6-C5-N4=178.72            C7-C6-C5-N13=358.78           N9-C7-C6-N2=179.18            N9-C7-C6-C5=  0.76            
C10-N9-C7-C6=181.05           C11-N9-C7-C6=  0.80           H20-C10-N9-C7=179.89          H20-C10-N9-C11=  0.12         
H21-C10-N9-C7=  1.03          H21-C10-N9-C11=181.26         

 CMA Distance (Angstroems)
 ---------------------------
R(CMA):  4.9118
           -------------------------------------------------
          |                Final Singlepoint                |
           -------------------------------------------------

          ...................................................
          :                      SETUP                      :
          :.................................................:
          :  # basis functions                  67          :
          :  # atomic orbitals                  67          :
          :  # shells                           39          :
          :  # electrons                        74          :
          :  max. iterations                   250          :
          :  Hamiltonian                  GFN2-xTB          :
          :  restarted?                      false          :
          :  GBSA solvation                  false          :
          :  PC potential                    false          :
          :  electronic temp.         5000.0000000     K    :
          :  accuracy                    1.0000000          :
          :  -> integral cutoff          0.2500000E+02      :
          :  -> integral neglect         0.1000000E-07      :
          :  -> SCF convergence          0.1000000E-05 Eh   :
          :  -> wf. convergence          0.1000000E-03 e    :
          :  Broyden damping             0.4000000          :
          ...................................................

 iter      E             dE          RMSdq      gap      omega  full diag
   1    -42.5488489 -0.425488E+02  0.260E-05    0.49       0.0  T
   2    -42.5488489  0.389193E-09  0.971E-05    0.49     206.0  T
   3    -42.5488489 -0.407617E-09  0.108E-05    0.49    1851.5  T

   *** convergence criteria satisfied after 3 iterations ***

         #    Occupation            Energy/Eh            Energy/eV
      -------------------------------------------------------------
         1        2.0000           -0.9098595             -24.7585
       ...           ...                  ...                  ...
        31        1.9995           -0.6166467             -16.7798
        32        1.9985           -0.5999107             -16.3244
        33        1.9973           -0.5903427             -16.0640
        34        1.9904           -0.5703312             -15.5195
        35        1.6730           -0.5117497             -13.9254
        36        1.6247           -0.5091046             -13.8534
        37        1.5615           -0.5060115             -13.7693 (HOMO)
        38        1.0691           -0.4880927             -13.2817 (LUMO)
        39        0.0739           -0.4342821             -11.8174
        40        0.0108           -0.4032404             -10.9727
        41        0.0025           -0.3797945             -10.3347
        42        0.0000           -0.2876877              -7.8284
       ...           ...                  ...                  ...
        67                          0.5276674              14.3586
      -------------------------------------------------------------
                  HL-Gap            0.0179188 Eh            0.4876 eV
             Fermi-level           -0.4859011 Eh          -13.2220 eV

 SCC (total)                   0 d,  0 h,  0 min,  0.020 sec
 SCC setup                      ...        0 min,  0.000 sec (  0.899%)
 Dispersion                     ...        0 min,  0.000 sec (  0.817%)
 classical contributions        ...        0 min,  0.000 sec (  0.320%)
 integral evaluation            ...        0 min,  0.004 sec ( 20.168%)
 iterations                     ...        0 min,  0.004 sec ( 21.971%)
 molecular gradient             ...        0 min,  0.011 sec ( 55.235%)
 printout                       ...        0 min,  0.000 sec (  0.557%)

         :::::::::::::::::::::::::::::::::::::::::::::::::::::
         ::                     SUMMARY                     ::
         :::::::::::::::::::::::::::::::::::::::::::::::::::::
         :: total energy             -42.034551223414 Eh    ::
         :: gradient norm              0.001805920440 Eh/a0 ::
         :: HOMO-LUMO gap              0.487596010653 eV    ::
         ::.................................................::
         :: SCC energy               -42.548848864334 Eh    ::
         :: -> isotropic ES            0.145745395830 Eh    ::
         :: -> anisotropic ES         -0.012342719212 Eh    ::
         :: -> anisotropic XC          0.015330450850 Eh    ::
         :: -> dispersion             -0.021549016560 Eh    ::
         :: repulsion energy           0.514232805667 Eh    ::
         :: add. restraining           0.000000000000 Eh    ::
         :: total charge               1.000000000000 e     ::
         :::::::::::::::::::::::::::::::::::::::::::::::::::::

           -------------------------------------------------
          |                Property Printout                |
           -------------------------------------------------

    * Orbital Energies and Occupations

         #    Occupation            Energy/Eh            Energy/eV
      -------------------------------------------------------------
         1        2.0000           -0.9098595             -24.7585
       ...           ...                  ...                  ...
        25        2.0000           -0.6583068             -17.9134
        26        2.0000           -0.6574643             -17.8905
        27        1.9998           -0.6349249             -17.2772
        28        1.9998           -0.6301821             -17.1481
        29        1.9997           -0.6276605             -17.0795
        30        1.9996           -0.6216685             -16.9165
        31        1.9995           -0.6166467             -16.7798
        32        1.9985           -0.5999107             -16.3244
        33        1.9973           -0.5903427             -16.0640
        34        1.9904           -0.5703312             -15.5195
        35        1.6730           -0.5117497             -13.9254
        36        1.6247           -0.5091046             -13.8534
        37        1.5615           -0.5060115             -13.7693 (HOMO)
        38        1.0691           -0.4880927             -13.2817 (LUMO)
        39        0.0739           -0.4342821             -11.8174
        40        0.0108           -0.4032404             -10.9727
        41        0.0025           -0.3797945             -10.3347
        42        0.0000           -0.2876877              -7.8284
        43                         -0.2080100              -5.6602
        44                         -0.1966991              -5.3525
        45                         -0.1520606              -4.1378
        46                         -0.1196964              -3.2571
        47                         -0.0805561              -2.1920
        48                         -0.0572741              -1.5585
       ...                                ...                  ...
        67                          0.5276674              14.3586
      -------------------------------------------------------------
                  HL-Gap            0.0179188 Eh            0.4876 eV
             Fermi-level           -0.4859011 Eh          -13.2220 eV

     #   Z          covCN         q      C6AA      α(0)
     1   6 C        3.692    -0.093    22.465     6.782
     2   7 N        2.825     0.072    19.986     6.640
     3   6 C        3.050     0.052    26.778     8.487
     4   7 N        2.780    -0.055    22.308     7.015
     5   6 C        3.046     0.101    25.728     8.319
     6   6 C        3.108     0.029    27.221     8.548
     7   6 C        1.951    -0.093    33.637     9.366
     8   8 O        0.806    -0.523    24.326     6.611
     9   7 N        2.749     0.070    20.032     6.647
    10   6 C        2.828    -0.029    28.705     8.779
    11   6 C        2.735     0.303    21.850     7.653
    12   8 O        0.858    -0.335    20.422     6.059
    13   7 N        2.736    -0.035    21.928     6.955
    14   6 C        3.698    -0.073    22.068     6.719
    15   1 H        0.924     0.112     1.680     2.027
    16   1 H        0.925     0.104     1.749     2.068
    17   1 H        0.925     0.130     1.535     1.938
    18   1 H        0.926     0.121     1.604     1.981
    19   1 H        0.806     0.287     0.763     1.372
    20   1 H        0.926     0.130     1.536     1.938
    21   1 H        0.922     0.204     1.081     1.626
    22   1 H        0.925     0.085     1.926     2.170
    23   1 H        0.924     0.087     1.913     2.163
    24   1 H        0.925     0.125     1.575     1.963
    25   1 H        0.860     0.226     0.984     1.554

 Mol. C6AA /au·bohr⁶  :       6666.383681
 Mol. C8AA /au·bohr⁸  :     154526.507866
 Mol. α(0) /au        :        125.379851


Wiberg/Mayer (AO) data.
largest (>0.10) Wiberg bond orders for each atom

 ---------------------------------------------------------------------------
     #   Z sym  total        # sym  WBO       # sym  WBO       # sym  WBO
 ---------------------------------------------------------------------------
     1   6 C    3.918 --     2 N    0.989    16 H    0.968    17 H    0.964
                            15 H    0.952
     2   7 N    3.649 --     3 C    1.387     6 C    1.125     1 C    0.989
     3   6 C    3.814 --     2 N    1.387     4 N    1.268    18 H    0.953
     4   7 N    3.592 --     3 C    1.268     5 C    1.205    25 H    0.919
     5   6 C    3.818 --     6 C    1.239     4 N    1.205    13 N    1.195
     6   6 C    3.911 --     7 C    1.324     5 C    1.239     2 N    1.125
     7   6 C    2.695 --     6 C    1.324     9 N    1.202
     8   8 O    1.022 --    19 H    0.914
     9   7 N    3.710 --    10 C    1.407     7 C    1.202    11 C    0.944
    10   6 C    3.348 --     9 N    1.407    20 H    0.955    21 H    0.847
    11   6 C    3.897 --    12 O    1.738    13 N    1.113     9 N    0.944
    12   8 O    2.046 --    11 C    1.738    13 N    0.142
    13   7 N    3.567 --     5 C    1.195    11 C    1.113    14 C    0.968
                            12 O    0.142
    14   6 C    3.920 --    22 H    0.971    23 H    0.970    13 N    0.968
                            24 H    0.966
    15   1 H    0.981 --     1 C    0.952
    16   1 H    0.986 --     1 C    0.968
    17   1 H    0.982 --     1 C    0.964
    18   1 H    0.984 --     3 C    0.953
    19   1 H    0.917 --     8 O    0.914
    20   1 H    0.977 --    10 C    0.955
    21   1 H    0.954 --    10 C    0.847
    22   1 H    0.990 --    14 C    0.971
    23   1 H    0.990 --    14 C    0.970
    24   1 H    0.984 --    14 C    0.966
    25   1 H    0.947 --     4 N    0.919
 ---------------------------------------------------------------------------

Topologies differ in total number of bonds
Writing topology from bond orders to xtbtopo.mol

molecular dipole:
                 x           y           z       tot (Debye)
 q only:        2.350      -2.524      -0.115
   full:        2.417      -3.028      -0.182       9.857
molecular quadrupole (traceless):
                xx          xy          yy          xz          yz          zz
 q only:       13.185      -8.022       6.281       0.866      -1.037     -19.465
  q+dip:       10.501     -13.491       9.790       1.138      -1.950     -20.292
   full:        9.187     -12.907       8.715       1.197      -1.975     -17.902

           -------------------------------------------------
          |                Geometry Summary                 |
           -------------------------------------------------

      molecular mass/u    :      195.1988581
   center of mass at/Å    :       -0.0964619      -0.0347638       0.0171044
  moments of inertia/u·Å² :        0.6477208E+03   0.7778567E+03   0.1418051E+04
rotational constants/cm⁻¹ :        0.2602608E-01   0.2167190E-01   0.1188789E-01

 * 22 selected distances

     #   Z          #   Z                                           value/Å
     1   6 C        2   7 N                                       1.4362974
     2   7 N        3   6 C                                       1.3292771
     3   6 C        4   7 N                                       1.3546046
     4   7 N        5   6 C                                       1.3588586
     2   7 N        6   6 C                                       1.3784619
     5   6 C        6   6 C                                       1.4071836
     6   6 C        7   6 C                                       1.3814552
     7   6 C        9   7 N                                       1.3575033
     9   7 N       10   6 C                                       1.3241270
    11   6 C       12   8 O                                       1.1970111
     5   6 C       13   7 N                                       1.3503692
    11   6 C       13   7 N                                       1.3884569
    13   7 N       14   6 C                                       1.4532337 (max)
     1   6 C       15   1 H                                       1.0919422
     1   6 C       16   1 H                                       1.0888128
     1   6 C       17   1 H                                       1.0896701
     3   6 C       18   1 H                                       1.0723146
    10   6 C       20   1 H                                       1.0770196
    14   6 C       22   1 H                                       1.0901851
    14   6 C       23   1 H                                       1.0907989
    14   6 C       24   1 H                                       1.0887249
     4   7 N       25   1 H                                       1.0112896 (min)

 * 5 distinct bonds (by element types)

   Z      Z             #   av. dist./Å        max./Å        min./Å
   1 H    6 C           8     1.0861835     1.0919422     1.0723146
   6 C    6 C           2     1.3943194     1.4071836     1.3814552
   1 H    7 N           1     1.0112896     1.0112896     1.0112896
   6 C    7 N          10     1.3731190     1.4532337     1.3241270
   6 C    8 O           1     1.1970111     1.1970111     1.1970111


optimized geometry written to: xtbopt.xyz


           -------------------------------------------------
          | TOTAL ENERGY              -42.034551223414 Eh   |
          | GRADIENT NORM               0.001805920440 Eh/α |
          | HOMO-LUMO GAP               0.487596010653 eV   |
           -------------------------------------------------

------------------------------------------------------------------------
 * finished run on 2024/06/05 at 19:58:21.341     
------------------------------------------------------------------------
 total:
 * wall-time:     0 d,  0 h,  0 min,  0.103 sec
 *  cpu-time:     0 d,  0 h,  0 min,  0.081 sec
 * ratio c/w:     0.784 speedup
 SCF:
 * wall-time:     0 d,  0 h,  0 min,  0.022 sec
 *  cpu-time:     0 d,  0 h,  0 min,  0.022 sec
 * ratio c/w:     1.000 speedup
 ANC optimizer:
 * wall-time:     0 d,  0 h,  0 min,  0.052 sec
 *  cpu-time:     0 d,  0 h,  0 min,  0.047 sec
 * ratio c/w:     0.900 speedup

