      -----------------------------------------------------------      
     |                   =====================                   |     
     |                           x T B                           |     
     |                   =====================                   |     
     |                         S. Grimme                         |     
     |          Mulliken Center for Theoretical Chemistry        |     
     |                    University of Bonn                     |     
      -----------------------------------------------------------      

   * xtb version 6.6.1 (8d0f1dd) compiled by 'conda@1efc2f54142f' on 2023-08-01

   xtb is free software: you can redistribute it and/or modify it under
   the terms of the GNU Lesser General Public License as published by
   the Free Software Foundation, either version 3 of the License, or
   (at your option) any later version.
   
   xtb is distributed in the hope that it will be useful,
   but WITHOUT ANY WARRANTY; without even the implied warranty of
   MERCHANTABILITY or FITNESS FOR A PARTICULAR PURPOSE.  See the
   GNU Lesser General Public License for more details.
   
   Cite this work as:
   * C. Bannwarth, E. Caldeweyher, S. Ehlert, A. Hansen, P. Pracht,
     J. Seibert, S. Spicher, S. Grimme, WIREs Comput. Mol. Sci., 2020, 11,
     e01493. DOI: 10.1002/wcms.1493
   
   for GFN2-xTB:
   * C. Bannwarth, S. Ehlert and S. Grimme., J. Chem. Theory Comput., 2019,
     15, 1652-1671. DOI: 10.1021/acs.jctc.8b01176
   for GFN1-xTB:
   * S. Grimme, C. Bannwarth, P. Shushkov, J. Chem. Theory Comput., 2017,
     13, 1989-2009. DOI: 10.1021/acs.jctc.7b00118
   for GFN0-xTB:
   * P. Pracht, E. Caldeweyher, S. Ehlert, S. Grimme, ChemRxiv, 2019, preprint.
     DOI: 10.26434/chemrxiv.8326202.v1
   for GFN-FF:
   * S. Spicher and S. Grimme, Angew. Chem. Int. Ed., 2020, 59, 15665-15673.
     DOI: 10.1002/anie.202004239
   
   for ALPB and GBSA implicit solvation:
   * S. Ehlert, M. Stahn, S. Spicher, S. Grimme, J. Chem. Theory Comput.,
     2021, 17, 4250-4261. DOI: 10.1021/acs.jctc.1c00471
   
   for DFT-D4:
   * E. Caldeweyher, C. Bannwarth and S. Grimme, J. Chem. Phys., 2017,
     147, 034112. DOI: 10.1063/1.4993215
   * E. Caldeweyher, S. Ehlert, A. Hansen, H. Neugebauer, S. Spicher,
     C. Bannwarth and S. Grimme, J. Chem. Phys., 2019, 150, 154122.
     DOI: 10.1063/1.5090222
   * E. Caldeweyher, J.-M. Mewes, S. Ehlert and S. Grimme, Phys. Chem. Chem. Phys.
     2020, 22, 8499-8512. DOI: 10.1039/D0CP00502A
   
   for sTDA-xTB:
   * S. Grimme and C. Bannwarth, J. Chem. Phys., 2016, 145, 054103.
     DOI: 10.1063/1.4959605
   
   in the mass-spec context:
   * V. Asgeirsson, C. Bauer and S. Grimme, Chem. Sci., 2017, 8, 4879.
     DOI: 10.1039/c7sc00601b
   * J. Koopman and S. Grimme, ACS Omega 2019, 4, 12, 15120-15133.
     DOI: 10.1021/acsomega.9b02011
   
   for metadynamics refer to:
   * S. Grimme, J. Chem. Theory Comput., 2019, 155, 2847-2862
     DOI: 10.1021/acs.jctc.9b00143
   
   for SPH calculations refer to:
   * S. Spicher and S. Grimme, J. Chem. Theory Comput., 2021, 17, 1701-1714
     DOI: 10.1021/acs.jctc.0c01306
   
   with help from (in alphabetical order)
   P. Atkinson, C. Bannwarth, F. Bohle, G. Brandenburg, E. Caldeweyher
   M. Checinski, S. Dohm, S. Ehlert, S. Ehrlich, I. Gerasimov, C. Hölzer
   A. Katbashev, J. Koopman, C. Lavigne, S. Lehtola, F. März, M. Müller,
   F. Musil, H. Neugebauer, J. Pisarek, C. Plett, P. Pracht, F. Pultar,
   J. Seibert, P. Shushkov, S. Spicher, M. Stahn, M. Steiner, T. Strunk,
   J. Stückrath, T. Rose, and J. Unsleber
   
 * started run on 2024/06/05 at 19:59:20.577     

           -------------------------------------------------
          |                Calculation Setup                |
           -------------------------------------------------

          program call               : xtb struc.xyz --opt loose --input .xc1 --gfn2
          hostname                   : n-62-31-11
          coordinate file            : struc.xyz
          omp threads                :                     1

   ID    Z sym.   atoms
    1    6 C      1, 3, 5-7, 10, 11, 14
    2    7 N      2, 4, 9, 13
    3    8 O      8, 12
    4    1 H      15-25
constraining bond 20 21 to    3.2800000 Å, actual value:    1.7685310 Å

           -------------------------------------------------
          |                 G F N 2 - x T B                 |
           -------------------------------------------------

        Reference                      10.1021/acs.jctc.8b01176
      * Hamiltonian:
        H0-scaling (s, p, d)           1.850000    2.230000    2.230000
        zeta-weighting                 0.500000
      * Dispersion:
        s8                             2.700000
        a1                             0.520000
        a2                             5.000000
        s9                             5.000000
      * Repulsion:
        kExp                           1.500000    1.000000
        rExp                           1.000000
      * Coulomb:
        alpha                          2.000000
        third order                    shell-resolved
        anisotropic                    true
        a3                             3.000000
        a5                             4.000000
        cn-shift                       1.200000
        cn-exp                         4.000000
        max-rad                        5.000000


          ...................................................
          :                      SETUP                      :
          :.................................................:
          :  # basis functions                  67          :
          :  # atomic orbitals                  67          :
          :  # shells                           39          :
          :  # electrons                        74          :
          :  max. iterations                   250          :
          :  Hamiltonian                  GFN2-xTB          :
          :  restarted?                      false          :
          :  GBSA solvation                  false          :
          :  PC potential                    false          :
          :  electronic temp.         5000.0000000     K    :
          :  accuracy                    1.0000000          :
          :  -> integral cutoff          0.2500000E+02      :
          :  -> integral neglect         0.1000000E-07      :
          :  -> SCF convergence          0.1000000E-05 Eh   :
          :  -> wf. convergence          0.1000000E-03 e    :
          :  Broyden damping             0.4000000          :
          ...................................................

 iter      E             dE          RMSdq      gap      omega  full diag
   1    -42.5894031 -0.425894E+02  0.445E+00    3.52       0.0  T
   2    -42.7683054 -0.178902E+00  0.251E+00    3.36       1.0  T
   3    -42.7759211 -0.761567E-02  0.147E+00    3.35       1.0  T
   4    -42.7728404  0.308066E-02  0.553E-01    3.33       1.0  T
   5    -42.7789548 -0.611444E-02  0.112E-01    3.35       1.0  T
   6    -42.7790473 -0.924914E-04  0.614E-02    3.33       1.0  T
   7    -42.7790721 -0.247928E-04  0.258E-02    3.34       1.0  T
   8    -42.7790772 -0.508996E-05  0.938E-03    3.34       2.1  T
   9    -42.7790779 -0.669422E-06  0.448E-03    3.34       4.5  T
  10    -42.7790780 -0.821510E-07  0.115E-03    3.34      17.4  T
  11    -42.7790780 -0.322663E-08  0.553E-04    3.34      36.2  T
  12    -42.7790780 -0.287051E-08  0.180E-04    3.34     111.1  T

   *** convergence criteria satisfied after 12 iterations ***

         #    Occupation            Energy/Eh            Energy/eV
      -------------------------------------------------------------
         1        2.0000           -0.9185990             -24.9964
       ...           ...                  ...                  ...
        31        1.9996           -0.6230278             -16.9534
        32        1.9995           -0.6194601             -16.8564
        33        1.9979           -0.5974976             -16.2587
        34        1.9932           -0.5789629             -15.7544
        35        1.9817           -0.5631863             -15.3251
        36        1.9779           -0.5602245             -15.2445
        37        1.9748           -0.5581234             -15.1873 (HOMO)
        38        0.0652           -0.4353579             -11.8467 (LUMO)
        39        0.0099           -0.4050467             -11.0219
        40        0.0013           -0.3732218             -10.1559
        41        0.0000           -0.2886859              -7.8555
        42                         -0.2065804              -5.6213
       ...                                ...                  ...
        67                          0.5625656              15.3082
      -------------------------------------------------------------
                  HL-Gap            0.1227656 Eh            3.3406 eV
             Fermi-level           -0.4890455 Eh          -13.3076 eV

 SCC (total)                   0 d,  0 h,  0 min,  0.037 sec
 SCC setup                      ...        0 min,  0.000 sec (  0.660%)
 Dispersion                     ...        0 min,  0.000 sec (  0.783%)
 classical contributions        ...        0 min,  0.000 sec (  0.215%)
 integral evaluation            ...        0 min,  0.005 sec ( 13.595%)
 iterations                     ...        0 min,  0.017 sec ( 46.802%)
 molecular gradient             ...        0 min,  0.014 sec ( 37.529%)
 printout                       ...        0 min,  0.000 sec (  0.384%)

         :::::::::::::::::::::::::::::::::::::::::::::::::::::
         ::                     SUMMARY                     ::
         :::::::::::::::::::::::::::::::::::::::::::::::::::::
         :: total energy             -34.089625086026 Eh    ::
         :: gradient norm              8.078866531959 Eh/a0 ::
         :: HOMO-LUMO gap              3.340621582928 eV    ::
         ::.................................................::
         :: SCC energy               -42.779077977399 Eh    ::
         :: -> isotropic ES            0.141123876439 Eh    ::
         :: -> anisotropic ES         -0.005230418907 Eh    ::
         :: -> anisotropic XC          0.011966818540 Eh    ::
         :: -> dispersion             -0.022657731803 Eh    ::
         :: repulsion energy           0.531105277918 Eh    ::
         :: add. restraining           8.158233454446 Eh    ::
         :: total charge               1.000000000002 e     ::
         :::::::::::::::::::::::::::::::::::::::::::::::::::::

      ----------------------------------------------------------- 
     |                   =====================                   |
     |                        A N C O P T                        |
     |                   =====================                   |
     |               Approximate Normal Coordinate               |
     |                Rational Function Optimizer                |
      ----------------------------------------------------------- 

          ...................................................
          :                      SETUP                      :
          :.................................................:
          :   optimization level             loose          :
          :   max. optcycles                   200          :
          :   ANC micro-cycles                  20          :
          :   degrees of freedom                69          :
          :.................................................:
          :   RF solver                   davidson          :
          :   write xtbopt.log                true          :
          :   linear?                        false          :
          :   energy convergence         0.5000000E-04 Eh   :
          :   grad. convergence          0.4000000E-02 Eh/α :
          :   maxmium RF displ.          1.0000000          :
          :   Hlow (freq-cutoff)         0.1000000E-01      :
          :   Hmax (freq-cutoff)         5.0000000          :
          :   S6 in model hess.         20.0000000          :
          ...................................................

generating ANC from model Hessian ...
Using Lindh-Hessian (1995)
 Shifting diagonal of input Hessian by    3.3117798024632843     
 Lowest  eigenvalues of input Hessian
    0.010000    0.078485    0.000000    0.000000    0.000000    0.000000
    0.000000    0.000000    3.314672    3.318818    3.320356    3.321046
    3.323097    3.323357    3.325782    3.330502    3.334254    3.338385
 Highest eigenvalues
    5.460490    5.537780    5.596828    5.728448    5.853714    7.646140


........................................................................
.............................. CYCLE    1 ..............................
........................................................................

 iter      E             dE          RMSdq      gap      omega  full diag
   1    -42.7790780 -0.427791E+02  0.626E-05    3.34       0.0  T
   2    -42.7790780 -0.124416E-10  0.329E-05    3.34     607.4  T
   3    -42.7790780  0.127898E-12  0.193E-05    3.34    1034.2  T
     SCC iter.                  ...        0 min,  0.005 sec
     gradient                   ...        0 min,  0.014 sec
 * total energy  :   -34.0896251 Eh     change       -0.6650680E-10 Eh
   gradient norm :     8.0788663 Eh/α   predicted     0.0000000E+00 (-100.00%)
   displ. norm   :     0.7375894 α      lambda       -0.5956867E+01
   maximum displ.:     0.7346383 α      in ANC's #60, #50, #52, ...

........................................................................
.............................. CYCLE    2 ..............................
........................................................................

 iter      E             dE          RMSdq      gap      omega  full diag
   1    -42.7021716 -0.427022E+02  0.828E-01    3.29       0.0  T
   2    -42.7030031 -0.831523E-03  0.466E-01    3.33       1.0  T
   3    -42.7028850  0.118039E-03  0.169E-01    3.22       1.0  T
   4    -42.7031191 -0.234035E-03  0.210E-02    3.28       1.0  T
   5    -42.7031237 -0.463958E-05  0.112E-02    3.27       1.8  T
   6    -42.7031239 -0.144870E-06  0.581E-03    3.27       3.4  T
   7    -42.7031243 -0.436424E-06  0.167E-03    3.27      12.0  T
   8    -42.7031243 -0.229498E-07  0.634E-04    3.27      31.6  T
   9    -42.7031243 -0.353700E-08  0.118E-04    3.27     169.7  T
     SCC iter.                  ...        0 min,  0.012 sec
     gradient                   ...        0 min,  0.014 sec
 * total energy  :   -38.9133986 Eh     change       -0.4823774E+01 Eh
   gradient norm :     5.0262252 Eh/α   predicted    -0.4600270E+01 (  -4.63%)
   displ. norm   :     0.6699149 α      lambda       -0.3366704E+01
   maximum displ.:     0.6661970 α      in ANC's #60, #50, #52, ...

........................................................................
.............................. CYCLE    3 ..............................
........................................................................

 iter      E             dE          RMSdq      gap      omega  full diag
   1    -42.6215283 -0.426215E+02  0.599E-01    3.01       0.0  T
   2    -42.6220845 -0.556195E-03  0.325E-01    3.15       1.0  T
   3    -42.6221366 -0.521447E-04  0.253E-01    3.00       1.0  T
   4    -42.6228303 -0.693695E-03  0.200E-02    3.08       1.0  T
   5    -42.6228386 -0.830066E-05  0.757E-03    3.07       2.6  T
   6    -42.6228387 -0.138567E-06  0.448E-03    3.07       4.5  T
   7    -42.6228389 -0.188850E-06  0.143E-03    3.07      14.0  T
   8    -42.6228390 -0.260047E-07  0.403E-04    3.07      49.6  T
   9    -42.6228390 -0.211628E-08  0.854E-05    3.07     234.2  T
     SCC iter.                  ...        0 min,  0.012 sec
     gradient                   ...        0 min,  0.014 sec
 * total energy  :   -41.3762509 Eh     change       -0.2462852E+01 Eh
   gradient norm :     2.3331426 Eh/α   predicted    -0.2438928E+01 (  -0.97%)
   displ. norm   :     0.4585243 α      lambda       -0.1069624E+01
   maximum displ.:     0.4557799 α      in ANC's #60, #50, #41, ...

........................................................................
.............................. CYCLE    4 ..............................
........................................................................

 iter      E             dE          RMSdq      gap      omega  full diag
   1    -42.5693728 -0.425694E+02  0.318E-01    2.82       0.0  T
   2    -42.5692097  0.163095E-03  0.171E-01    2.92       1.0  T
   3    -42.5693071 -0.973900E-04  0.187E-01    2.82       1.0  T
   4    -42.5698288 -0.521731E-03  0.875E-03    2.87       2.3  T
   5    -42.5698292 -0.371550E-06  0.467E-03    2.87       4.3  T
   6    -42.5698293 -0.113725E-06  0.265E-03    2.87       7.5  T
   7    -42.5698294 -0.645338E-07  0.106E-03    2.87      18.9  T
   8    -42.5698294 -0.164535E-07  0.280E-04    2.87      71.4  T
   9    -42.5698294 -0.658758E-09  0.972E-05    2.87     205.7  T
     SCC iter.                  ...        0 min,  0.012 sec
     gradient                   ...        0 min,  0.014 sec
 * total energy  :   -42.0272159 Eh     change       -0.6509649E+00 Eh
   gradient norm :     0.5092015 Eh/α   predicted    -0.6472887E+00 (  -0.56%)
   displ. norm   :     0.1263249 α      lambda       -0.6261864E-01
   maximum displ.:     0.1249100 α      in ANC's #60, #41, #50, ...

........................................................................
.............................. CYCLE    5 ..............................
........................................................................

 iter      E             dE          RMSdq      gap      omega  full diag
   1    -42.5563545 -0.425564E+02  0.990E-02    2.78       0.0  T
   2    -42.5563377  0.167957E-04  0.513E-02    2.80       1.0  T
   3    -42.5563132  0.244829E-04  0.629E-02    2.77       1.0  T
   4    -42.5563847 -0.714649E-04  0.398E-03    2.79       5.0  T
   5    -42.5563848 -0.145936E-06  0.158E-03    2.79      12.7  T
   6    -42.5563848 -0.142608E-07  0.863E-04    2.79      23.2  T
   7    -42.5563848 -0.377421E-08  0.443E-04    2.79      45.1  T
     SCC iter.                  ...        0 min,  0.010 sec
     gradient                   ...        0 min,  0.013 sec
 * total energy  :   -42.0601287 Eh     change       -0.3291281E-01 Eh
   gradient norm :     0.0341248 Eh/α   predicted    -0.3266250E-01 (  -0.76%)
   displ. norm   :     0.0090312 α      lambda       -0.2964186E-03
   maximum displ.:     0.0036173 α      in ANC's #41, #36, #60, ...

........................................................................
.............................. CYCLE    6 ..............................
........................................................................

 iter      E             dE          RMSdq      gap      omega  full diag
   1    -42.5561698 -0.425562E+02  0.121E-02    2.77       0.0  T
   2    -42.5561698  0.300345E-07  0.734E-03    2.78       2.7  T
   3    -42.5561698 -0.329910E-07  0.634E-03    2.77       3.2  T
   4    -42.5561706 -0.737273E-06  0.151E-03    2.78      13.3  T
   5    -42.5561706 -0.311507E-07  0.529E-04    2.78      37.8  T
   6    -42.5561706 -0.237686E-08  0.297E-04    2.78      67.4  T
     SCC iter.                  ...        0 min,  0.009 sec
     gradient                   ...        0 min,  0.014 sec
 * total energy  :   -42.0604000 Eh     change       -0.2713349E-03 Eh
   gradient norm :     0.0302986 Eh/α   predicted    -0.1499269E-03 ( -44.74%)
   displ. norm   :     0.0628642 α      lambda       -0.1836837E-02
   maximum displ.:     0.0268391 α      in ANC's #41, #36, #33, ...

........................................................................
.............................. CYCLE    7 ..............................
........................................................................

 iter      E             dE          RMSdq      gap      omega  full diag
   1    -42.5558764 -0.425559E+02  0.832E-02    2.67       0.0  T
   2    -42.5558765 -0.177911E-06  0.525E-02    2.71       1.0  T
   3    -42.5558813 -0.471541E-05  0.427E-02    2.68       1.0  T
   4    -42.5559135 -0.322059E-04  0.117E-02    2.69       1.7  T
   5    -42.5559154 -0.190063E-05  0.397E-03    2.69       5.0  T
   6    -42.5559155 -0.134957E-06  0.224E-03    2.69       8.9  T
   7    -42.5559155 -0.423630E-07  0.687E-04    2.69      29.1  T
   8    -42.5559155 -0.577797E-08  0.235E-04    2.69      85.2  T
     SCC iter.                  ...        0 min,  0.011 sec
     gradient                   ...        0 min,  0.013 sec
 * total energy  :   -42.0615804 Eh     change       -0.1180390E-02 Eh
   gradient norm :     0.0390182 Eh/α   predicted    -0.9238865E-03 ( -21.73%)
   displ. norm   :     0.0383174 α      lambda       -0.6115062E-03
   maximum displ.:     0.0166307 α      in ANC's #41, #36, #33, ...

........................................................................
.............................. CYCLE    8 ..............................
........................................................................

 iter      E             dE          RMSdq      gap      omega  full diag
   1    -42.5563781 -0.425564E+02  0.450E-02    2.64       0.0  T
   2    -42.5563791 -0.923236E-06  0.290E-02    2.66       1.0  T
   3    -42.5563790  0.104387E-06  0.228E-02    2.65       1.0  T
   4    -42.5563881 -0.916668E-05  0.693E-03    2.65       2.9  T
   5    -42.5563888 -0.678890E-06  0.216E-03    2.65       9.2  T
   6    -42.5563889 -0.401335E-07  0.121E-03    2.65      16.5  T
   7    -42.5563889 -0.117871E-07  0.345E-04    2.65      57.9  T
   8    -42.5563889 -0.163534E-08  0.125E-04    2.65     160.0  T
     SCC iter.                  ...        0 min,  0.011 sec
     gradient                   ...        0 min,  0.014 sec
 * total energy  :   -42.0620197 Eh     change       -0.4392946E-03 Eh
   gradient norm :     0.0342098 Eh/α   predicted    -0.3082147E-03 ( -29.84%)
   displ. norm   :     0.0338256 α      lambda       -0.4707973E-03
   maximum displ.:     0.0143949 α      in ANC's #41, #33, #36, ...

........................................................................
.............................. CYCLE    9 ..............................
........................................................................

 iter      E             dE          RMSdq      gap      omega  full diag
   1    -42.5571928 -0.425572E+02  0.332E-02    2.64       0.0  T
   2    -42.5571943 -0.145586E-05  0.203E-02    2.64       1.0  T
   3    -42.5571904  0.390345E-05  0.149E-02    2.64       1.3  T
   4    -42.5571950 -0.460582E-05  0.560E-03    2.64       3.6  T
   5    -42.5571956 -0.648527E-06  0.125E-03    2.64      16.0  T
   6    -42.5571956 -0.106582E-07  0.728E-04    2.64      27.5  T
   7    -42.5571956 -0.382713E-08  0.164E-04    2.64     122.1  T
     SCC iter.                  ...        0 min,  0.010 sec
     gradient                   ...        0 min,  0.014 sec
 * total energy  :   -42.0623586 Eh     change       -0.3389152E-03 Eh
   gradient norm :     0.0285698 Eh/α   predicted    -0.2365193E-03 ( -30.21%)
   displ. norm   :     0.0354149 α      lambda       -0.4553693E-03
   maximum displ.:     0.0162413 α      in ANC's #33, #22, #36, ...

........................................................................
.............................. CYCLE   10 ..............................
........................................................................

 iter      E             dE          RMSdq      gap      omega  full diag
   1    -42.5580765 -0.425581E+02  0.345E-02    2.65       0.0  T
   2    -42.5580772 -0.698568E-06  0.205E-02    2.65       1.0  T
   3    -42.5580720  0.516929E-05  0.154E-02    2.65       1.3  T
   4    -42.5580778 -0.576507E-05  0.257E-03    2.65       7.8  T
   5    -42.5580780 -0.173830E-06  0.807E-04    2.65      24.8  T
   6    -42.5580780 -0.265270E-08  0.484E-04    2.65      41.3  T
     SCC iter.                  ...        0 min,  0.009 sec
     gradient                   ...        0 min,  0.013 sec
 * total energy  :   -42.0627179 Eh     change       -0.3592979E-03 Eh
   gradient norm :     0.0342625 Eh/α   predicted    -0.2279996E-03 ( -36.54%)
   displ. norm   :     0.0690459 α      lambda       -0.8664029E-03
   maximum displ.:     0.0327486 α      in ANC's #33, #22, #36, ...

........................................................................
.............................. CYCLE   11 ..............................
........................................................................

 iter      E             dE          RMSdq      gap      omega  full diag
   1    -42.5593098 -0.425593E+02  0.714E-02    2.69       0.0  T
   2    -42.5593080  0.178444E-05  0.444E-02    2.68       1.0  T
   3    -42.5592858  0.222221E-04  0.398E-02    2.70       1.0  T
   4    -42.5593208 -0.349650E-04  0.382E-03    2.69       5.2  T
   5    -42.5593210 -0.258366E-06  0.145E-03    2.69      13.8  T
   6    -42.5593210 -0.170983E-07  0.809E-04    2.69      24.7  T
   7    -42.5593210 -0.332751E-08  0.382E-04    2.69      52.3  T
     SCC iter.                  ...        0 min,  0.010 sec
     gradient                   ...        0 min,  0.014 sec
 * total energy  :   -42.0633636 Eh     change       -0.6456483E-03 Eh
   gradient norm :     0.0477388 Eh/α   predicted    -0.4354202E-03 ( -32.56%)
   displ. norm   :     0.0857031 α      lambda       -0.9797409E-03
   maximum displ.:     0.0409307 α      in ANC's #33, #22, #36, ...

........................................................................
.............................. CYCLE   12 ..............................
........................................................................

 iter      E             dE          RMSdq      gap      omega  full diag
   1    -42.5599558 -0.425600E+02  0.897E-02    2.76       0.0  T
   2    -42.5599485  0.732345E-05  0.583E-02    2.74       1.0  T
   3    -42.5599336  0.149276E-04  0.482E-02    2.76       1.0  T
   4    -42.5599795 -0.459624E-04  0.532E-03    2.75       3.8  T
   5    -42.5599800 -0.518673E-06  0.178E-03    2.75      11.3  T
   6    -42.5599801 -0.275548E-07  0.851E-04    2.75      23.5  T
   7    -42.5599801 -0.383733E-08  0.410E-04    2.75      48.8  T
     SCC iter.                  ...        0 min,  0.010 sec
     gradient                   ...        0 min,  0.014 sec
 * total energy  :   -42.0640589 Eh     change       -0.6953101E-03 Eh
   gradient norm :     0.0473696 Eh/α   predicted    -0.4936366E-03 ( -29.00%)
   displ. norm   :     0.0603266 α      lambda       -0.6734169E-03
   maximum displ.:     0.0294003 α      in ANC's #22, #33, #36, ...

........................................................................
.............................. CYCLE   13 ..............................
........................................................................

 iter      E             dE          RMSdq      gap      omega  full diag
   1    -42.5596639 -0.425597E+02  0.631E-02    2.80       0.0  T
   2    -42.5596596  0.428020E-05  0.426E-02    2.79       1.0  T
   3    -42.5596598 -0.136738E-06  0.319E-02    2.81       1.0  T
   4    -42.5596784 -0.186523E-04  0.499E-03    2.80       4.0  T
   5    -42.5596789 -0.473319E-06  0.141E-03    2.80      14.2  T
   6    -42.5596789 -0.205585E-07  0.574E-04    2.80      34.9  T
   7    -42.5596789 -0.202797E-08  0.233E-04    2.80      85.8  T
     SCC iter.                  ...        0 min,  0.010 sec
     gradient                   ...        0 min,  0.014 sec
 * total energy  :   -42.0645044 Eh     change       -0.4455714E-03 Eh
   gradient norm :     0.0278728 Eh/α   predicted    -0.3380011E-03 ( -24.14%)
   displ. norm   :     0.0178706 α      lambda       -0.2457299E-03
   maximum displ.:     0.0092843 α      in ANC's #22, #33, #61, ...

........................................................................
.............................. CYCLE   14 ..............................
........................................................................

 iter      E             dE          RMSdq      gap      omega  full diag
   1    -42.5592444 -0.425592E+02  0.206E-02    2.81       0.0  T
   2    -42.5592461 -0.161028E-05  0.130E-02    2.81       1.5  T
   3    -42.5592462 -0.138888E-06  0.829E-03    2.82       2.4  T
   4    -42.5592471 -0.895448E-06  0.445E-03    2.81       4.5  T
   5    -42.5592474 -0.348511E-06  0.986E-04    2.82      20.3  T
   6    -42.5592475 -0.170672E-07  0.440E-04    2.81      45.5  T
     SCC iter.                  ...        0 min,  0.009 sec
     gradient                   ...        0 min,  0.014 sec
 * total energy  :   -42.0646669 Eh     change       -0.1625118E-03 Eh
   gradient norm :     0.0145399 Eh/α   predicted    -0.1229152E-03 ( -24.37%)
   displ. norm   :     0.0084134 α      lambda       -0.1026565E-03
   maximum displ.:     0.0034344 α      in ANC's #22, #36, #41, ...

........................................................................
.............................. CYCLE   15 ..............................
........................................................................

 iter      E             dE          RMSdq      gap      omega  full diag
   1    -42.5590907 -0.425591E+02  0.123E-02    2.81       0.0  T
   2    -42.5590924 -0.167479E-05  0.609E-03    2.82       3.3  T
   3    -42.5590925 -0.149793E-06  0.455E-03    2.81       4.4  T
   4    -42.5590926 -0.729391E-07  0.205E-03    2.81       9.7  T
   5    -42.5590927 -0.567648E-07  0.112E-03    2.81      17.9  T
   6    -42.5590927 -0.274139E-07  0.214E-04    2.81      93.3  T
   7    -42.5590927  0.995755E-10  0.146E-04    2.81     136.8  T
     SCC iter.                  ...        0 min,  0.010 sec
     gradient                   ...        0 min,  0.014 sec
 * total energy  :   -42.0647430 Eh     change       -0.7601123E-04 Eh
   gradient norm :     0.0141257 Eh/α   predicted    -0.5134857E-04 ( -32.45%)
   displ. norm   :     0.0118280 α      lambda       -0.1114984E-03
   maximum displ.:     0.0057857 α      in ANC's #22, #36, #41, ...

........................................................................
.............................. CYCLE   16 ..............................
........................................................................

 iter      E             dE          RMSdq      gap      omega  full diag
   1    -42.5591469 -0.425591E+02  0.174E-02    2.80       0.0  T
   2    -42.5591493 -0.242745E-05  0.895E-03    2.81       2.2  T
   3    -42.5591497 -0.370021E-06  0.776E-03    2.80       2.6  T
   4    -42.5591503 -0.604108E-06  0.282E-03    2.81       7.1  T
   5    -42.5591503 -0.489382E-07  0.153E-03    2.81      13.1  T
   6    -42.5591504 -0.523500E-07  0.261E-04    2.81      76.7  T
   7    -42.5591504  0.437268E-10  0.177E-04    2.81     113.1  T
     SCC iter.                  ...        0 min,  0.011 sec
     gradient                   ...        0 min,  0.014 sec
 * total energy  :   -42.0648239 Eh     change       -0.8094891E-04 Eh
   gradient norm :     0.0152853 Eh/α   predicted    -0.5579844E-04 ( -31.07%)
   displ. norm   :     0.0165772 α      lambda       -0.1031604E-03
   maximum displ.:     0.0110133 α      in ANC's #22, #21, #33, ...

........................................................................
.............................. CYCLE   17 ..............................
........................................................................

 iter      E             dE          RMSdq      gap      omega  full diag
   1    -42.5594743 -0.425595E+02  0.199E-02    2.80       0.0  T
   2    -42.5594759 -0.154476E-05  0.107E-02    2.80       1.9  T
   3    -42.5594756  0.231383E-06  0.936E-03    2.80       2.1  T
   4    -42.5594766 -0.100342E-05  0.288E-03    2.80       6.9  T
   5    -42.5594768 -0.171703E-06  0.133E-03    2.80      15.0  T
   6    -42.5594768 -0.415297E-07  0.224E-04    2.80      89.3  T
   7    -42.5594768 -0.405009E-10  0.141E-04    2.80     142.0  T
     SCC iter.                  ...        0 min,  0.010 sec
     gradient                   ...        0 min,  0.014 sec
 * total energy  :   -42.0648975 Eh     change       -0.7363920E-04 Eh
   gradient norm :     0.0135087 Eh/α   predicted    -0.5160509E-04 ( -29.92%)
   displ. norm   :     0.0182144 α      lambda       -0.7908788E-04
   maximum displ.:     0.0128920 α      in ANC's #22, #33, #21, ...

........................................................................
.............................. CYCLE   18 ..............................
........................................................................

 iter      E             dE          RMSdq      gap      omega  full diag
   1    -42.5599959 -0.425600E+02  0.190E-02    2.79       0.0  T
   2    -42.5599963 -0.369913E-06  0.105E-02    2.80       1.9  T
   3    -42.5599952  0.105318E-05  0.839E-03    2.79       2.4  T
   4    -42.5599965 -0.125089E-05  0.197E-03    2.80      10.2  T
   5    -42.5599966 -0.112344E-06  0.710E-04    2.80      28.2  T
   6    -42.5599966 -0.114919E-07  0.183E-04    2.80     109.3  T
     SCC iter.                  ...        0 min,  0.009 sec
     gradient                   ...        0 min,  0.013 sec
 * total energy  :   -42.0649538 Eh     change       -0.5626082E-04 Eh
   gradient norm :     0.0109971 Eh/α   predicted    -0.3968903E-04 ( -29.46%)
   displ. norm   :     0.0162181 α      lambda       -0.6150141E-04
   maximum displ.:     0.0116999 α      in ANC's #22, #33, #21, ...

........................................................................
.............................. CYCLE   19 ..............................
........................................................................

 iter      E             dE          RMSdq      gap      omega  full diag
   1    -42.5606251 -0.425606E+02  0.175E-02    2.79       0.0  T
   2    -42.5606258 -0.756349E-06  0.987E-03    2.79       2.0  T
   3    -42.5606255  0.326539E-06  0.570E-03    2.79       3.5  T
   4    -42.5606257 -0.188261E-06  0.279E-03    2.79       7.2  T
   5    -42.5606260 -0.251846E-06  0.480E-04    2.79      41.7  T
   6    -42.5606260 -0.460213E-08  0.178E-04    2.79     112.2  T
     SCC iter.                  ...        0 min,  0.009 sec
     gradient                   ...        0 min,  0.014 sec
 * total energy  :   -42.0649995 Eh     change       -0.4573121E-04 Eh
   gradient norm :     0.0111260 Eh/α   predicted    -0.3080867E-04 ( -32.63%)
   displ. norm   :     0.0181889 α      lambda       -0.6771467E-04
   maximum displ.:     0.0131831 α      in ANC's #22, #21, #33, ...

........................................................................
.............................. CYCLE   20 ..............................
........................................................................

 iter      E             dE          RMSdq      gap      omega  full diag
   1    -42.5614411 -0.425614E+02  0.213E-02    2.80       0.0  T
   2    -42.5614432 -0.208989E-05  0.121E-02    2.79       1.7  T
   3    -42.5614431  0.103286E-06  0.716E-03    2.79       2.8  T
   4    -42.5614432 -0.150114E-06  0.322E-03    2.79       6.2  T
   5    -42.5614435 -0.259139E-06  0.107E-03    2.79      18.7  T
   6    -42.5614435 -0.312499E-07  0.290E-04    2.79      69.0  T
   7    -42.5614435 -0.280309E-09  0.157E-04    2.79     127.2  T
     SCC iter.                  ...        0 min,  0.010 sec
     gradient                   ...        0 min,  0.014 sec
 * total energy  :   -42.0650484 Eh     change       -0.4889245E-04 Eh
   gradient norm :     0.0117958 Eh/α   predicted    -0.3389951E-04 ( -30.67%)
   displ. norm   :     0.0148953 α      lambda       -0.5887857E-04
   maximum displ.:     0.0099870 α      in ANC's #22, #21, #14, ...
 * RMSD in coord.:     0.4093683 α      energy gain  -0.7975423E+01 Eh

generating ANC from model Hessian ...
Using Lindh-Hessian (1995)
 Shifting diagonal of input Hessian by    3.2763335801587141E-002
 Lowest  eigenvalues of input Hessian
    0.010000    0.010749    0.000000    0.000000    0.000000    0.000000
    0.000000    0.000000    0.035513    0.035563    0.036989    0.038166
    0.039626    0.043252    0.043441    0.045005    0.047672    0.050920
 Highest eigenvalues
    2.163466    2.246874    2.302951    2.435564    2.553804    4.071392


........................................................................
.............................. CYCLE   21 ..............................
........................................................................

 iter      E             dE          RMSdq      gap      omega  full diag
   1    -42.5622643 -0.425623E+02  0.200E-02    2.80       0.0  T
   2    -42.5622662 -0.186290E-05  0.115E-02    2.79       1.7  T
   3    -42.5622663 -0.642288E-07  0.784E-03    2.79       2.6  T
   4    -42.5622666 -0.300831E-06  0.343E-03    2.80       5.8  T
   5    -42.5622669 -0.302809E-06  0.130E-03    2.79      15.4  T
   6    -42.5622669 -0.432623E-07  0.309E-04    2.79      64.6  T
   7    -42.5622669 -0.208622E-09  0.157E-04    2.79     127.0  T
     SCC iter.                  ...        0 min,  0.010 sec
     gradient                   ...        0 min,  0.014 sec
 * total energy  :   -42.0650898 Eh     change       -0.4135048E-04 Eh
   gradient norm :     0.0099990 Eh/α   predicted     0.0000000E+00 (-100.00%)
   displ. norm   :     0.0538188 α      lambda        0.7040759E-04
   maximum displ.:     0.0313134 α      in ANC's #3, #15, #11, ...

........................................................................
.............................. CYCLE   22 ..............................
........................................................................

 iter      E             dE          RMSdq      gap      omega  full diag
   1    -42.5621206 -0.425621E+02  0.407E-02    2.78       0.0  T
   2    -42.5621190  0.161484E-05  0.300E-02    2.79       1.0  T
   3    -42.5621231 -0.409083E-05  0.205E-02    2.78       1.0  T
   4    -42.5621292 -0.616240E-05  0.401E-03    2.79       5.0  T
   5    -42.5621295 -0.229275E-06  0.128E-03    2.79      15.6  T
   6    -42.5621295 -0.292879E-07  0.503E-04    2.79      39.8  T
   7    -42.5621295 -0.320214E-08  0.198E-04    2.79     100.9  T
     SCC iter.                  ...        0 min,  0.010 sec
     gradient                   ...        0 min,  0.014 sec
 * total energy  :   -42.0651868 Eh     change       -0.9705328E-04 Eh
   gradient norm :     0.0036642 Eh/α   predicted    -0.9601348E-04 (  -1.07%)
   displ. norm   :     0.0407677 α      lambda       -0.9292379E-04
   maximum displ.:     0.0246842 α      in ANC's #5, #15, #27, ...

........................................................................
.............................. CYCLE   23 ..............................
........................................................................

 iter      E             dE          RMSdq      gap      omega  full diag
   1    -42.5624408 -0.425624E+02  0.281E-02    2.76       0.0  T
   2    -42.5624422 -0.145518E-05  0.160E-02    2.76       1.2  T
   3    -42.5624417  0.566074E-06  0.637E-03    2.76       3.1  T
   4    -42.5624419 -0.267363E-06  0.428E-03    2.77       4.7  T
   5    -42.5624424 -0.487525E-06  0.604E-04    2.76      33.1  T
   6    -42.5624424 -0.399578E-08  0.414E-04    2.76      48.3  T
     SCC iter.                  ...        0 min,  0.009 sec
     gradient                   ...        0 min,  0.014 sec
 * total energy  :   -42.0652791 Eh     change       -0.9223432E-04 Eh
   gradient norm :     0.0058745 Eh/α   predicted    -0.4654204E-04 ( -49.54%)
   displ. norm   :     0.9846237 α      lambda       -0.2296608E-02
   maximum displ.:     0.5829464 α      in ANC's #5, #15, #27, ...

........................................................................
.............................. CYCLE   24 ..............................
........................................................................

 iter      E             dE          RMSdq      gap      omega  full diag
   1    -42.5692596 -0.425693E+02  0.767E-01    1.96       0.0  T
   2    -42.5689511  0.308415E-03  0.452E-01    2.03       1.0  T
   3    -42.5654465  0.350465E-02  0.534E-01    1.96       1.0  T
   4    -42.5708892 -0.544273E-02  0.836E-02    2.03       1.0  T
   5    -42.5710164 -0.127206E-03  0.220E-02    2.02       1.0  T
   6    -42.5710214 -0.501880E-05  0.125E-02    2.03       1.6  T
   7    -42.5710228 -0.136358E-05  0.583E-03    2.02       3.4  T
   8    -42.5710233 -0.452178E-06  0.119E-03    2.02      16.7  T
   9    -42.5710233 -0.176548E-07  0.524E-04    2.02      38.1  T
  10    -42.5710233 -0.168590E-08  0.160E-04    2.02     124.7  T
     SCC iter.                  ...        0 min,  0.014 sec
     gradient                   ...        0 min,  0.014 sec
 * total energy  :   -42.0669055 Eh     change       -0.1626434E-02 Eh
   gradient norm :     0.1207324 Eh/α   predicted    -0.2261578E-02 (  39.05%)
   displ. norm   :     0.3269709 α      lambda       -0.1919879E-02
   maximum displ.:     0.2167559 α      in ANC's #1, #5, #2, ...

........................................................................
.............................. CYCLE   25 ..............................
........................................................................

 iter      E             dE          RMSdq      gap      omega  full diag
   1    -42.5741210 -0.425741E+02  0.387E-01    1.68       0.0  T
   2    -42.5731390  0.982093E-03  0.269E-01    1.71       1.0  T
   3    -42.5731209  0.180435E-04  0.295E-01    1.68       1.0  T
   4    -42.5746396 -0.151868E-02  0.214E-02    1.70       1.0  T
   5    -42.5746461 -0.647533E-05  0.921E-03    1.70       2.2  T
   6    -42.5746482 -0.213084E-05  0.364E-03    1.70       5.5  T
   7    -42.5746483 -0.118542E-06  0.202E-03    1.70       9.9  T
   8    -42.5746484 -0.486027E-07  0.481E-04    1.70      41.5  T
   9    -42.5746484 -0.216738E-08  0.219E-04    1.70      91.2  T
     SCC iter.                  ...        0 min,  0.012 sec
     gradient                   ...        0 min,  0.014 sec
 * total energy  :   -42.0681696 Eh     change       -0.1264083E-02 Eh
   gradient norm :     0.1563662 Eh/α   predicted    -0.1062577E-02 ( -15.94%)
   displ. norm   :     0.3234818 α      lambda       -0.4170742E-02
   maximum displ.:     0.1581111 α      in ANC's #15, #1, #2, ...

........................................................................
.............................. CYCLE   26 ..............................
........................................................................

 iter      E             dE          RMSdq      gap      omega  full diag
   1    -42.5761522 -0.425762E+02  0.208E-01    1.56       0.0  T
   2    -42.5761888 -0.365753E-04  0.119E-01    1.56       1.0  T
   3    -42.5759399  0.248912E-03  0.115E-01    1.56       1.0  T
   4    -42.5761799 -0.240011E-03  0.361E-02    1.57       1.0  T
   5    -42.5762144 -0.345197E-04  0.473E-03    1.56       4.2  T
   6    -42.5762147 -0.340240E-06  0.232E-03    1.56       8.6  T
   7    -42.5762148 -0.238488E-07  0.124E-03    1.56      16.1  T
   8    -42.5762148 -0.168993E-07  0.426E-04    1.56      47.0  T
   9    -42.5762148 -0.294771E-08  0.183E-04    1.56     109.2  T
     SCC iter.                  ...        0 min,  0.012 sec
     gradient                   ...        0 min,  0.014 sec
 * total energy  :   -42.0701054 Eh     change       -0.1935782E-02 Eh
   gradient norm :     0.1822953 Eh/α   predicted    -0.2303594E-02 (  19.00%)
   displ. norm   :     0.5264203 α      lambda       -0.7544573E-02
   maximum displ.:     0.3140975 α      in ANC's #5, #27, #34, ...

........................................................................
.............................. CYCLE   27 ..............................
........................................................................

 iter      E             dE          RMSdq      gap      omega  full diag
   1    -42.5854698 -0.425855E+02  0.643E-01    0.92       0.0  T
   2    -42.5809066  0.456316E-02  0.549E-01    0.96       1.0  T
   3    -42.5816925 -0.785874E-03  0.530E-01    0.94       1.0  T
   4    -42.5867121 -0.501965E-02  0.846E-02    0.94       1.0  T
   5    -42.5868757 -0.163563E-03  0.342E-02    0.93       1.0  T
   6    -42.5868951 -0.193856E-04  0.188E-02    0.94       1.1  T
   7    -42.5868990 -0.392546E-05  0.902E-03    0.94       2.2  T
   8    -42.5869004 -0.138967E-05  0.165E-03    0.94      12.1  T
   9    -42.5869004 -0.354980E-07  0.665E-04    0.94      30.1  T
  10    -42.5869004 -0.307087E-08  0.166E-04    0.94     120.2  T
     SCC iter.                  ...        0 min,  0.013 sec
     gradient                   ...        0 min,  0.013 sec
 * total energy  :   -42.0721776 Eh     change       -0.2072272E-02 Eh
   gradient norm :     0.1447780 Eh/α   predicted    -0.4817693E-02 ( 132.48%)
   displ. norm   :     0.4445506 α      lambda       -0.1232071E-01
   maximum displ.:     0.2095031 α      in ANC's #5, #2, #1, ...

........................................................................
.............................. CYCLE   28 ..............................
........................................................................

 iter      E             dE          RMSdq      gap      omega  full diag
   1    -42.5843789 -0.425844E+02  0.331E-01    1.26       0.0  T
   2    -42.5845282 -0.149296E-03  0.206E-01    1.24       1.0  T
   3    -42.5834908  0.103745E-02  0.231E-01    1.26       1.0  T
   4    -42.5845909 -0.110016E-02  0.753E-02    1.24       1.0  T
   5    -42.5847038 -0.112881E-03  0.106E-02    1.24       1.9  T
   6    -42.5847054 -0.163169E-05  0.517E-03    1.24       3.9  T
   7    -42.5847057 -0.301054E-06  0.183E-03    1.24      10.9  T
   8    -42.5847058 -0.264151E-07  0.594E-04    1.24      33.7  T
   9    -42.5847058 -0.584537E-08  0.265E-04    1.24      75.5  T
     SCC iter.                  ...        0 min,  0.012 sec
     gradient                   ...        0 min,  0.014 sec
 * total energy  :   -42.0749020 Eh     change       -0.2724365E-02 Eh
   gradient norm :     0.0890316 Eh/α   predicted    -0.7377811E-02 ( 170.81%)
   displ. norm   :     0.4975886 α      lambda       -0.1210303E-01
   maximum displ.:     0.3540073 α      in ANC's #2, #11, #15, ...

........................................................................
.............................. CYCLE   29 ..............................
........................................................................

 iter      E             dE          RMSdq      gap      omega  full diag
   1    -42.5945216 -0.425945E+02  0.414E-01    1.23       0.0  T
   2    -42.5939827  0.538925E-03  0.285E-01    1.24       1.0  T
   3    -42.5919537  0.202899E-02  0.365E-01    1.23       1.0  T
   4    -42.5947414 -0.278775E-02  0.214E-02    1.23       1.0  T
   5    -42.5947487 -0.725496E-05  0.917E-03    1.23       2.2  T
   6    -42.5947494 -0.684869E-06  0.530E-03    1.23       3.8  T
   7    -42.5947496 -0.241647E-06  0.180E-03    1.23      11.1  T
   8    -42.5947497 -0.709717E-07  0.490E-04    1.23      40.8  T
   9    -42.5947497 -0.154444E-08  0.283E-04    1.23      70.6  T
     SCC iter.                  ...        0 min,  0.012 sec
     gradient                   ...        0 min,  0.014 sec
 * total energy  :   -42.0786509 Eh     change       -0.3748915E-02 Eh
   gradient norm :     0.0851213 Eh/α   predicted    -0.7549838E-02 ( 101.39%)
   displ. norm   :     0.3971938 α      lambda       -0.1268591E-01
   maximum displ.:     0.1885028 α      in ANC's #1, #5, #6, ...

........................................................................
.............................. CYCLE   30 ..............................
........................................................................

 iter      E             dE          RMSdq      gap      omega  full diag
   1    -42.5981429 -0.425981E+02  0.550E-01    0.93       0.0  T
   2    -42.5921464  0.599651E-02  0.548E-01    0.95       1.0  T
   3    -42.5964444 -0.429801E-02  0.439E-01    0.94       1.0  T
   4    -42.5995622 -0.311774E-02  0.429E-02    0.93       1.0  T
   5    -42.5996224 -0.602144E-04  0.139E-02    0.93       1.4  T
   6    -42.5996272 -0.482025E-05  0.473E-03    0.93       4.2  T
   7    -42.5996273 -0.116880E-06  0.234E-03    0.93       8.5  T
   8    -42.5996274 -0.441261E-07  0.615E-04    0.93      32.5  T
   9    -42.5996274 -0.517066E-08  0.294E-04    0.93      68.0  T
     SCC iter.                  ...        0 min,  0.012 sec
     gradient                   ...        0 min,  0.014 sec
 * total energy  :   -42.0851125 Eh     change       -0.6461631E-02 Eh
   gradient norm :     0.1245057 Eh/α   predicted    -0.7343655E-02 (  13.65%)
   displ. norm   :     0.2607777 α      lambda       -0.5542116E-02
   maximum displ.:     0.1271620 α      in ANC's #5, #6, #15, ...

........................................................................
.............................. CYCLE   31 ..............................
........................................................................

 iter      E             dE          RMSdq      gap      omega  full diag
   1    -42.6066460 -0.426066E+02  0.163E-01    0.88       0.0  T
   2    -42.6066601 -0.141702E-04  0.968E-02    0.88       1.0  T
   3    -42.6065134  0.146747E-03  0.866E-02    0.89       1.0  T
   4    -42.6066326 -0.119187E-03  0.438E-02    0.88       1.0  T
   5    -42.6066782 -0.456523E-04  0.917E-03    0.88       2.2  T
   6    -42.6066806 -0.241657E-05  0.465E-03    0.88       4.3  T
   7    -42.6066808 -0.200574E-06  0.236E-03    0.88       8.5  T
   8    -42.6066809 -0.889664E-07  0.407E-04    0.88      49.1  T
   9    -42.6066809 -0.250493E-08  0.164E-04    0.88     122.2  T
     SCC iter.                  ...        0 min,  0.012 sec
     gradient                   ...        0 min,  0.014 sec
 * total energy  :   -42.0883274 Eh     change       -0.3214898E-02 Eh
   gradient norm :     0.0383955 Eh/α   predicted    -0.2959508E-02 (  -7.94%)
   displ. norm   :     0.3713562 α      lambda       -0.5038114E-02
   maximum displ.:     0.2780449 α      in ANC's #5, #13, #6, ...

........................................................................
.............................. CYCLE   32 ..............................
........................................................................

 iter      E             dE          RMSdq      gap      omega  full diag
   1    -42.6119415 -0.426119E+02  0.293E-01    0.94       0.0  T
   2    -42.6115017  0.439828E-03  0.220E-01    0.93       1.0  T
   3    -42.6108161  0.685549E-03  0.256E-01    0.95       1.0  T
   4    -42.6121194 -0.130328E-02  0.208E-02    0.94       1.0  T
   5    -42.6121224 -0.299082E-05  0.118E-02    0.93       1.7  T
   6    -42.6121271 -0.473674E-05  0.281E-03    0.94       7.1  T
   7    -42.6121271 -0.201105E-07  0.141E-03    0.94      14.2  T
   8    -42.6121272 -0.280934E-07  0.331E-04    0.94      60.4  T
   9    -42.6121272 -0.143846E-08  0.151E-04    0.94     132.8  T
     SCC iter.                  ...        0 min,  0.012 sec
     gradient                   ...        0 min,  0.014 sec
 * total energy  :   -42.0903242 Eh     change       -0.1996709E-02 Eh
   gradient norm :     0.0666731 Eh/α   predicted    -0.2866452E-02 (  43.56%)
   displ. norm   :     0.3627310 α      lambda       -0.5390747E-02
   maximum displ.:     0.1935198 α      in ANC's #2, #5, #7, ...

........................................................................
.............................. CYCLE   33 ..............................
........................................................................

 iter      E             dE          RMSdq      gap      omega  full diag
   1    -42.6112246 -0.426112E+02  0.238E-01    0.85       0.0  T
   2    -42.6109862  0.238373E-03  0.162E-01    0.85       1.0  T
   3    -42.6102086  0.777633E-03  0.234E-01    0.87       1.0  T
   4    -42.6113255 -0.111691E-02  0.213E-02    0.85       1.0  T
   5    -42.6113322 -0.673989E-05  0.100E-02    0.85       2.0  T
   6    -42.6113351 -0.286902E-05  0.332E-03    0.85       6.0  T
   7    -42.6113352 -0.135741E-06  0.168E-03    0.85      11.9  T
   8    -42.6113352 -0.218473E-07  0.387E-04    0.85      51.6  T
   9    -42.6113352 -0.256112E-08  0.177E-04    0.85     113.1  T
     SCC iter.                  ...        0 min,  0.012 sec
     gradient                   ...        0 min,  0.014 sec
 * total energy  :   -42.0936275 Eh     change       -0.3303369E-02 Eh
   gradient norm :     0.0400537 Eh/α   predicted    -0.3050019E-02 (  -7.67%)
   displ. norm   :     0.2288395 α      lambda       -0.2146115E-02
   maximum displ.:     0.1137772 α      in ANC's #5, #2, #13, ...

........................................................................
.............................. CYCLE   34 ..............................
........................................................................

 iter      E             dE          RMSdq      gap      omega  full diag
   1    -42.6156149 -0.426156E+02  0.154E-01    0.81       0.0  T
   2    -42.6156180 -0.308385E-05  0.922E-02    0.81       1.0  T
   3    -42.6153934  0.224577E-03  0.991E-02    0.81       1.0  T
   4    -42.6156123 -0.218898E-03  0.260E-02    0.81       1.0  T
   5    -42.6156289 -0.165418E-04  0.716E-03    0.81       2.8  T
   6    -42.6156305 -0.160698E-05  0.148E-03    0.81      13.5  T
   7    -42.6156305 -0.587359E-08  0.824E-04    0.81      24.3  T
   8    -42.6156305 -0.641594E-08  0.228E-04    0.81      87.5  T
     SCC iter.                  ...        0 min,  0.011 sec
     gradient                   ...        0 min,  0.014 sec
 * total energy  :   -42.0952856 Eh     change       -0.1658038E-02 Eh
   gradient norm :     0.0460110 Eh/α   predicted    -0.1129266E-02 ( -31.89%)
   displ. norm   :     0.4717717 α      lambda       -0.4310701E-02
   maximum displ.:     0.2597376 α      in ANC's #5, #13, #7, ...

........................................................................
.............................. CYCLE   35 ..............................
........................................................................

 iter      E             dE          RMSdq      gap      omega  full diag
   1    -42.6161889 -0.426162E+02  0.358E-01    0.77       0.0  T
   2    -42.6158269  0.362037E-03  0.230E-01    0.76       1.0  T
   3    -42.6133335  0.249337E-02  0.367E-01    0.81       1.0  T
   4    -42.6163156 -0.298210E-02  0.236E-02    0.77       1.0  T
   5    -42.6163239 -0.832214E-05  0.112E-02    0.77       1.8  T
   6    -42.6163271 -0.315192E-05  0.417E-03    0.77       4.8  T
   7    -42.6163272 -0.153770E-06  0.189E-03    0.77      10.6  T
   8    -42.6163273 -0.452248E-07  0.446E-04    0.77      44.9  T
   9    -42.6163273 -0.131087E-08  0.241E-04    0.77      83.1  T
     SCC iter.                  ...        0 min,  0.012 sec
     gradient                   ...        0 min,  0.014 sec
 * total energy  :   -42.0980063 Eh     change       -0.2720729E-02 Eh
   gradient norm :     0.0311072 Eh/α   predicted    -0.2635065E-02 (  -3.15%)
   displ. norm   :     0.3928737 α      lambda       -0.2757186E-02
   maximum displ.:     0.2432055 α      in ANC's #13, #7, #5, ...

........................................................................
.............................. CYCLE   36 ..............................
........................................................................

 iter      E             dE          RMSdq      gap      omega  full diag
   1    -42.6182012 -0.426182E+02  0.353E-01    0.72       0.0  T
   2    -42.6180991  0.102152E-03  0.204E-01    0.72       1.0  T
   3    -42.6156988  0.240034E-02  0.327E-01    0.76       1.0  T
   4    -42.6182377 -0.253891E-02  0.256E-02    0.72       1.0  T
   5    -42.6182560 -0.183028E-04  0.119E-02    0.73       1.7  T
   6    -42.6182601 -0.417808E-05  0.233E-03    0.73       8.6  T
   7    -42.6182602 -0.700125E-08  0.135E-03    0.73      14.8  T
   8    -42.6182602 -0.241418E-07  0.348E-04    0.73      57.5  T
   9    -42.6182602 -0.108620E-08  0.175E-04    0.73     114.1  T
     SCC iter.                  ...        0 min,  0.012 sec
     gradient                   ...        0 min,  0.014 sec
 * total energy  :   -42.1000809 Eh     change       -0.2074629E-02 Eh
   gradient norm :     0.0213307 Eh/α   predicted    -0.1591390E-02 ( -23.29%)
   displ. norm   :     0.4514836 α      lambda       -0.2888727E-02
   maximum displ.:     0.2832966 α      in ANC's #13, #1, #6, ...

........................................................................
.............................. CYCLE   37 ..............................
........................................................................

 iter      E             dE          RMSdq      gap      omega  full diag
   1    -42.6215483 -0.426215E+02  0.381E-01    0.68       0.0  T
   2    -42.6215287  0.196165E-04  0.218E-01    0.68       1.0  T
   3    -42.6201460  0.138276E-02  0.245E-01    0.71       1.0  T
   4    -42.6215741 -0.142815E-02  0.149E-02    0.68       1.3  T
   5    -42.6215794 -0.533975E-05  0.628E-03    0.69       3.2  T
   6    -42.6215806 -0.112721E-05  0.249E-03    0.69       8.0  T
   7    -42.6215806 -0.232110E-07  0.162E-03    0.69      12.3  T
   8    -42.6215806 -0.497869E-07  0.345E-04    0.69      57.9  T
   9    -42.6215806 -0.111792E-08  0.161E-04    0.69     124.4  T
     SCC iter.                  ...        0 min,  0.012 sec
     gradient                   ...        0 min,  0.013 sec
 * total energy  :   -42.1018069 Eh     change       -0.1726022E-02 Eh
   gradient norm :     0.0235608 Eh/α   predicted    -0.1738782E-02 (   0.74%)
   displ. norm   :     0.3880136 α      lambda       -0.1986764E-02
   maximum displ.:     0.2544610 α      in ANC's #1, #13, #14, ...

........................................................................
.............................. CYCLE   38 ..............................
........................................................................

 iter      E             dE          RMSdq      gap      omega  full diag
   1    -42.6157075 -0.426157E+02  0.418E-01    0.62       0.0  T
   2    -42.6150280  0.679489E-03  0.251E-01    0.61       1.0  T
   3    -42.6121847  0.284331E-02  0.441E-01    0.68       1.0  T
   4    -42.6158680 -0.368333E-02  0.398E-02    0.62       1.0  T
   5    -42.6159120 -0.439988E-04  0.121E-02    0.63       1.7  T
   6    -42.6159156 -0.361078E-05  0.514E-03    0.62       3.9  T
   7    -42.6159160 -0.390582E-06  0.239E-03    0.62       8.4  T
   8    -42.6159161 -0.609559E-07  0.421E-04    0.62      47.5  T
   9    -42.6159161 -0.167582E-08  0.153E-04    0.62     131.1  T
     SCC iter.                  ...        0 min,  0.012 sec
     gradient                   ...        0 min,  0.014 sec
 * total energy  :   -42.1018364 Eh     change       -0.2947605E-04 Eh
   gradient norm :     0.0798259 Eh/α   predicted    -0.1142945E-02 (3777.54%)
   displ. norm   :     0.1654667 α      lambda       -0.2289712E-02
   maximum displ.:     0.0896206 α      in ANC's #1, #13, #2, ...

........................................................................
.............................. CYCLE   39 ..............................
........................................................................

 iter      E             dE          RMSdq      gap      omega  full diag
   1    -42.6227393 -0.426227E+02  0.158E-01    0.65       0.0  T
   2    -42.6225987  0.140648E-03  0.101E-01    0.66       1.0  T
   3    -42.6222896  0.309077E-03  0.164E-01    0.64       1.0  T
   4    -42.6227636 -0.473989E-03  0.274E-02    0.65       1.0  T
   5    -42.6227890 -0.253951E-04  0.505E-03    0.65       4.0  T
   6    -42.6227893 -0.310874E-06  0.276E-03    0.65       7.2  T
   7    -42.6227894 -0.903670E-07  0.129E-03    0.65      15.5  T
   8    -42.6227894 -0.203301E-07  0.238E-04    0.65      84.0  T
   9    -42.6227894 -0.863039E-09  0.108E-04    0.65     185.7  T
     SCC iter.                  ...        0 min,  0.012 sec
     gradient                   ...        0 min,  0.013 sec
 * total energy  :   -42.1029971 Eh     change       -0.1160644E-02 Eh
   gradient norm :     0.0117515 Eh/α   predicted    -0.1176199E-02 (   1.34%)
   displ. norm   :     0.1515149 α      lambda       -0.4254190E-03
   maximum displ.:     0.0789397 α      in ANC's #1, #6, #5, ...

........................................................................
.............................. CYCLE   40 ..............................
........................................................................

 iter      E             dE          RMSdq      gap      omega  full diag
   1    -42.6243646 -0.426244E+02  0.767E-02    0.64       0.0  T
   2    -42.6243646  0.513949E-07  0.457E-02    0.64       1.0  T
   3    -42.6243352  0.293769E-04  0.311E-02    0.65       1.0  T
   4    -42.6243676 -0.323723E-04  0.295E-03    0.64       6.8  T
   5    -42.6243676  0.213248E-08  0.248E-03    0.64       8.1  T
   6    -42.6243677 -0.127617E-06  0.131E-03    0.64      15.2  T
   7    -42.6243677 -0.242969E-07  0.450E-04    0.64      44.4  T
   8    -42.6243677 -0.315159E-08  0.120E-04    0.64     166.1  T
     SCC iter.                  ...        0 min,  0.011 sec
     gradient                   ...        0 min,  0.014 sec
 * total energy  :   -42.1033072 Eh     change       -0.3101571E-03 Eh
   gradient norm :     0.0167450 Eh/α   predicted    -0.2175918E-03 ( -29.84%)
   displ. norm   :     0.2598649 α      lambda       -0.6043246E-03
   maximum displ.:     0.1341131 α      in ANC's #1, #6, #9, ...

........................................................................
.............................. CYCLE   41 ..............................
........................................................................

 iter      E             dE          RMSdq      gap      omega  full diag
   1    -42.6242047 -0.426242E+02  0.183E-01    0.61       0.0  T
   2    -42.6241165  0.881601E-04  0.112E-01    0.61       1.0  T
   3    -42.6235008  0.615762E-03  0.190E-01    0.64       1.0  T
   4    -42.6242353 -0.734509E-03  0.904E-03    0.61       2.2  T
   5    -42.6242369 -0.161684E-05  0.292E-03    0.61       6.9  T
   6    -42.6242370 -0.155514E-06  0.135E-03    0.61      14.8  T
   7    -42.6242370  0.725784E-09  0.795E-04    0.61      25.2  T
   8    -42.6242371 -0.111853E-07  0.281E-04    0.61      71.2  T
     SCC iter.                  ...        0 min,  0.011 sec
     gradient                   ...        0 min,  0.014 sec
 * total energy  :   -42.1037231 Eh     change       -0.4158475E-03 Eh
   gradient norm :     0.0219754 Eh/α   predicted    -0.3225532E-03 ( -22.43%)
   displ. norm   :     0.2148121 α      lambda       -0.4831127E-03
   maximum displ.:     0.1189305 α      in ANC's #6, #1, #9, ...

........................................................................
.............................. CYCLE   42 ..............................
........................................................................

 iter      E             dE          RMSdq      gap      omega  full diag
   1    -42.6248859 -0.426249E+02  0.138E-01    0.59       0.0  T
   2    -42.6247551  0.130780E-03  0.980E-02    0.57       1.0  T
   3    -42.6245832  0.171942E-03  0.137E-01    0.60       1.0  T
   4    -42.6249231 -0.339861E-03  0.694E-03    0.58       2.9  T
   5    -42.6249240 -0.895439E-06  0.244E-03    0.58       8.2  T
   6    -42.6249241 -0.948115E-07  0.126E-03    0.58      15.8  T
   7    -42.6249241 -0.453845E-08  0.587E-04    0.58      34.1  T
   8    -42.6249241 -0.628832E-08  0.239E-04    0.58      83.9  T
     SCC iter.                  ...        0 min,  0.011 sec
     gradient                   ...        0 min,  0.014 sec
 * total energy  :   -42.1041064 Eh     change       -0.3832864E-03 Eh
   gradient norm :     0.0221628 Eh/α   predicted    -0.2526961E-03 ( -34.07%)
   displ. norm   :     0.3838441 α      lambda       -0.8895634E-03
   maximum displ.:     0.2275608 α      in ANC's #6, #9, #1, ...
 * RMSD in coord.:     0.5813379 α      energy gain  -0.3905793E-01 Eh

generating ANC from model Hessian ...
Using Lindh-Hessian (1995)
 Shifting diagonal of input Hessian by    1.1065180440087861E-002
 Lowest  eigenvalues of input Hessian
    0.010000    0.010247    0.000000    0.000000    0.000000    0.000000
    0.000000    0.000000    0.013757    0.015046    0.017009    0.020433
    0.020768    0.022846    0.023628    0.024316    0.029172    0.035094
 Highest eigenvalues
    2.137300    2.216595    2.266296    2.414993    2.518669    4.109592


........................................................................
.............................. CYCLE   43 ..............................
........................................................................

 iter      E             dE          RMSdq      gap      omega  full diag
   1    -42.6237698 -0.426238E+02  0.222E-01    0.54       0.0  T
   2    -42.6235272  0.242552E-03  0.146E-01    0.53       1.0  T
   3    -42.6228385  0.688700E-03  0.232E-01    0.57       1.0  T
   4    -42.6238371 -0.998511E-03  0.168E-02    0.54       1.2  T
   5    -42.6238444 -0.730938E-05  0.585E-03    0.54       3.4  T
   6    -42.6238453 -0.889671E-06  0.260E-03    0.54       7.7  T
   7    -42.6238453 -0.610922E-07  0.147E-03    0.54      13.6  T
   8    -42.6238453 -0.232955E-07  0.393E-04    0.54      51.0  T
   9    -42.6238453 -0.160708E-08  0.207E-04    0.54      96.5  T
     SCC iter.                  ...        0 min,  0.012 sec
     gradient                   ...        0 min,  0.014 sec
 * total energy  :   -42.1047128 Eh     change       -0.6064279E-03 Eh
   gradient norm :     0.0118269 Eh/α   predicted     0.0000000E+00 (-100.00%)
   displ. norm   :     0.1653590 α      lambda       -0.5962811E-03
   maximum displ.:     0.1011536 α      in ANC's #1, #2, #4, ...

........................................................................
.............................. CYCLE   44 ..............................
........................................................................

 iter      E             dE          RMSdq      gap      omega  full diag
   1    -42.6254016 -0.426254E+02  0.701E-02    0.54       0.0  T
   2    -42.6253340  0.676282E-04  0.642E-02    0.53       1.0  T
   3    -42.6253757 -0.417479E-04  0.585E-02    0.54       1.0  T
   4    -42.6254185 -0.428336E-04  0.170E-02    0.54       1.2  T
   5    -42.6254277 -0.917316E-05  0.474E-03    0.53       4.2  T
   6    -42.6254284 -0.670016E-06  0.101E-03    0.53      19.7  T
   7    -42.6254284 -0.127769E-07  0.542E-04    0.53      36.9  T
   8    -42.6254284 -0.118840E-08  0.172E-04    0.53     116.1  T
     SCC iter.                  ...        0 min,  0.011 sec
     gradient                   ...        0 min,  0.013 sec
 * total energy  :   -42.1051954 Eh     change       -0.4826056E-03 Eh
   gradient norm :     0.0085267 Eh/α   predicted    -0.3062975E-03 ( -36.53%)
   displ. norm   :     0.3228742 α      lambda       -0.7153158E-03
   maximum displ.:     0.1923423 α      in ANC's #1, #2, #4, ...

........................................................................
.............................. CYCLE   45 ..............................
........................................................................

 iter      E             dE          RMSdq      gap      omega  full diag
   1    -42.6264498 -0.426264E+02  0.104E-01    0.54       0.0  T
   2    -42.6263421  0.107737E-03  0.871E-02    0.52       1.0  T
   3    -42.6263623 -0.202678E-04  0.896E-02    0.55       1.0  T
   4    -42.6264726 -0.110258E-03  0.243E-02    0.54       1.0  T
   5    -42.6264921 -0.194800E-04  0.542E-03    0.54       3.7  T
   6    -42.6264929 -0.828850E-06  0.145E-03    0.54      13.8  T
   7    -42.6264929 -0.180877E-07  0.827E-04    0.54      24.2  T
   8    -42.6264929 -0.375368E-08  0.253E-04    0.54      78.9  T
     SCC iter.                  ...        0 min,  0.011 sec
     gradient                   ...        0 min,  0.014 sec
 * total energy  :   -42.1055722 Eh     change       -0.3768546E-03 Eh
   gradient norm :     0.0382649 Eh/α   predicted    -0.3949781E-03 (   4.81%)
   displ. norm   :     0.0974741 α      lambda       -0.3870876E-03
   maximum displ.:     0.0492262 α      in ANC's #3, #5, #10, ...

........................................................................
.............................. CYCLE   46 ..............................
........................................................................

 iter      E             dE          RMSdq      gap      omega  full diag
   1    -42.6270325 -0.426270E+02  0.374E-02    0.54       0.0  T
   2    -42.6270283  0.427451E-05  0.267E-02    0.54       1.0  T
   3    -42.6270107  0.175188E-04  0.337E-02    0.55       1.0  T
   4    -42.6270332 -0.224367E-04  0.710E-03    0.54       2.8  T
   5    -42.6270347 -0.151427E-05  0.138E-03    0.54      14.5  T
   6    -42.6270347 -0.341069E-07  0.699E-04    0.54      28.6  T
   7    -42.6270347 -0.312824E-08  0.368E-04    0.54      54.4  T
     SCC iter.                  ...        0 min,  0.010 sec
     gradient                   ...        0 min,  0.014 sec
 * total energy  :   -42.1058338 Eh     change       -0.2615453E-03 Eh
   gradient norm :     0.0109559 Eh/α   predicted    -0.1953830E-03 ( -25.30%)
   displ. norm   :     0.2751392 α      lambda       -0.3883725E-03
   maximum displ.:     0.1422689 α      in ANC's #2, #1, #3, ...

........................................................................
.............................. CYCLE   47 ..............................
........................................................................

 iter      E             dE          RMSdq      gap      omega  full diag
   1    -42.6267024 -0.426267E+02  0.848E-02    0.56       0.0  T
   2    -42.6266597  0.426762E-04  0.649E-02    0.55       1.0  T
   3    -42.6266105  0.492115E-04  0.757E-02    0.56       1.0  T
   4    -42.6267127 -0.102147E-03  0.101E-02    0.56       2.0  T
   5    -42.6267162 -0.350054E-05  0.248E-03    0.55       8.1  T
   6    -42.6267163 -0.120180E-06  0.119E-03    0.55      16.7  T
   7    -42.6267163 -0.638510E-08  0.655E-04    0.55      30.5  T
   8    -42.6267163 -0.443951E-08  0.153E-04    0.55     130.6  T
     SCC iter.                  ...        0 min,  0.011 sec
     gradient                   ...        0 min,  0.013 sec
 * total energy  :   -42.1061368 Eh     change       -0.3030191E-03 Eh
   gradient norm :     0.0142201 Eh/α   predicted    -0.2088915E-03 ( -31.06%)
   displ. norm   :     0.3417156 α      lambda       -0.4616942E-03
   maximum displ.:     0.1680489 α      in ANC's #2, #1, #3, ...

........................................................................
.............................. CYCLE   48 ..............................
........................................................................

 iter      E             dE          RMSdq      gap      omega  full diag
   1    -42.6259265 -0.426259E+02  0.106E-01    0.58       0.0  T
   2    -42.6258879  0.385995E-04  0.761E-02    0.57       1.0  T
   3    -42.6257495  0.138384E-03  0.983E-02    0.59       1.0  T
   4    -42.6259413 -0.191855E-03  0.760E-03    0.58       2.6  T
   5    -42.6259428 -0.149552E-05  0.268E-03    0.58       7.5  T
   6    -42.6259429 -0.130845E-06  0.149E-03    0.58      13.4  T
   7    -42.6259430 -0.142218E-07  0.833E-04    0.58      24.0  T
   8    -42.6259430 -0.103229E-07  0.219E-04    0.58      91.3  T
     SCC iter.                  ...        0 min,  0.012 sec
     gradient                   ...        0 min,  0.013 sec
 * total energy  :   -42.1064327 Eh     change       -0.2958982E-03 Eh
   gradient norm :     0.0251916 Eh/α   predicted    -0.2578068E-03 ( -12.87%)
   displ. norm   :     0.1633427 α      lambda       -0.3449737E-03
   maximum displ.:     0.0870316 α      in ANC's #3, #5, #9, ...

........................................................................
.............................. CYCLE   49 ..............................
........................................................................

 iter      E             dE          RMSdq      gap      omega  full diag
   1    -42.6262702 -0.426263E+02  0.638E-02    0.60       0.0  T
   2    -42.6262728 -0.257280E-05  0.375E-02    0.60       1.0  T
   3    -42.6262658  0.696449E-05  0.194E-02    0.60       1.0  T
   4    -42.6262699 -0.403483E-05  0.129E-02    0.60       1.6  T
   5    -42.6262737 -0.386114E-05  0.251E-03    0.60       8.0  T
   6    -42.6262739 -0.135891E-06  0.997E-04    0.60      20.1  T
   7    -42.6262739 -0.105888E-07  0.514E-04    0.60      38.9  T
     SCC iter.                  ...        0 min,  0.010 sec
     gradient                   ...        0 min,  0.013 sec
 * total energy  :   -42.1065632 Eh     change       -0.1304766E-03 Eh
   gradient norm :     0.0103614 Eh/α   predicted    -0.1770892E-03 (  35.72%)
   displ. norm   :     0.2325722 α      lambda       -0.2527020E-03
   maximum displ.:     0.1369026 α      in ANC's #1, #2, #3, ...

........................................................................
.............................. CYCLE   50 ..............................
........................................................................

 iter      E             dE          RMSdq      gap      omega  full diag
   1    -42.6268246 -0.426268E+02  0.502E-02    0.62       0.0  T
   2    -42.6268215  0.307896E-05  0.338E-02    0.61       1.0  T
   3    -42.6267987  0.227371E-04  0.390E-02    0.62       1.0  T
   4    -42.6268236 -0.248090E-04  0.145E-02    0.62       1.4  T
   5    -42.6268294 -0.582958E-05  0.247E-03    0.62       8.1  T
   6    -42.6268295 -0.146111E-06  0.800E-04    0.62      25.0  T
   7    -42.6268295 -0.265562E-08  0.483E-04    0.62      41.4  T
     SCC iter.                  ...        0 min,  0.010 sec
     gradient                   ...        0 min,  0.014 sec
 * total energy  :   -42.1066931 Eh     change       -0.1299019E-03 Eh
   gradient norm :     0.0233294 Eh/α   predicted    -0.1331878E-03 (   2.53%)
   displ. norm   :     0.0530195 α      lambda       -0.1304638E-03
   maximum displ.:     0.0395015 α      in ANC's #5, #1, #4, ...

........................................................................
.............................. CYCLE   51 ..............................
........................................................................

 iter      E             dE          RMSdq      gap      omega  full diag
   1    -42.6282443 -0.426282E+02  0.311E-02    0.62       0.0  T
   2    -42.6282443  0.556804E-07  0.210E-02    0.62       1.0  T
   3    -42.6282363  0.792827E-05  0.233E-02    0.62       1.0  T
   4    -42.6282455 -0.913367E-05  0.943E-03    0.62       2.1  T
   5    -42.6282472 -0.177041E-05  0.289E-03    0.62       6.9  T
   6    -42.6282475 -0.244183E-06  0.443E-04    0.62      45.1  T
   7    -42.6282475 -0.181198E-08  0.273E-04    0.62      73.2  T
     SCC iter.                  ...        0 min,  0.010 sec
     gradient                   ...        0 min,  0.014 sec
 * total energy  :   -42.1067933 Eh     change       -0.1002129E-03 Eh
   gradient norm :     0.0146378 Eh/α   predicted    -0.6542429E-04 ( -34.71%)
   displ. norm   :     0.1761754 α      lambda       -0.2194689E-03
   maximum displ.:     0.1333564 α      in ANC's #1, #3, #2, ...

........................................................................
.............................. CYCLE   52 ..............................
........................................................................

 iter      E             dE          RMSdq      gap      omega  full diag
   1    -42.6289316 -0.426289E+02  0.446E-02    0.63       0.0  T
   2    -42.6289306  0.102846E-05  0.310E-02    0.63       1.0  T
   3    -42.6289145  0.160199E-04  0.337E-02    0.63       1.0  T
   4    -42.6289341 -0.196055E-04  0.135E-02    0.63       1.5  T
   5    -42.6289377 -0.352707E-05  0.400E-03    0.63       5.0  T
   6    -42.6289381 -0.450594E-06  0.627E-04    0.63      31.9  T
   7    -42.6289381 -0.356320E-08  0.373E-04    0.63      53.6  T
     SCC iter.                  ...        0 min,  0.010 sec
     gradient                   ...        0 min,  0.013 sec
 * total energy  :   -42.1069431 Eh     change       -0.1498056E-03 Eh
   gradient norm :     0.0146478 Eh/α   predicted    -0.1131428E-03 ( -24.47%)
   displ. norm   :     0.1418317 α      lambda       -0.1703328E-03
   maximum displ.:     0.1025339 α      in ANC's #1, #5, #2, ...

........................................................................
.............................. CYCLE   53 ..............................
........................................................................

 iter      E             dE          RMSdq      gap      omega  full diag
   1    -42.6282729 -0.426283E+02  0.336E-02    0.65       0.0  T
   2    -42.6282704  0.250303E-05  0.231E-02    0.65       1.0  T
   3    -42.6282573  0.130993E-04  0.304E-02    0.64       1.0  T
   4    -42.6282752 -0.178193E-04  0.388E-03    0.65       5.2  T
   5    -42.6282754 -0.286332E-06  0.110E-03    0.65      18.1  T
   6    -42.6282755 -0.260575E-07  0.490E-04    0.65      40.8  T
   7    -42.6282755 -0.262325E-09  0.293E-04    0.65      68.3  T
     SCC iter.                  ...        0 min,  0.010 sec
     gradient                   ...        0 min,  0.013 sec
 * total energy  :   -42.1070750 Eh     change       -0.1318699E-03 Eh
   gradient norm :     0.0092166 Eh/α   predicted    -0.8688203E-04 ( -34.12%)
   displ. norm   :     0.3000653 α      lambda       -0.2700141E-03
   maximum displ.:     0.2233865 α      in ANC's #1, #2, #3, ...

........................................................................
.............................. CYCLE   54 ..............................
........................................................................

 iter      E             dE          RMSdq      gap      omega  full diag
   1    -42.6271004 -0.426271E+02  0.547E-02    0.67       0.0  T
   2    -42.6270754  0.249835E-04  0.484E-02    0.68       1.0  T
   3    -42.6270868 -0.113648E-04  0.403E-02    0.67       1.0  T
   4    -42.6271105 -0.237352E-04  0.727E-03    0.68       2.7  T
   5    -42.6271117 -0.118420E-05  0.327E-03    0.68       6.1  T
   6    -42.6271120 -0.311678E-06  0.892E-04    0.68      22.4  T
   7    -42.6271120 -0.696375E-08  0.499E-04    0.68      40.1  T
     SCC iter.                  ...        0 min,  0.010 sec
     gradient                   ...        0 min,  0.013 sec
 * total energy  :   -42.1071852 Eh     change       -0.1102229E-03 Eh
   gradient norm :     0.0328449 Eh/α   predicted    -0.1471685E-03 (  33.52%)
   displ. norm   :     0.1690122 α      lambda       -0.4501585E-03
   maximum displ.:     0.0984494 α      in ANC's #5, #4, #9, ...

........................................................................
.............................. CYCLE   55 ..............................
........................................................................

 iter      E             dE          RMSdq      gap      omega  full diag
   1    -42.6255209 -0.426255E+02  0.663E-02    0.70       0.0  T
   2    -42.6255182  0.266998E-05  0.420E-02    0.70       1.0  T
   3    -42.6254771  0.410809E-04  0.507E-02    0.69       1.0  T
   4    -42.6255199 -0.428393E-04  0.165E-02    0.70       1.2  T
   5    -42.6255274 -0.743832E-05  0.342E-03    0.70       5.8  T
   6    -42.6255277 -0.275850E-06  0.102E-03    0.70      19.6  T
[...]
H            3.48476246206832       -1.59701937557217       -0.17459048583295
H           -2.01636083000676        3.00606550969901        0.49385791046880
H           -0.46164624457152        3.09453694322282       -0.48683806109435
H           -3.34646866806722        1.73669845181351        0.28959135843463
H           -1.14595170670996       -3.21477498242666        1.08726158713895
H           -1.19266354959141       -3.28060062665862       -0.70048376002214
H           -2.59980641341841       -2.69151992678790        0.21031524925653
H            1.33614783817425       -2.94657165159409        0.06842467098095

 Bond Distances (Angstroems)
 ---------------------------
C1-N2=1.4368         C1-H15=1.0921        C1-H16=1.0880        C1-H17=1.0878        N2-C1=1.4368         N2-C3=1.3459         
N2-C6=1.3794         C3-N2=1.3459         C3-N4=1.3538         C3-H18=1.0694        N4-C3=1.3538         N4-C5=1.3592         
N4-H25=1.0088        C5-N4=1.3592         C5-C6=1.4002         C5-N13=1.3578        C6-N2=1.3794         C6-C5=1.4002         
C6-C7=1.3902         C7-C6=1.3902         C7-O8=1.3453         C7-N9=1.3790         O8-C7=1.3453         O8-H20=0.9728        
N9-C7=1.3790         N9-C10=1.3431        N9-C11=1.4401        C10-N9=1.3431        C10-H19=1.0705       C10-H21=1.0658       
C11-N9=1.4401        C11-O12=1.1999       C11-N13=1.3820       O12-C11=1.1999       N13-C5=1.3578        N13-C11=1.3820       
N13-C14=1.4512       C14-N13=1.4512       C14-H22=1.0913       C14-H23=1.0911       C14-H24=1.0897       H15-C1=1.0921        
H16-C1=1.0880        H17-C1=1.0878        H18-C3=1.0694        H19-C10=1.0705       H20-O8=0.9728        H21-C10=1.0658       
H22-C14=1.0913       H23-C14=1.0911       H24-C14=1.0897       H25-N4=1.0088        
 C  H  Rav=1.0828 sigma=0.0102  Rmin=1.0658  Rmax=1.0921     9
 C  C  Rav=1.3952 sigma=0.0050  Rmin=1.3902  Rmax=1.4002     2
 N  H  Rav=1.0088 sigma=0.0000  Rmin=1.0088  Rmax=1.0088     1
 N  C  Rav=1.3844 sigma=0.0380  Rmin=1.3431  Rmax=1.4512    11
 O  H  Rav=0.9728 sigma=0.0000  Rmin=0.9728  Rmax=0.9728     1
 O  C  Rav=1.2726 sigma=0.0727  Rmin=1.1999  Rmax=1.3453     2

 selected bond angles (degree)
 --------------------
H15-C1-N2=110.45               H16-C1-N2=109.81               H16-C1-H15=109.05              H17-C1-N2=109.45               
H17-C1-H15=108.29              H17-C1-H16=109.77              C3-N2-C1=126.42                C6-N2-C1=125.62                
C6-N2-C3=107.89                N4-C3-N2=109.63                H18-C3-N2=125.33               H18-C3-N4=125.05               
C5-N4-C3=108.24                H25-N4-C3=125.13               H25-N4-C5=126.63               C6-C5-N4=107.45                
N13-C5-N4=130.17               N13-C5-C6=122.33               C5-C6-N2=106.79                C7-C6-N2=133.49                
C7-C6-C5=119.72                O8-C7-C6=123.30                N9-C7-C6=117.45                N9-C7-O8=119.25                
H20-O8-C7=108.68               C10-N9-C7=121.22               C11-N9-C7=122.71               C11-N9-C10=116.00              
H19-C10-N9=121.58              H21-C10-N9=117.82              H21-C10-H19=119.98             

 selected dihedral angles (degree)
 ---------------------------------
C3-N2-C1-H15=266.98           C3-N2-C1-H16= 27.28           C3-N2-C1-H17=147.84           C6-N2-C1-H15= 83.86           
C6-N2-C1-H16=204.16           C6-N2-C1-H17=324.73           N4-C3-N2-C1=177.79            N4-C3-N2-C6=  0.46            
H18-C3-N2-C1=357.97           H18-C3-N2-C6=180.63           C5-N4-C3-N2=359.77            C5-N4-C3-H18=179.60           
H25-N4-C3-N2=179.55           H25-N4-C3-H18=359.38          C6-C5-N4-C3=359.91            C6-C5-N4-H25=180.14           
N13-C5-N4-C3=177.27           N13-C5-N4-H25=357.49          C5-C6-N2-C1=182.14            C5-C6-N2-C3=359.50            
C7-C6-N2-C1=  2.56            C7-C6-N2-C3=179.92            N2-C6-C5-N4=  0.36            N2-C6-C5-N13=182.75           
C7-C6-C5-N4=180.01            C7-C6-C5-N13=  2.40           O8-C7-C6-N2=  3.22            O8-C7-C6-C5=183.68            
N9-C7-C6-N2=183.09            N9-C7-C6-C5=  3.56            H20-O8-C7-C6=161.54           H20-O8-C7-N9=341.67           
C10-N9-C7-C6=174.39           C10-N9-C7-O8=354.27           C11-N9-C7-C6=351.11           C11-N9-C7-O8=170.99           
H19-C10-N9-C7=343.00          H19-C10-N9-C11=166.07         H21-C10-N9-C7=171.99          H21-C10-N9-C11=355.06         
           -------------------------------------------------
          |                Final Singlepoint                |
           -------------------------------------------------

          ...................................................
          :                      SETUP                      :
          :.................................................:
          :  # basis functions                  67          :
          :  # atomic orbitals                  67          :
          :  # shells                           39          :
          :  # electrons                        74          :
          :  max. iterations                   250          :
          :  Hamiltonian                  GFN2-xTB          :
          :  restarted?                      false          :
          :  GBSA solvation                  false          :
          :  PC potential                    false          :
          :  electronic temp.         5000.0000000     K    :
          :  accuracy                    1.0000000          :
          :  -> integral cutoff          0.2500000E+02      :
          :  -> integral neglect         0.1000000E-07      :
          :  -> SCF convergence          0.1000000E-05 Eh   :
          :  -> wf. convergence          0.1000000E-03 e    :
          :  Broyden damping             0.4000000          :
          ...................................................

 iter      E             dE          RMSdq      gap      omega  full diag
   1    -42.7101998 -0.427102E+02  0.626E-05    1.47       0.0  T
   2    -42.7101998  0.125553E-10  0.532E-05    1.47     376.2  T
   3    -42.7101998 -0.345040E-10  0.396E-05    1.47     505.3  T

   *** convergence criteria satisfied after 3 iterations ***

         #    Occupation            Energy/Eh            Energy/eV
      -------------------------------------------------------------
         1        2.0000           -0.8907538             -24.2386
       ...           ...                  ...                  ...
        31        2.0000           -0.6175095             -16.8033
        32        1.9999           -0.6111291             -16.6297
        33        1.9999           -0.6049250             -16.4608
        34        1.9999           -0.6017980             -16.3758
        35        1.9992           -0.5712920             -15.5456
        36        1.9972           -0.5519842             -15.0203
        37        1.6646           -0.4732928             -12.8790 (HOMO)
        38        0.2820           -0.4193132             -11.4101 (LUMO)
        39        0.0458           -0.3885104             -10.5719
        40        0.0116           -0.3664691              -9.9721
        41        0.0001           -0.2827494              -7.6940
        42        0.0000           -0.1964325              -5.3452
       ...           ...                  ...                  ...
        67                          0.5358846              14.5822
      -------------------------------------------------------------
                  HL-Gap            0.0539796 Eh            1.4689 eV
             Fermi-level           -0.4479280 Eh          -12.1887 eV

 SCC (total)                   0 d,  0 h,  0 min,  0.024 sec
 SCC setup                      ...        0 min,  0.000 sec (  0.844%)
 Dispersion                     ...        0 min,  0.000 sec (  0.760%)
 classical contributions        ...        0 min,  0.000 sec (  0.307%)
 integral evaluation            ...        0 min,  0.005 sec ( 20.031%)
 iterations                     ...        0 min,  0.005 sec ( 19.644%)
 molecular gradient             ...        0 min,  0.014 sec ( 57.863%)
 printout                       ...        0 min,  0.000 sec (  0.501%)

         :::::::::::::::::::::::::::::::::::::::::::::::::::::
         ::                     SUMMARY                     ::
         :::::::::::::::::::::::::::::::::::::::::::::::::::::
         :: total energy             -42.188249599198 Eh    ::
         :: gradient norm              0.003807943640 Eh/a0 ::
         :: HOMO-LUMO gap              1.468860749439 eV    ::
         ::.................................................::
         :: SCC energy               -42.710199815542 Eh    ::
         :: -> isotropic ES            0.124020116749 Eh    ::
         :: -> anisotropic ES         -0.004916250903 Eh    ::
         :: -> anisotropic XC          0.011460658707 Eh    ::
         :: -> dispersion             -0.022977986655 Eh    ::
         :: repulsion energy           0.521822094012 Eh    ::
         :: add. restraining           0.000008920186 Eh    ::
         :: total charge               1.000000000000 e     ::
         :::::::::::::::::::::::::::::::::::::::::::::::::::::

           -------------------------------------------------
          |                Property Printout                |
           -------------------------------------------------

    * Orbital Energies and Occupations

         #    Occupation            Energy/Eh            Energy/eV
      -------------------------------------------------------------
         1        2.0000           -0.8907538             -24.2386
       ...           ...                  ...                  ...
        25        2.0000           -0.6672516             -18.1568
        26        2.0000           -0.6600442             -17.9607
        27        2.0000           -0.6582716             -17.9125
        28        2.0000           -0.6439605             -17.5231
        29        2.0000           -0.6260583             -17.0359
        30        2.0000           -0.6233175             -16.9613
        31        2.0000           -0.6175095             -16.8033
        32        1.9999           -0.6111291             -16.6297
        33        1.9999           -0.6049250             -16.4608
        34        1.9999           -0.6017980             -16.3758
        35        1.9992           -0.5712920             -15.5456
        36        1.9972           -0.5519842             -15.0203
        37        1.6646           -0.4732928             -12.8790 (HOMO)
        38        0.2820           -0.4193132             -11.4101 (LUMO)
        39        0.0458           -0.3885104             -10.5719
        40        0.0116           -0.3664691              -9.9721
        41        0.0001           -0.2827494              -7.6940
        42        0.0000           -0.1964325              -5.3452
        43        0.0000           -0.1824591              -4.9650
        44                         -0.1431294              -3.8947
        45                         -0.1233866              -3.3575
        46                         -0.0974688              -2.6523
        47                         -0.0656958              -1.7877
        48                         -0.0415025              -1.1293
       ...                                ...                  ...
        67                          0.5358846              14.5822
      -------------------------------------------------------------
                  HL-Gap            0.0539796 Eh            1.4689 eV
             Fermi-level           -0.4479280 Eh          -12.1887 eV

     #   Z          covCN         q      C6AA      α(0)
     1   6 C        3.690    -0.085    22.317     6.760
     2   7 N        2.822     0.051    20.354     6.701
     3   6 C        3.033     0.031    27.272     8.566
     4   7 N        2.779    -0.058    22.357     7.023
     5   6 C        3.044     0.083    26.107     8.380
     6   6 C        3.086     0.001    27.913     8.661
     7   6 C        2.788     0.150    24.736     8.147
     8   8 O        1.658    -0.364    20.157     6.061
     9   7 N        2.741    -0.013    21.499     6.886
    10   6 C        2.815    -0.087    30.155     8.997
    11   6 C        2.738     0.303    21.850     7.653
    12   8 O        0.859    -0.360    20.889     6.128
    13   7 N        2.736    -0.051    22.221     7.001
    14   6 C        3.700    -0.072    22.041     6.714
    15   1 H        0.924     0.101     1.772     2.081
    16   1 H        0.925     0.096     1.818     2.108
    17   1 H        0.925     0.114     1.664     2.017
    18   1 H        0.927     0.112     1.676     2.024
    19   1 H        0.926     0.081     1.973     2.197
    20   1 H        0.804     0.342     0.608     1.225
    21   1 H        0.927     0.111     1.689     2.033
    22   1 H        0.924     0.082     1.955     2.187
    23   1 H        0.924     0.082     1.960     2.189
    24   1 H        0.925     0.124     1.579     1.965
    25   1 H        0.860     0.223     0.998     1.565

 Mol. C6AA /au·bohr⁶  :       6633.789798
 Mol. C8AA /au·bohr⁸  :     153071.710720
 Mol. α(0) /au        :        125.268403


Wiberg/Mayer (AO) data.
largest (>0.10) Wiberg bond orders for each atom

 ---------------------------------------------------------------------------
     #   Z sym  total        # sym  WBO       # sym  WBO       # sym  WBO
 ---------------------------------------------------------------------------
     1   6 C    3.931 --     2 N    0.992    16 H    0.973    17 H    0.966
                            15 H    0.958
     2   7 N    3.592 --     3 C    1.301     6 C    1.131     1 C    0.992
     3   6 C    3.723 --     2 N    1.301     4 N    1.259    18 H    0.957
     4   7 N    3.564 --     3 C    1.259     5 C    1.198    25 H    0.922
     5   6 C    3.865 --     6 C    1.267     4 N    1.198    13 N    1.159
     6   6 C    3.938 --     7 C    1.280     5 C    1.267     2 N    1.131
     7   6 C    3.751 --     6 C    1.280     9 N    1.131     8 O    1.098
                            10 C    0.131
     8   8 O    2.100 --     7 C    1.098    20 H    0.839
     9   7 N    3.634 --    10 C    1.303     7 C    1.131    11 C    0.982
    10   6 C    3.537 --     9 N    1.303    21 H    0.964    19 H    0.960
                             7 C    0.131
    11   6 C    3.908 --    12 O    1.700    13 N    1.117     9 N    0.982
    12   8 O    2.033 --    11 C    1.700    13 N    0.147
    13   7 N    3.542 --     5 C    1.159    11 C    1.117    14 C    0.972
                            12 O    0.147
    14   6 C    3.927 --    13 N    0.972    23 H    0.972    22 H    0.971
                            24 H    0.966
    15   1 H    0.982 --     1 C    0.958
    16   1 H    0.989 --     1 C    0.973
    17   1 H    0.985 --     1 C    0.966
    18   1 H    0.986 --     3 C    0.957
    19   1 H    0.992 --    10 C    0.960
    20   1 H    0.881 --     8 O    0.839
    21   1 H    0.987 --    10 C    0.964
    22   1 H    0.990 --    14 C    0.971
    23   1 H    0.990 --    14 C    0.972
    24   1 H    0.984 --    14 C    0.966
    25   1 H    0.950 --     4 N    0.922
 ---------------------------------------------------------------------------

Topologies differ in total number of bonds
Writing topology from bond orders to xtbtopo.mol

molecular dipole:
                 x           y           z       tot (Debye)
 q only:        2.208      -0.804      -0.217
   full:        2.327      -0.957      -0.209       6.417
molecular quadrupole (traceless):
                xx          xy          yy          xz          yz          zz
 q only:        3.008      -5.660      15.070      -1.552      -2.204     -18.078
  q+dip:       -0.197     -10.290      16.908      -0.907      -1.981     -16.712
   full:       -1.172      -9.679      16.667      -0.839      -2.140     -15.495

           -------------------------------------------------
          |                Geometry Summary                 |
           -------------------------------------------------

      molecular mass/u    :      195.1988581
   center of mass at/Å    :       -0.0791857      -0.0347568       0.0079195
  moments of inertia/u·Å² :        0.4829414E+03   0.7109834E+03   0.1185248E+04
rotational constants/cm⁻¹ :        0.3490617E-01   0.2371030E-01   0.1422288E-01

 * 25 selected distances

     #   Z          #   Z                                           value/Å
     1   6 C        2   7 N                                       1.4367718
     2   7 N        3   6 C                                       1.3458533
     3   6 C        4   7 N                                       1.3538106
     4   7 N        5   6 C                                       1.3592201
     2   7 N        6   6 C                                       1.3793695
     5   6 C        6   6 C                                       1.4001968
     6   6 C        7   6 C                                       1.3901761
     7   6 C        8   8 O                                       1.3452903
     7   6 C        9   7 N                                       1.3790070
     9   7 N       10   6 C                                       1.3430576
    11   6 C       12   8 O                                       1.1999413
     5   6 C       13   7 N                                       1.3578179
    11   6 C       13   7 N                                       1.3819802
    13   7 N       14   6 C                                       1.4512134 (max)
     1   6 C       15   1 H                                       1.0920616
     1   6 C       16   1 H                                       1.0880025
     1   6 C       17   1 H                                       1.0877821
     3   6 C       18   1 H                                       1.0694432
    10   6 C       19   1 H                                       1.0704947
     8   8 O       20   1 H                                       0.9728129 (min)
    10   6 C       21   1 H                                       1.0658093
    14   6 C       22   1 H                                       1.0912755
    14   6 C       23   1 H                                       1.0910511
    14   6 C       24   1 H                                       1.0896681
     4   7 N       25   1 H                                       1.0088405

 * 6 distinct bonds (by element types)

   Z      Z             #   av. dist./Å        max./Å        min./Å
   1 H    6 C           9     1.0828431     1.0920616     1.0658093
   6 C    6 C           2     1.3951864     1.4001968     1.3901761
   1 H    7 N           1     1.0088405     1.0088405     1.0088405
   6 C    7 N          10     1.3788101     1.4512134     1.3430576
   1 H    8 O           1     0.9728129     0.9728129     0.9728129
   6 C    8 O           2     1.2726158     1.3452903     1.1999413


optimized geometry written to: xtbopt.xyz


           -------------------------------------------------
          | TOTAL ENERGY              -42.188249599198 Eh   |
          | GRADIENT NORM               0.003807943640 Eh/α |
          | HOMO-LUMO GAP               1.468860749439 eV   |
           -------------------------------------------------

------------------------------------------------------------------------
 * finished run on 2024/06/05 at 19:59:23.864     
------------------------------------------------------------------------
 total:
 * wall-time:     0 d,  0 h,  0 min,  3.286 sec
 *  cpu-time:     0 d,  0 h,  0 min,  3.262 sec
 * ratio c/w:     0.993 speedup
 SCF:
 * wall-time:     0 d,  0 h,  0 min,  0.037 sec
 *  cpu-time:     0 d,  0 h,  0 min,  0.037 sec
 * ratio c/w:     1.000 speedup
 ANC optimizer:
 * wall-time:     0 d,  0 h,  0 min,  3.218 sec
 *  cpu-time:     0 d,  0 h,  0 min,  3.214 sec
 * ratio c/w:     0.999 speedup

