25
 energy: 0.000000000000 xtb: 6.6.1 (8d0f1dd)
C            3.23720132972391        1.16630909158653        0.08434468864950
N            2.29877796055224        0.07527476373246        0.03981602671198
C            2.58028186251803       -1.21425391179017        0.03006175752192
N            1.43813944744728       -1.93419254010258        0.00098261751768
C            0.39035684826767       -1.05887462812143       -0.00790371763344
C            0.93510047688824        0.21347817468824        0.01709077332874
C            0.09450143016486        1.40504290868848       -0.00410946993748
O            0.49712746915594        2.54126690785742       -0.00342325656480
N           -1.25076628431515        1.06271869620815       -0.03085477937476
C           -2.21907191394203        2.15522079838987       -0.05001256521996
C           -1.81739470187490       -0.20012724136556       -0.04692818139228
O           -2.99983858926755       -0.37846413507442       -0.07008877579474
N           -0.92618577614240       -1.30210203518959       -0.03682761236648
C           -1.46982251276835       -2.64643077634382       -0.06029819901142
H            3.71247229913541        1.21471443890471        1.06488839270555
H            4.00791460421487        1.03430799217987       -0.67357688121503
H            2.69909982127087        2.09770098766290       -0.09130154035862
H            3.56654087521359       -1.63682977417947        0.04233139674524
H           -1.67107945562430        3.09322822573871       -0.02552706696334
H           -2.82428927394145        2.09428605349656       -0.95318074103337
H           -2.87644002486466        2.07745706351925        0.81450059976605
H           -1.17061985538665       -3.19584861009707        0.83242224714061
H           -1.14560246782873       -3.17511580834413       -0.95688266944647
H           -2.55549768731684       -2.55659960601237       -0.07459039105944
H            1.38130842369251       -2.94313824728853       -0.01389874052104
25
 energy: -5.585783228710 xtb: 6.6.1 (8d0f1dd)
C            3.24265724754694        1.17760968238550        0.08799931878573
N            2.30517102489916        0.10408327201869        0.03564851385654
C            2.60254433032976       -1.23917322006163        0.03370063058974
N            1.41740846725543       -1.93402785959156        0.00794831924374
C            0.38908981886927       -1.06278882025703       -0.00213385214253
C            0.91726707722637        0.22586141376725        0.01594577382131
C            0.11739647093173        1.38719903228955       -0.00479208627645
O            0.49624329277871        2.56179532457539       -0.00321332567950
N           -1.26769888529738        1.05076405262079       -0.03485898048666
C           -2.21371333697653        2.15327555863609       -0.05520859133698
C           -1.82466156369125       -0.19190180398440       -0.04993816748177
O           -3.02449627919560       -0.37229430137428       -0.07729909699077
N           -0.95864005335680       -1.30369597243089       -0.02985697342425
C           -1.50352939205728       -2.64975550651426       -0.05343730787701
H            3.72758265631532        1.22252776030040        1.06827982220015
H            4.01100196937693        1.05102238402207       -0.67837005669848
H            2.69937790508954        2.10640936464190       -0.08091558651433
H            3.58173881943161       -1.65197901892386        0.04850621945565
H           -1.65007219498228        3.08337653262880       -0.02823582701602
H           -2.81705737409841        2.10289479523611       -0.96105360444491
H           -2.87299444843196        2.08665907970300        0.80959320697747
H           -1.11532864147482       -3.22623084601703        0.78777130474762
H           -1.23019149510790       -3.15163371307040       -0.97719552007710
H           -2.59610749488504       -2.65434393873027       -0.02474197136831
H            1.36829041615467       -2.93726400465876       -0.00445791526376
25
 energy: -3.536561715865 xtb: 6.6.1 (8d0f1dd)
C            3.24482588727114        1.18408139096704        0.08979198931956
N            2.30629072809547        0.10790269355993        0.03661940161099
C            2.60612615196239       -1.23687422925271        0.03661710162611
N            1.41874643224243       -1.92948655349411        0.01958638090355
C            0.38104277964945       -1.06780366380617        0.00976252026005
C            0.91366047330234        0.22528952681599        0.01842943142807
C            0.12055982609546        1.38778750579769       -0.00446476402112
O            0.49960686536842        2.56310914124996       -0.00191651122792
N           -1.26652711280509        1.05103606950376       -0.04079451536946
C           -2.20713715590910        2.15703777177694       -0.06160705533670
C           -1.83025208760382       -0.18872289740130       -0.05319034948650
O           -3.03142287943418       -0.36036554120856       -0.08806290526720
N           -0.97697615736745       -1.31096044509623       -0.01563221985073
C           -1.53300019883963       -2.66518529669762       -0.04767604927812
H            3.73981774720887        1.22723215058310        1.06623495067671
H            4.00974113291384        1.06716140332933       -0.68243011525694
H            2.70200220877974        2.11521151714087       -0.06969701504729
H            3.58746903068520       -1.64999282847029        0.05971401839370
H           -1.63793155914595        3.08342939786551       -0.03302188112613
H           -2.80875794103814        2.10980272812155       -0.96851120193721
H           -2.86758002495957        2.09451153658928        0.80278536052024
H           -1.05978950600010       -3.26206870598215        0.73593311556794
H           -1.32396782571733       -3.12499498703005       -1.00911134901932
H           -2.62540864431722       -2.75346137795617        0.04327646121973
H            1.37407174971535       -2.93239917081984        0.00785241611367
25
 energy: -0.554726480981 xtb: 6.6.1 (8d0f1dd)
C            3.24666394336820        1.19017053560205        0.09236330446229
N            2.30763808811529        0.11199338618402        0.03802877748355
C            2.61175761995558       -1.23349005282995        0.04217685892384
N            1.42441642854626       -1.92670698452312        0.03170107579456
C            0.37685194298850       -1.07467663343862        0.02362536722880
C            0.91037014575280        0.22302098692496        0.02429751155381
C            0.12347032688304        1.38718827529448       -0.00391604072233
O            0.50199071148527        2.56374884994358       -0.00151765897858
N           -1.26382860454860        1.04992657790822       -0.04724995407142
C           -2.19985045621819        2.16011623195079       -0.06790838306977
C           -1.82980713078393       -0.19132495026768       -0.05643606084604
O           -3.03291310048190       -0.35202312141205       -0.10186974440225
N           -0.99017858378519       -1.32254300573324        0.00760443053517
C           -1.56054301329674       -2.68541421435459       -0.03902674073559
H            3.75054695220738        1.23027598104760        1.06528850139692
H            4.00787832581656        1.08177950496827       -0.68560815878475
H            2.70340687076287        2.12263586927158       -0.05815812235657
H            3.59492326301367       -1.64552476360043        0.07176348052773
H           -1.62310045295788        3.08175016947391       -0.03719421878051
H           -2.79967533032735        2.11830097212293       -0.97601388776078
H           -2.86238549939681        2.10363724518865        0.79568297527214
H           -1.00430671704676       -3.29739410389884        0.67865758493907
H           -1.41969305431693       -3.09440034756278       -1.03668733994428
H           -2.64593389738157       -2.85068573631247        0.12001914570907
H            1.38822167312373       -2.92979180913625        0.01849890019621
25
 energy: 2.953457052512 xtb: 6.6.1 (8d0f1dd)
C            3.24910727979314        1.19672005750074        0.09510432088175
N            2.30969931459789        0.11657878395296        0.04038132265743
C            2.61774829890855       -1.22870111295503        0.05076215169686
N            1.43195994200058       -1.92475350831156        0.04350770122003
C            0.37487322243902       -1.08206763030649        0.03879122903833
C            0.90930471457068        0.21931715061893        0.03414401750590
C            0.12792452806006        1.38590553697684       -0.00159964471094
O            0.50664111877422        2.56350666710214        0.00163251864222
N           -1.25938185943247        1.04925173317179       -0.05030131700126
C           -2.19248369210138        2.16267498699113       -0.07434083213435
C           -1.82757550848853       -0.19475623481659       -0.05672966257348
O           -3.03196976577836       -0.34516993478919       -0.11706671692934
N           -0.99989145920553       -1.33489342702924        0.03419555279501
C           -1.58600723467755       -2.70800648492823       -0.03032540851008
H            3.76317081793887        1.23327581540786        1.06357260202615
H            4.00572707239328        1.09704726568135       -0.68940186704125
H            2.70526298982190        2.13045144159850       -0.04561843479355
H            3.60281745585130       -1.63715949965078        0.08388627427080
H           -1.61003577121827        3.08095047845515       -0.04335389228483
H           -2.79111046195412        2.12404765434568       -0.98328649436601
H           -2.85688721723679        2.11222457687959        0.78857452416467
H           -0.95430227338933       -3.33330131312881        0.61432358393955
H           -1.51950426773388       -3.06132368675425       -1.05983814409822
H           -2.65570473879773       -2.94400525678156        0.20666880694175
H            1.40280766914745       -2.92811210138825        0.02810000950407
25
 energy: 7.373497915782 xtb: 6.6.1 (8d0f1dd)
C            3.25063246156274        1.20413994626247        0.09745064955432
N            2.31224908223987        0.12158894906400        0.04230659802078
C            2.62493169769827       -1.22239607092584        0.05990604798524
N            1.44142335703097       -1.92283996476150        0.05461606804188
C            0.37467535299374       -1.09031985130177        0.05428252295802
C            0.90996699969176        0.21458688456880        0.04202589653628
C            0.13348361223633        1.38358910915316        0.00085114759731
O            0.51195521817423        2.56232393327119        0.00318004229696
N           -1.25368162738511        1.04636789137502       -0.04821455710250
C           -2.18362257365189        2.16490390248744       -0.07909324478655
C           -1.82371223327448       -0.20024918070452       -0.05034233547045
O           -3.02796424096401       -0.34256953508040       -0.13169233415235
N           -1.00653521568693       -1.35009774828470        0.06321556738563
C           -1.61235057121198       -2.73548286903714       -0.02142980652806
H            3.77241326816732        1.23812428139245        1.06257175666080
H            4.00309753341573        1.11241958025308       -0.69274956633223
H            2.70450137498699        2.13769556072930       -0.03588599455028
H            3.61210692434237       -1.62667129344755        0.09337251001122
H           -1.59603895814331        3.08034194047583       -0.04452688983181
H           -2.77858141908912        2.13253967044234       -0.99086931165014
H           -2.85275905088515        2.12027311812990        0.78076839208310
H           -0.91573886037437       -3.37220345223978        0.54318400774450
H           -1.61695406630905       -3.02903878180105       -1.07383266005486
H           -2.66332730702054       -3.04154113132835        0.28550169401962
H            1.41942188229118       -2.92641540622348        0.03699361754513
25
 energy: 12.258315803855 xtb: 6.6.1 (8d0f1dd)
C            3.25308016114986        1.21164616562300        0.10018699937989
N            2.31444109342536        0.12805679074971        0.04464637457219
C            2.62982298863115       -1.21404149216285        0.06540372832544
N            1.45053141334831       -1.92045329977470        0.06474455100300
C            0.37559684212790       -1.09717602273138        0.07022954510067
C            0.91089317509498        0.21080935841333        0.05102389158303
C            0.13727970805519        1.37977623706687        0.00433231805124
O            0.51492666399381        2.55795987241945        0.00544901291853
N           -1.24945124210853        1.04229181751242       -0.04479160656166
C           -2.17622877443444        2.16591809126931       -0.08529271933733
C           -1.81934856939610       -0.20723810347313       -0.04429092623447
O           -3.02235293690037       -0.34431188618726       -0.14550847709864
N           -1.01022848018457       -1.36377026706288        0.09284118803119
C           -1.63112472223571       -2.75860989233234       -0.01700060499865
H            3.78558202512786        1.24026962409310        1.06009202403749
H            3.99930263484756        1.12801719192709       -0.69721990034056
H            2.70637787875732        2.14618245954724       -0.02258310270238
H            3.61941510180896       -1.61386953261391        0.10012392828329
H           -1.58387510825782        3.07905809785809       -0.05119657690363
H           -2.76902691253289        2.13709252275540       -0.99882195887455
H           -2.84844028714383        2.12873442076194        0.77271191819041
H           -0.88460195957625       -3.40971551061426        0.46227812552992
H           -1.71304715569516       -2.98924365542805       -1.08362620072102
H           -2.65314836747834       -3.14788495328254        0.34803923938879
H            1.43572672759782       -2.92430782236426        0.04487058310841
25
 energy: 16.673687042181 xtb: 6.6.1 (8d0f1dd)
C            3.25653336832703        1.21903247242226        0.10479733718473
N            2.31681142462594        0.13583908088336        0.04781598998425
C            2.63338223442587       -1.20420822941467        0.06792644678390
N            1.45888777714558       -1.91699387584841        0.07327770756811
C            0.37829867853075       -1.10021741105665        0.08534235814245
C            0.91309435299624        0.20999874907633        0.05999029205282
C            0.14096078636977        1.37814986668393        0.00714299692503
O            0.51947578630113        2.55547555202087        0.00095784085206
N           -1.24575491531577        1.03966463001572       -0.04030756397670
C           -2.16922825438883        2.16778966322199       -0.09235959326466
C           -1.81466830337127       -0.21127706026503       -0.03738311307762
O           -3.01560189423892       -0.34720760468107       -0.15651351461029
N           -1.01022856713678       -1.36996903723626        0.12020799231644
C           -1.63918826892115       -2.76097098844408       -0.02190602065480
H            3.80020796717205        1.23875585761874        1.05885493342750
H            3.99580985392725        1.14333067343118       -0.70025049547993
H            2.71037432592956        2.15532426359422       -0.00499082813660
H            3.62522281994976       -1.59936519154604        0.10194551104819
H           -1.57094684267099        3.07776726597774       -0.06165222934703
H           -2.76047817143349        2.14056189620650       -1.00722968982668
H           -2.84375991512707        2.13992743401490        0.76440991294070
H           -0.86551668903138       -3.42669669100430        0.37847542628806
H           -1.81004167990789       -2.94736227850472       -1.08376371611440
H           -2.62128962310177       -3.24685828630356        0.41620981786565
H            1.45150900484712       -2.92114487411659        0.04795757138907
25
 energy: 18.518992445372 xtb: 6.6.1 (8d0f1dd)
C            3.25851311910778        1.22721154415595        0.10624864156307
N            2.31910150172468        0.14357792580637        0.05098777709827
C            2.63598953750339       -1.19452190186503        0.07176340862500
N            1.46686336897467       -1.91367867345301        0.08443762359242
C            0.38284622225099       -1.10092037879233        0.09938054642585
C            0.91570185384607        0.21110484377391        0.06867467291438
C            0.14515074752840        1.37880101096954        0.01018127374122
O            0.52675502305419        2.55435144553784       -0.00174608853315
N           -1.24190426532722        1.03800170835198       -0.03670964613335
C           -2.16180166672403        2.17038423845713       -0.09684451774968
C           -1.80849578063752       -0.21390980994646       -0.03385351030535
O           -3.00675407369942       -0.35099091483804       -0.17405794038041
N           -1.00509396404510       -1.37333503925190        0.14676287884391
C           -1.63310016382292       -2.76041598427972       -0.01705953108756
H            3.81221437974934        1.24220058755568        1.05467903570497
H            3.99073094868650        1.15831412262519       -0.70629829300535
H            2.71003872738399        2.16306148241030        0.00594025636352
H            3.62939566090351       -1.58488960208936        0.10976359615546
H           -1.55873003568894        3.07771204709549       -0.06365842643883
H           -2.74949625902709        2.14849740398634       -1.01431107224639
H           -2.83996722271290        2.14679567700765        0.75720160891310
H           -0.83939831861912       -3.43771821302646        0.29032365906845
H           -1.90036842324415       -2.90152526749179       -1.06586307343303
H           -2.54872805832076       -3.31475846469178        0.46646626654535
H            1.46712631838919       -2.91814789767324        0.05452898131085
25
 energy: 20.616254300906 xtb: 6.6.1 (8d0f1dd)
C            3.26204843873116        1.23607318027559        0.10570949631988
N            2.32209616042602        0.15319130148236        0.05441560597646
C            2.63912199543854       -1.18305431929655        0.07049857640926
N            1.47630265420544       -1.90893342418049        0.09626738390390
C            0.39074232922988       -1.09852579132360        0.11607919978851
C            0.91906590305388        0.21573278232806        0.07676347756473
C            0.14764102466136        1.38208127328269        0.01476047955021
O            0.52919592214007        2.55759888945613       -0.00523120895255
N           -1.23924454432086        1.03530190580100       -0.03156332011283
C           -2.15542726031809        2.17192796535053       -0.10323484739001
C           -1.80104253142913       -0.21863165250021       -0.02325743312872
O           -2.99617187088516       -0.36070018396459       -0.18347073135754
N           -0.99404923816018       -1.37624037858909        0.17809939088036
C           -1.61663615745963       -2.76386586303529       -0.00429293535664
H            3.82799434005362        1.24398723066685        1.04690646162320
H            3.98506623859029        1.17218764548285       -0.71563118611714
H            2.71283481099645        2.17250894687820        0.01721270495776
H            3.63286184632124       -1.56969182076629        0.12277571934561
H           -1.54592013892039        3.07581088941668       -0.07248322102343
H           -2.74012281659486        2.15226853546539       -1.02283001473867
H           -2.83629667325436        2.15754892682683        0.74905073065510
H           -0.80790443347958       -3.45566893038489        0.19488011704969
H           -1.98537287507911       -2.83666317932917       -1.03561346237489
H           -2.46084394453360       -3.39188298283052        0.51106797250744
H            1.48284039810645       -2.91370312368682        0.06315609481646
25
 energy: 25.859339926578 xtb: 6.6.1 (8d0f1dd)
C            3.26345495654008        1.24160600652404        0.10460769411532
N            2.32668827058497        0.15388233385185        0.05970808101330
C            2.64525677516666       -1.18150972752364        0.07425086829944
N            1.48460681568376       -1.90879357013120        0.10982622920540
C            0.39820814582089       -1.09936947734658        0.13250923530493
C            0.92446901331341        0.21612494437510        0.08456627845121
C            0.14914736992250        1.38087748554695        0.01936722639251
O            0.53129430960418        2.55696044628946       -0.00999505007719
N           -1.23626395883680        1.03339861911754       -0.03034017311339
C           -2.14860998230752        2.17406153914692       -0.10909190193669
C           -1.79382944244408       -0.22160133495060       -0.01579132627735
O           -2.98596092088705       -0.37017556627546       -0.19305320723247
N           -0.98575581785102       -1.37773985959501        0.20605109083471
C           -1.62360172838645       -2.76491123582618        0.00441108917811
H            3.84165895495375        1.24537706150361        1.03802197322861
H            3.97679328576232        1.18632236332166       -0.72596127129719
H            2.71120870430403        2.17772662552040        0.02856416795063
H            3.63746026676150       -1.56067448763956        0.12949766527960
H           -1.53343412458918        3.07464992210885       -0.07979867972933
H           -2.73047187323784        2.15590657939444       -1.03052374069473
H           -2.83147219465587        2.16537905567168        0.74192992845446
H           -0.79825655915247       -3.45820933991247        0.11776612989448
H           -2.04756643684391       -2.76830897127718       -1.01323441315687
H           -2.49924801498704       -3.45272665684395        0.48725832774880
H            1.49475970865304       -2.91327003157716        0.07616224926100
25
 energy: 34.685563197118 xtb: 6.6.1 (8d0f1dd)
C            3.26464800962201        1.24637474648022        0.10259144465651
N            2.33225367593389        0.15117912860786        0.05917968008699
C            2.65411323847644       -1.18427127991219        0.07368962427315
N            1.49208761835463       -1.91013603145682        0.12365045839125
C            0.40633206246788       -1.10057066979192        0.13988015921108
C            0.93003078401133        0.21601643526854        0.08231233861294
C            0.15090911434188        1.37732296598464        0.01869663719098
O            0.52906312865031        2.55495913045706       -0.01688632927120
N           -1.23355872909623        1.03313753635898       -0.03096038250034
C           -2.14102741180208        2.17757900202610       -0.11476534489331
C           -1.78729167274199       -0.22188065981229       -0.01628360946566
O           -2.97603415889552       -0.38150682018988       -0.20364893179246
N           -0.97837416196308       -1.37726061353833        0.23641433776736
C           -1.63046832754640       -2.76131742114625        0.02014159599756
H            3.85401294582028        1.24625485051125        1.02872091291868
H            3.97072718350383        1.20146469051904       -0.73484255541613
H            2.71067284881164        2.18281483869343        0.03822982634485
H            3.64558340016554       -1.56356793482838        0.14317522353287
H           -1.51853789799522        3.07365144358425       -0.08367073239228
H           -2.71895213689145        2.16545249495002       -1.03854505394097
H           -2.82655809019056        2.17345764712255        0.73420498089561
H           -0.80473708496920       -3.45623901073222        0.04254903424891
H           -2.10872129285252       -2.69802976355275       -0.96692898059887
H           -2.55245128363900       -3.53274157773491        0.46573463363407
H            1.50632347013984       -2.91397825131355        0.08857715203364
25
 energy: 48.532701299603 xtb: 6.6.1 (8d0f1dd)
C            3.26596971143192        1.25109577808714        0.10025860733034
N            2.33809984592640        0.15013639909626        0.05624012270949
C            2.66275489209921       -1.18612694104818        0.06327579348423
N            1.49928804346546       -1.91073602616482        0.13254217876574
C            0.41601071223489       -1.09790042402406        0.14153800495449
C            0.93714586975420        0.21852140982855        0.07841779337105
C            0.15544801242899        1.37832807904293        0.01259589102758
O            0.53271102443331        2.55643165938066       -0.01970515948961
N           -1.22780477363988        1.03498218325144       -0.03453442610298
C           -2.13479031757441        2.17932403780515       -0.12296328083723
C           -1.77843895153977       -0.22096825618673       -0.01569471072835
O           -2.96734698229893       -0.38636281175249       -0.19821510052107
N           -0.96463667624751       -1.37729049839340        0.23964635101744
C           -1.62738567139691       -2.74133341079723        0.02702801100313
H            3.86441580932396        1.24385708676641        1.01999180951712
H            3.96423789382262        1.21633920878048       -0.74354235576540
H            2.71061462836515        2.18818408402409        0.05123523329576
H            3.65415031476780       -1.56593611706426        0.15471155319015
H           -1.50923287036973        3.07452237386205       -0.09221334141997
H           -2.71095258037117        2.16658399622046       -1.04743355202280
H           -2.82026405119925        2.18122500978333        0.72650908087704
H           -0.81825716460521       -3.44295528676413       -0.02825165122519
H           -2.16938002312948       -2.63064690505330       -0.91755828327726
H           -2.63862389254068       -3.62980445952479        0.43767295746573
H            1.51662556574210       -2.91416920097173        0.10149526012994
25
 energy: 73.562454032336 xtb: 6.6.1 (8d0f1dd)
C            3.26804960394312        1.25312463581963        0.09631271562821
N            2.34491312064601        0.14844652366816        0.05536885075218
C            2.66393669915154       -1.17507176383506        0.05784088405956
N            1.50945305449379       -1.90443207755590        0.11951534382656
C            0.42593249472124       -1.08016540485257        0.13094754848783
C            0.95158806605528        0.23022298010224        0.07385413021271
C            0.15760786921524        1.39132817937752        0.00885488015717
O            0.53926547816653        2.56300001135991       -0.02576370076339
N           -1.21361969384933        1.04745163438754       -0.03689146355460
C           -2.13115093202924        2.18194331044174       -0.13080374021914
C           -1.76591601293385       -0.21459893988717       -0.02007947510804
O           -2.95526058387559       -0.38007480689037       -0.17543077936253
N           -0.92677506801823       -1.35747702964659        0.19307650827651
C           -1.56659440094158       -2.66438703955927        0.01906407084071
H            3.87149213081712        1.23830638441397        1.00984116432051
H            3.95601012876570        1.22520439188249       -0.75344336848108
H            2.71109074838309        2.19112443273859        0.06266491730206
H            3.65528118246588       -1.56289590522162        0.16217730935515
H           -1.51230369961585        3.08066169875662       -0.10652659010841
H           -2.70519121821598        2.15968823537757       -1.05679441494076
H           -2.81661210779136        2.18534794812543        0.71821076015795
H           -0.82590371278688       -3.42978990900142       -0.09385876791183
H           -2.23807749397943       -2.56651133629422       -0.84717005587511
H           -2.84311735234179       -3.86258323051633        0.39475461903247
H            1.51736251208532       -2.90996376088079        0.11558318335741
25
 energy: 81.963431384688 xtb: 6.6.1 (8d0f1dd)
C            3.26985778339607        1.25229214723483        0.09205546096034
N            2.35118813153905        0.14624247515297        0.05660020301771
C            2.66686642525572       -1.16834878341992        0.05330858228620
N            1.51992284556639       -1.89999959006204        0.11762026801528
C            0.43456853221350       -1.06788703238138        0.12007479314130
C            0.96309246103358        0.24056028538027        0.06601089011959
C            0.16241401870412        1.40069412918407        0.00276845213283
O            0.54312403209713        2.57092810518156       -0.02942430100201
N           -1.20401232319870        1.05358094290970       -0.04149458220554
C           -2.13102907627156        2.17766437129455       -0.13666886567202
C           -1.75576878241267       -0.20929297371463       -0.02368568562291
O           -2.94588570800534       -0.37858323640772       -0.15746530369024
N           -0.90217962699045       -1.34664112243058        0.16318948902782
C           -1.52906121482800       -2.62410049803793        0.01183008211725
H            3.87316084803834        1.22949589709118        1.00235460510537
H            3.94789359633592        1.22945201746012       -0.76268964064836
H            2.70800092907846        2.18616057697846        0.06780328363819
H            3.65682764753058       -1.55810028090057        0.17847759196737
H           -1.52169730297798        3.08153597765833       -0.11466834365737
H           -2.70549556182828        2.14754596705409       -1.06177874322641
H           -2.81754452211078        2.18409111256082        0.70912536994650
H           -0.82809292277111       -3.41864226129003       -0.17456645773647
H           -2.30418909404748       -2.51024857267363       -0.77055884229026
H           -2.99610089590316       -4.01326137837463        0.32892497788933
H            1.51584169636824       -2.90753768643865        0.12938061480423
25