72
 energy: 0.000000000000 xtb: 6.6.1 (8d0f1dd)
N           -1.47310921155849        2.74401293103706        2.22063921685122
C           -1.55658879776851        2.16490285539332        1.13274273951491
C           -2.74549199786261        2.05621232186130        0.23826248438941
C           -3.31377553111525        0.64333411542669        0.32332512650568
C           -4.30230156009016        0.24487110156316       -0.58026161703006
C           -4.85238763031941       -1.02286490450319       -0.53363588718165
O           -5.81419972815119       -1.48606034185536       -1.36157882725342
C           -6.39655633239252       -0.60827000183299       -2.29568474302620
C           -4.39972501531283       -1.94646102182611        0.44396929121966
O           -4.98748311285188       -3.16145997157803        0.41085992006324
C           -4.66362127904578       -4.10093827755394        1.40909127743729
C           -3.42072513477031       -1.54561384810496        1.33436546260297
C           -2.88302799614223       -0.26315800396994        1.27400150770375
C           -2.19303798107274        2.30467000305896       -1.18742977106749
C           -1.26651538239283        1.17243369445008       -1.65249429687285
C            0.01082524939134        1.09745454476277       -0.89354803499847
N            0.61779393476578       -0.02034948052406       -0.57705522512502
C            2.00145210352228       -0.02376006389122       -0.15611399603240
C            2.92554934655222       -0.53865282675074       -1.27700088804721
C            4.35756843073516       -0.43050757231754       -0.83075544324989
C            5.07346135469827        0.73206409086248       -1.03980965825901
C            6.38627986649936        0.84224441421807       -0.60344822702769
C            7.00047264773336       -0.20824756335880        0.05722314418200
O            8.26703657141718       -0.21011313101264        0.52410943644933
C            9.06912227848686        0.92943601033931        0.31863058007678
C            6.27039964270142       -1.40439753960823        0.28033466008274
O            6.94829939911432       -2.38012925705718        0.92751999079483
C            6.31537317745639       -3.61583200086742        1.15217711710877
C            4.96302794628964       -1.49347471867959       -0.16064430359178
C           -0.05511211367372       -1.29906247805359       -0.62085686319744
C           -3.86758037025447        3.07992600430699        0.58498060215443
C           -4.49286159663096        2.77383493050346        1.94313289484366
C           -3.39165179876499        4.52917666589254        0.54797523472093
H           -4.66030026466202        0.94509067363451       -1.31640568823548
H           -6.85037928558380        0.25803162192116       -1.80468845313260
H           -7.17287442604349       -1.18600110843259       -2.79318157561361
H           -5.66836817451085       -0.26952966318766       -3.04040255244073
H           -4.88416720672258       -3.71589460520039        2.40913542187496
H           -5.29223570620378       -4.96637458756866        1.20969236903657
H           -3.61139813139015       -4.39919835331056        1.35529357841967
H           -3.07077796610445       -2.21868765711333        2.10002662693138
H           -2.14562754426994        0.02067850696302        2.01001344383370
H           -3.02188875377605        2.38238012313952       -1.88813545054866
H           -1.65198530896729        3.25146700677685       -1.20556284570283
H           -1.81103374245520        0.23006524641044       -1.62116301628650
H           -0.99335688527853        1.37490212198123       -2.69443256973690
H           -0.67628064361333        1.65183887049447        0.61785727145403
H            0.63525841192517        1.98466369793744       -0.92314021190751
H            2.11132552493482       -0.65949692842762        0.72532613231274
H            2.30680473056284        0.98978251704176        0.11078972794250
H            2.76694198818247        0.06750735147374       -2.17075252200790
H            2.67954581369920       -1.57455627803457       -1.51167743520200
H            4.62169998552446        1.56295612048703       -1.56123579000624
H            6.92357674630170        1.75715815945204       -0.79119596719031
H            8.65159112996149        1.81001823324363        0.81701555159939
H            9.20136171144928        1.14042857828877       -0.74698991949293
H           10.03428838009630        0.69003240176163        0.76064937965836
H            7.05567174969094       -4.23621171795340        1.65347565939075
H            5.43848001056755       -3.50813558175093        1.79970565785717
H            6.02060041905269       -4.09420497120334        0.21253282636366
H            4.40102758497114       -2.40127266373392       -0.00490198249042
H           -0.22071299714579       -1.61775583601871       -1.65116008982042
H           -1.01972258008625       -1.24102717432227       -0.10935206830928
H            0.55899954147532       -2.04486085926761       -0.12333730421426
H           -4.63991875734388        2.95501092798550       -0.18098088071825
H           -3.76095216473977        2.90314704960906        2.73380821053058
H           -4.87457614030224        1.75695641518947        1.97884603101694
H           -5.31925552549014        3.45579210326349        2.12325564252114
H           -2.60025590131176        4.69225046143352        1.27368918226171
H           -3.03987406413880        4.81897652321898       -0.43870975059559
H           -4.22191740670577        5.18069648090034        0.80616693961239
H           -0.59832433787845        2.77744694953323        2.72958984441332
72
 energy: -5.733888104781 xtb: 6.6.1 (8d0f1dd)
N           -1.49173387721358        2.78095454306210        2.23403823169098
C           -1.55302160956194        2.14733140389268        1.15102874270409
C           -2.74840964609256        2.05845809088202        0.24671862244269
C           -3.32013484340422        0.64841215320513        0.32813970461141
C           -4.30726719706700        0.24620820100958       -0.57420103305457
C           -4.85686350497521       -1.02031550060914       -0.52628731813571
O           -5.82620588856979       -1.48804819350968       -1.36185137032770
C           -6.39658941366516       -0.60951971462792       -2.29747305098374
C           -4.41155213891982       -1.93899998260098        0.45042382103780
O           -5.00861888493969       -3.16320831091145        0.41875059258218
C           -4.68434925666257       -4.09424248302457        1.41884187393562
C           -3.43696571972990       -1.53974598115504        1.34434389635548
C           -2.89776174396474       -0.25911382278313        1.28253582080092
C           -2.19890043000485        2.30039907508759       -1.18433526350302
C           -1.27491017960644        1.17522095638161       -1.67788813621272
C           -0.00554654544417        1.11093079568006       -0.91162215692049
N            0.62069843318439       -0.07235225882488       -0.58200683220622
C            1.99328690497525       -0.06821882499625       -0.18557339701707
C            2.94747172272085       -0.57229053125501       -1.30272554210082
C            4.37684578812061       -0.40810836500288       -0.84710731036246
C            5.10098229430613        0.75935252581654       -1.02926855527514
C            6.41430751814213        0.86379002035446       -0.58497343842912
C            7.02422516764378       -0.19299378525813        0.06598348921560
O            8.30348151009028       -0.20795626419375        0.53453269165805
C            9.10588336768463        0.92672159809731        0.33510580634762
C            6.29005967862399       -1.38064570921566        0.28195212545837
O            6.96830157862577       -2.37082980909262        0.92718026254583
C            6.32383777506748       -3.59901254413846        1.14203029420053
C            4.98655453011245       -1.46453499310033       -0.16534433482411
C           -0.07961024146331       -1.32206470185009       -0.63484491605624
C           -3.87050300718933        3.07712659641642        0.58679740689306
C           -4.49324109733555        2.77890546660232        1.94926274681576
C           -3.39317342674682        4.52797830926083        0.54898205437515
H           -4.65853403581538        0.94370412737026       -1.31664490894953
H           -6.84984185374132        0.26121439722613       -1.81168997456053
H           -7.17350603240489       -1.18538324392316       -2.79801954253374
H           -5.66433411408957       -0.27278019935720       -3.03954823380791
H           -4.90545112794922       -3.70693410087387        2.41917674419625
H           -5.31297594638788       -4.96137379977567        1.22198957306724
H           -3.63159102845766       -4.39343341600318        1.36974049733658
H           -3.08927132821907       -2.21422884842592        2.11100578387306
H           -2.15862120482243        0.02527910798792        2.01545953715361
H           -3.03124590169920        2.39304832681821       -1.88281845518652
H           -1.64779783444105        3.24231151280497       -1.19896194283492
H           -1.82064074781806        0.23292860123544       -1.63660627163529
H           -1.02635317959748        1.37918881126955       -2.72689629555042
H           -0.69038790735812        1.63725086790827        0.65519096549956
H            0.64331982392006        1.97017349797138       -0.96339149958456
H            2.10759596602172       -0.70143438870294        0.70163120823266
H            2.28959657681958        0.94894386460008        0.08334839215043
H            2.75656797480604        0.02482457684636       -2.19657770786936
H            2.69453898154506       -1.61548388918842       -1.53326624972578
H            4.65816867588152        1.60075302970051       -1.54084567977392
H            6.96084751658499        1.77657949578713       -0.76611884229082
H            8.69505826190856        1.80829493934655        0.83870470762174
H            9.24156057269314        1.14567866340329       -0.72937730181549
H           10.07065751987546        0.68064753449512        0.77560560765857
H            7.05964185828362       -4.22910811260762        1.63900839738760
H            5.44684248567518       -3.48932336058806        1.78954183232053
H            6.02363062584385       -4.07007940103860        0.19964221014097
H            4.42073702407286       -2.36936215830497       -0.00850264929608
H           -0.25853140293500       -1.63935963445259       -1.66784591383062
H           -1.04378114013352       -1.25002060663956       -0.12145359411609
H            0.52456230041608       -2.07722604889272       -0.13727657421040
H           -4.64789311102655        2.95738153659688       -0.17721319218125
H           -3.75217009944632        2.90597667996761        2.73165796426716
H           -4.87322342040024        1.76091573431414        1.98773841044383
H           -5.31908065744226        3.46238012575430        2.13217621128803
H           -2.59701123436235        4.68452941991703        1.27059692908957
H           -3.04016106407553        4.81330891678200       -0.43907262149171
H           -4.22108387129884        5.18412226152091        0.80831417569380
H           -0.59407592079025        2.76696614762895        2.71500344863827
72
 energy: -4.841499642136 xtb: 6.6.1 (8d0f1dd)
N           -1.49176523129452        2.79091320211591        2.23286830927027
C           -1.55621323069439        2.14208137726109        1.15790274495635
C           -2.75062200851612        2.05693564769626        0.25061349522491
C           -3.32632317811779        0.64915111871489        0.33201356973940
C           -4.31213115295505        0.24662481392179       -0.57150794940868
C           -4.86525783260247       -1.01848947652936       -0.52188944945077
O           -5.83323969134854       -1.48697466810735       -1.35951242760838
C           -6.39746808949844       -0.60976799601603       -2.29995572249695
C           -4.42520794288123       -1.93569585003215        0.45811791365013
O           -5.02541290000429       -3.15916614583815        0.42732970459484
C           -4.70485995125772       -4.08852410092428        1.43000365529504
C           -3.45208101877443       -1.53609290596878        1.35361333460907
C           -2.90933181762393       -0.25709179737288        1.28974486316430
C           -2.20239506654635        2.29829109674764       -1.18189840434993
C           -1.28687548778497        1.17148569692542       -1.68937362745706
C           -0.01476829327099        1.09253992785125       -0.93010000725880
N            0.60796765595782       -0.09942267679114       -0.60366179565171
C            1.98464511825967       -0.10549305741090       -0.21332272864908
C            2.96026775548884       -0.60471625002262       -1.32723549046212
C            4.39440060074985       -0.38191552972331       -0.85641182778218
C            5.12685086162427        0.78777407276547       -1.01740963365422
C            6.44222781760760        0.88543034532978       -0.56708604544648
C            7.05150270313970       -0.17680153802827        0.07506790078285
O            8.33134468203410       -0.20425128492194        0.54213913848776
C            9.14290572363868        0.92517547789739        0.35100564464517
C            6.31016167071568       -1.36036523402595        0.28392927904393
O            6.98366890435850       -2.35802203304754        0.92394180071374
C            6.33175613261888       -3.58312328761835        1.13186515206971
C            5.00802153718896       -1.43518575579440       -0.16832308303865
C           -0.10759921537658       -1.34141101673211       -0.65019119687600
C           -3.87203572614865        3.07680243934032        0.59023929403129
C           -4.49117573407998        2.78258666038063        1.95504232250155
C           -3.39220165105856        4.52662371332650        0.54915842475337
H           -4.65903160453897        0.94226319733181       -1.31754260881268
H           -6.85005615429432        0.26375724435533       -1.81845343438521
H           -7.17391085833587       -1.18496345669049       -2.80194248001744
H           -5.66097712226996       -0.27669397584915       -3.03946683678824
H           -4.92751959351394       -3.69874584474919        2.42913430652552
H           -5.33409786399368       -4.95543135985377        1.23370642261264
H           -3.65228170729521       -4.38891237062770        1.38410430781757
H           -3.10833950481407       -2.20955061993584        2.12293332185207
H           -2.17130725324114        0.02776313088144        2.02326027434070
H           -3.03690370634133        2.40038108309211       -1.87697200169491
H           -1.64467170986986        3.23607837012609       -1.19401095864434
H           -1.83869684869183        0.23236551477134       -1.65064693897004
H           -1.04418500236796        1.38091926238688       -2.73926889789655
H           -0.69667376638985        1.62213680992122        0.67184648867699
H            0.64102967742929        1.94863994227871       -0.98649298850175
H            2.09503847327564       -0.73954987486573        0.67452591479088
H            2.27762504570645        0.91154644398976        0.05810293116671
H            2.74875284335016       -0.01815069491087       -2.22368396530270
H            2.71683595227484       -1.65766103539346       -1.55537919126972
H            4.69553565345529        1.63976104190258       -1.52070476389516
H            6.99660838398016        1.79616330575235       -0.74080675881335
H            8.73943802317634        1.80636327372752        0.86086496498937
H            9.28197746009634        1.15022022528656       -0.71165520785058
H           10.10557176319926        0.66916263572752        0.79026115167705
H            7.06394208671490       -4.22101440054979        1.62394751147964
H            5.45580853489011       -3.47119426655380        1.78048508911263
H            6.02746699413221       -4.04617359135710        0.18680502789838
H            4.44064000482722       -2.33829593754653       -0.01155110061034
H           -0.29594238179431       -1.65615854030807       -1.68224968611529
H           -1.06890046416996       -1.25792627466085       -0.13233899146735
H            0.49088106111170       -2.10253491760908       -0.15412985895025
H           -4.65207056273596        2.95767305526138       -0.17183563575178
H           -3.74525537598443        2.90944036663538        2.73267266331862
H           -4.87190510131786        1.76499915527778        1.99671064695720
H           -5.31554694129192        3.46754956276660        2.14012079151260
H           -2.59359324528916        4.68077985098564        1.26830163033146
H           -3.04079134233429        4.80974103804299       -0.44005425236302
H           -4.21772188323818        5.18567623283908        0.81013559040916
H           -0.59126052667646        2.76552792858932        2.70767390318349
72
 energy: -2.822611938914 xtb: 6.6.1 (8d0f1dd)
N           -1.49184025140410        2.80174567501281        2.22996940894179
C           -1.55914895545241        2.13641468703452        1.16417625834153
C           -2.75286872035241        2.05503728510571        0.25435415535885
C           -3.33252450025583        0.64953561571676        0.33584379495150
C           -4.31706609491173        0.24689217227998       -0.56882218709769
C           -4.87372615575139       -1.01674550914066       -0.51741859687145
O           -5.84043806769515       -1.48581255264617       -1.35707205043350
C           -6.39838247317018       -0.60996466640549       -2.30239833589362
C           -4.43891984548378       -1.93246053580228        0.46586362855162
O           -5.04230582404112       -3.15512850771227        0.43600744161865
C           -4.72532959109885       -4.08277416080005        1.44118139093982
C           -3.46723287782583       -1.53272480170453        1.36299487193526
C           -2.92090699557027       -0.25541460966165        1.29697438174399
C           -2.20608648286055        2.29631138145026       -1.17946106875831
C           -1.29985702609813        1.16693410541531       -1.69998713416763
C           -0.02460363633581        1.07395995191668       -0.94859043381123
N            0.59445507440500       -0.12641445361492       -0.62633892662053
C            1.97480692505310       -0.14206429569562       -0.24148926758591
C            2.97075826144243       -0.63720053391916       -1.35158166505561
C            4.41129683719772       -0.35575219378274       -0.86585240505719
C            5.15287385602908        0.81587880381887       -1.00596200832159
C            6.47016098933230        0.90686492972872       -0.54933368936997
C            7.07878242150517       -0.16076573198480        0.08396073533764
O            8.35920250836855       -0.20044005717300        0.54954489002675
C            9.17988638747551        0.92367899404124        0.36697167353897
C            6.33002843499624       -1.34005160694192        0.28550547316960
O            6.99874895955668       -2.34510508637060        0.92044939777049
C            6.33963912841093       -3.56717349068596        1.12167438789284
C            5.02900176327693       -1.40574288482282       -0.17166681001273
C           -0.13600189216774       -1.36025841486639       -0.66624046068370
C           -3.87302163337491        3.07643412339304        0.59412266533132
C           -4.48872763409949        2.78613316976358        1.96118632316534
C           -3.39087760471342        4.52538904800855        0.54931266442802
H           -4.65967324939744        0.94082804247905       -1.31827318345920
H           -6.85051041545163        0.26631142473116       -1.82530207506568
H           -7.17427782866462       -1.18452271725907       -2.80587477965706
H           -5.65769476326042       -0.28061351317120       -3.03937212517107
H           -4.94954591677076       -3.69067786024458        2.43914852836949
H           -5.35513607497665       -4.94946102337603        1.24542739409447
H           -3.67294109686053       -4.38437067062398        1.39841615200284
H           -3.12748432807042       -2.20509103194322        2.13504906854744
H           -2.18413011393723        0.02990033440265        2.03130938116176
H           -3.04228486097441        2.40815799877335       -1.87145762652087
H           -1.64118261693682        3.22978532360898       -1.18882371849803
H           -1.85734028396319        0.23081255009334       -1.66346246107024
H           -1.06275379225857        1.38190685597277       -2.75064103721394
H           -0.70302734123073        1.60576021775295        0.68860463577764
H            0.63901996934301        1.92562094015471       -1.00810106910346
H            2.08158265022518       -0.77671755858166        0.64698641653498
H            2.26450353917932        0.87463296578575        0.03275568759046
H            2.74168329057368       -0.06175114384131       -2.25104149387511
H            2.73819214630618       -1.69975880162491       -1.57824825479418
H            4.73321735383300        1.67859640879108       -1.50055961847502
H            7.03211227562455        1.81570734220338       -0.71485326680330
H            8.78377968110592        1.80443253795288        0.88311457865793
H            9.32237828350577        1.15498551940867       -0.69382343018158
H           10.14038678790225        0.65762581009168        0.80494987406728
H            7.06820319467907       -4.21281137421702        1.60882138210225
H            5.46485058527478       -3.45311451225827        1.77154426937094
H            6.03137461651811       -4.02224864349687        0.17401656602160
H            4.46007750735279       -2.30702617816044       -0.01442611700344
H           -0.33342173750368       -1.67281153767456       -1.69714260123924
H           -1.09418272377101       -1.26563415872373       -0.14388661504115
H            0.45668176581068       -2.12714856405134       -0.17150223744881
H           -4.65578636978913        2.95762221941859       -0.16567135969026
H           -3.73848152427229        2.91295243001193        2.73455075985861
H           -4.87065843554927        1.76906648862631        2.00595314286854
H           -5.31149982726447        3.47275466914777        2.14802994264786
H           -2.58980325522567        4.67738393579845        1.26585031924442
H           -3.04143728450653        4.80620486386275       -0.44118759047463
H           -4.21415018927762        5.18703946036693        0.81196339354027
H           -0.58937494462164        2.76488782485458        2.70013086988382
72
 energy: 0.487173744531 xtb: 6.6.1 (8d0f1dd)
N           -1.49119735145602        2.81202381330372        2.22619734142514
C           -1.56184422867432        2.13022956101369        1.16993540910508
C           -2.75512695434442        2.05305020850630        0.25791674074565
C           -3.33880872810121        0.64989215906023        0.33960458543480
C           -4.32226216980461        0.24727545061260       -0.56604698320935
C           -4.88227906637413       -1.01492073245622       -0.51282912470407
O           -5.84771696275789       -1.48449176989539       -1.35451495421247
C           -6.39919280901829       -0.60991087356756       -2.30468852094761
C           -4.45256961675391       -1.92914791168013        0.47365191365875
O           -5.05918821701441       -3.15095655413558        0.44488174449618
C           -4.74581736699639       -4.07678740749438        1.45263351944660
C           -3.48212567534194       -1.52939020432397        1.37225482919429
C           -2.93217815291584       -0.25382748474285        1.30391275748926
C           -2.21033060332090        2.29410753886211       -1.17742640180778
C           -1.31362061350801        1.16156060091933       -1.71013952635166
C           -0.03496912863800        1.05468775361790       -0.96738687760879
N            0.57914578850261       -0.15389667097596       -0.64749319394558
C            1.96304486992232       -0.17971013229777       -0.26785647203999
C            2.97396817021009       -0.66895642422286       -1.37743055641120
C            4.42561309095177       -0.32865137580941       -0.87476765675439
C            5.17847220035788        0.84426363135189       -0.99469564778350
C            6.49831874449953        0.92818604444321       -0.53307753585182
C            7.10644130183841       -0.14475560341002        0.09141224961099
O            8.38689148161219       -0.19656976133454        0.55664246724308
C            9.21670627297227        0.92214843954542        0.38383638971927
C            6.35007133668101       -1.31930081177729        0.28592863194995
O            7.01436285817367       -2.33142425645668        0.91628234148831
C            6.34912058340707       -3.55092555737967        1.11141086263407
C            5.04958167148115       -1.37548886135384       -0.17573973638567
C           -0.16594036323102       -1.37927491733907       -0.68267810421319
C           -3.87344268294592        3.07647256639219        0.59818080238637
C           -4.48572354550546        2.78994715592480        1.96751993160139
C           -3.38848303219140        4.52460155639141        0.54916561357496
H           -4.66096484984632        0.93967425187831       -1.31863417707784
H           -6.85072819306565        0.26911841547340       -1.83195295508050
H           -7.17462139318377       -1.18367196235147       -2.80970132853870
H           -5.65429463603524       -0.28432390968285       -3.03910135305627
H           -4.97154416456646       -3.68221847702741        2.44937118337389
H           -5.37629391141154       -4.94321305545424        1.25757077275867
H           -3.69366001102244       -4.37973916746719        1.41306240633119
H           -3.14628099481491       -2.20060752632059        2.14701483530984
H           -2.19661029697489        0.03207354924968        2.03904224112587
H           -3.04820802557783        2.41502004015980       -1.86633248596323
H           -1.63849185584265        3.22342800677242       -1.18464205414894
H           -1.87724552367110        0.22906648991927       -1.67568460550330
H           -1.08089063529418        1.38159599901454       -2.76121658755004
H           -0.70923070067574        1.58987136748321        0.70420728023532
H            0.63618806688187        1.90147160758424       -1.03032660810311
H            2.06578229600097       -0.81455183469117        0.62178381904345
H            2.24863950727116        0.83631342826187        0.01151068071254
H            2.73006562954697       -0.10558911736542       -2.28107055221284
H            2.75652674175211       -1.74210480043942       -1.60288696634752
H            4.77028737334568        1.71942139652777       -1.47705573517106
H            7.06750722036804        1.83557465752195       -0.68937700493428
H            8.82710739088748        1.80226434911824        0.90589261590281
H            9.36440607711792        1.15954201691191       -0.67487518517068
H           10.17403619872798        0.64555946044786        0.82214580802191
H            7.07386499999084       -4.20378938262986        1.59462159715510
H            5.47497641371927       -3.43479306121016        1.76178134203939
H            6.03798497119796       -3.99882882981766        0.16129874732016
H            4.48039559854285       -2.27548353460238       -0.01697380097562
H           -0.37120264936371       -1.68777746176957       -1.71309884224757
H           -1.12166963764655       -1.27460916980577       -0.15697345189102
H            0.42060334702974       -2.15246370835670       -0.18987718641206
H           -4.65908663248848        2.95784639189893       -0.15908706002840
H           -3.73127601858492        2.91642672574921        2.73677869152026
H           -4.86910979009733        1.77347622260893        2.01513414142008
H           -5.30673584316165        3.47837419576529        2.15613415200054
H           -2.58492129492434        4.67426170517231        1.26307153411984
H           -3.04124002555482        4.80279984347091       -0.44269863940483
H           -4.20943608733543        5.18874223842139        0.81366244265430
H           -0.58690605340313        2.76352454933597        2.69158464788595
72
 energy: 4.871645464008 xtb: 6.6.1 (8d0f1dd)
N           -1.49153965128833        2.82225895010196        2.22309803422153
C           -1.56453887800126        2.12395994151371        1.17655510650369
C           -2.75731134955123        2.05088078021869        0.26194262241118
C           -3.34516117037194        0.65009079113832        0.34353391550117
C           -4.32736060212952        0.24746130472833       -0.56332947626954
C           -4.89077835692799       -1.01329362549346       -0.50828181098341
O           -5.85491141135232       -1.48347506674255       -1.35199688344918
C           -6.40006601730331       -0.61043641702758       -2.30712513828437
C           -4.46626327608869       -1.92598448839885        0.48146605121795
O           -5.07603453367895       -3.14697093156112        0.45367374001545
C           -4.76631135847814       -4.07103324255632        1.46395718836157
C           -3.49725351363920       -1.52614743318100        1.38172405285573
C           -2.94377058594256       -0.25230058982519        1.31118111407706
C           -2.21422254767432        2.29198158821814       -1.17475394727730
C           -1.32720306938766        1.15681011461520       -1.72050709212271
C           -0.04410969175517        1.03666013860597       -0.98869780132423
N            0.56495917626664       -0.18010156856023       -0.66969767012045
C            1.95248966957998       -0.21594880496024       -0.29500185450804
C            2.97645168386485       -0.69946618971379       -1.40341054470052
C            4.44359001370787       -0.30238685926407       -0.88386265001924