      -----------------------------------------------------------      
     |                   =====================                   |     
     |                           x T B                           |     
     |                   =====================                   |     
     |                         S. Grimme                         |     
     |          Mulliken Center for Theoretical Chemistry        |     
     |                    University of Bonn                     |     
      -----------------------------------------------------------      

   * xtb version 6.6.1 (8d0f1dd) compiled by 'conda@1efc2f54142f' on 2023-08-01

   xtb is free software: you can redistribute it and/or modify it under
   the terms of the GNU Lesser General Public License as published by
   the Free Software Foundation, either version 3 of the License, or
   (at your option) any later version.
   
   xtb is distributed in the hope that it will be useful,
   but WITHOUT ANY WARRANTY; without even the implied warranty of
   MERCHANTABILITY or FITNESS FOR A PARTICULAR PURPOSE.  See the
   GNU Lesser General Public License for more details.
   
   Cite this work as:
   * C. Bannwarth, E. Caldeweyher, S. Ehlert, A. Hansen, P. Pracht,
     J. Seibert, S. Spicher, S. Grimme, WIREs Comput. Mol. Sci., 2020, 11,
     e01493. DOI: 10.1002/wcms.1493
   
   for GFN2-xTB:
   * C. Bannwarth, S. Ehlert and S. Grimme., J. Chem. Theory Comput., 2019,
     15, 1652-1671. DOI: 10.1021/acs.jctc.8b01176
   for GFN1-xTB:
   * S. Grimme, C. Bannwarth, P. Shushkov, J. Chem. Theory Comput., 2017,
     13, 1989-2009. DOI: 10.1021/acs.jctc.7b00118
   for GFN0-xTB:
   * P. Pracht, E. Caldeweyher, S. Ehlert, S. Grimme, ChemRxiv, 2019, preprint.
     DOI: 10.26434/chemrxiv.8326202.v1
   for GFN-FF:
   * S. Spicher and S. Grimme, Angew. Chem. Int. Ed., 2020, 59, 15665-15673.
     DOI: 10.1002/anie.202004239
   
   for ALPB and GBSA implicit solvation:
   * S. Ehlert, M. Stahn, S. Spicher, S. Grimme, J. Chem. Theory Comput.,
     2021, 17, 4250-4261. DOI: 10.1021/acs.jctc.1c00471
   
   for DFT-D4:
   * E. Caldeweyher, C. Bannwarth and S. Grimme, J. Chem. Phys., 2017,
     147, 034112. DOI: 10.1063/1.4993215
   * E. Caldeweyher, S. Ehlert, A. Hansen, H. Neugebauer, S. Spicher,
     C. Bannwarth and S. Grimme, J. Chem. Phys., 2019, 150, 154122.
     DOI: 10.1063/1.5090222
   * E. Caldeweyher, J.-M. Mewes, S. Ehlert and S. Grimme, Phys. Chem. Chem. Phys.
     2020, 22, 8499-8512. DOI: 10.1039/D0CP00502A
   
   for sTDA-xTB:
   * S. Grimme and C. Bannwarth, J. Chem. Phys., 2016, 145, 054103.
     DOI: 10.1063/1.4959605
   
   in the mass-spec context:
   * V. Asgeirsson, C. Bauer and S. Grimme, Chem. Sci., 2017, 8, 4879.
     DOI: 10.1039/c7sc00601b
   * J. Koopman and S. Grimme, ACS Omega 2019, 4, 12, 15120-15133.
     DOI: 10.1021/acsomega.9b02011
   
   for metadynamics refer to:
   * S. Grimme, J. Chem. Theory Comput., 2019, 155, 2847-2862
     DOI: 10.1021/acs.jctc.9b00143
   
   for SPH calculations refer to:
   * S. Spicher and S. Grimme, J. Chem. Theory Comput., 2021, 17, 1701-1714
     DOI: 10.1021/acs.jctc.0c01306
   
   with help from (in alphabetical order)
   P. Atkinson, C. Bannwarth, F. Bohle, G. Brandenburg, E. Caldeweyher
   M. Checinski, S. Dohm, S. Ehlert, S. Ehrlich, I. Gerasimov, C. Hölzer
   A. Katbashev, J. Koopman, C. Lavigne, S. Lehtola, F. März, M. Müller,
   F. Musil, H. Neugebauer, J. Pisarek, C. Plett, P. Pracht, F. Pultar,
   J. Seibert, P. Shushkov, S. Spicher, M. Stahn, M. Steiner, T. Strunk,
   J. Stückrath, T. Rose, and J. Unsleber
   
 * started run on 2024/04/06 at 11:15:51.508     

           -------------------------------------------------
          |                Calculation Setup                |
           -------------------------------------------------

          program call               : xtb xtbopt.xyz --opt crude --input .xc2 --gfn2
          hostname                   : n-62-30-23
          coordinate file            : xtbopt.xyz
          omp threads                :                     1

   ID    Z sym.   atoms
    1    7 N      1, 17
    2    6 C      2-6, 8, 9, 11-16, 18-23, 25, 26, 28-33
    3    8 O      7, 10, 24, 27
    4    1 H      34-72
########################################################################
[WARNING] Please study the warnings concerning your input carefully
-1- readin_getIntValue: could not parse ''
########################################################################

           -------------------------------------------------
          |                 G F N 2 - x T B                 |
           -------------------------------------------------

        Reference                      10.1021/acs.jctc.8b01176
      * Hamiltonian:
        H0-scaling (s, p, d)           1.850000    2.230000    2.230000
        zeta-weighting                 0.500000
      * Dispersion:
        s8                             2.700000
        a1                             0.520000
        a2                             5.000000
        s9                             5.000000
      * Repulsion:
        kExp                           1.500000    1.000000
        rExp                           1.000000
      * Coulomb:
        alpha                          2.000000
        third order                    shell-resolved
        anisotropic                    true
        a3                             3.000000
        a5                             4.000000
        cn-shift                       1.200000
        cn-exp                         4.000000
        max-rad                        5.000000

q/qsh data taken from xtbrestart
CAMM data taken from xtbrestart

          ...................................................
          :                      SETUP                      :
          :.................................................:
          :  # basis functions                 171          :
          :  # atomic orbitals                 171          :
          :  # shells                          105          :
          :  # electrons                       180          :
          :  max. iterations                   250          :
          :  Hamiltonian                  GFN2-xTB          :
          :  restarted?                       true          :
          :  GBSA solvation                  false          :
          :  PC potential                    false          :
          :  electronic temp.         5000.0000000     K    :
          :  accuracy                    1.0000000          :
          :  -> integral cutoff          0.2500000E+02      :
          :  -> integral neglect         0.1000000E-07      :
          :  -> SCF convergence          0.1000000E-05 Eh   :
          :  -> wf. convergence          0.1000000E-03 e    :
          :  Broyden damping             0.4000000          :
          ...................................................

 iter      E             dE          RMSdq      gap      omega  full diag
   1   -100.7762095 -0.100776E+03  0.189E-05    1.16       0.0  T
   2   -100.7762095  0.426610E-10  0.246E-05    1.16     478.5  T
   3   -100.7762095 -0.751186E-10  0.532E-06    1.16    2214.8  T

   *** convergence criteria satisfied after 3 iterations ***

         #    Occupation            Energy/Eh            Energy/eV
      -------------------------------------------------------------
         1        2.0000           -0.8246297             -22.4393
       ...           ...                  ...                  ...
        84        1.9950           -0.5130647             -13.9612
        85        1.9911           -0.5038522             -13.7105
        86        1.9699           -0.4843495             -13.1798
        87        1.9658           -0.4823052             -13.1242
        88        1.9210           -0.4686870             -12.7536
        89        1.8225           -0.4550267             -12.3819
        90        1.7345           -0.4478712             -12.1872 (HOMO)
        91        0.6087           -0.4050643             -11.0224 (LUMO)
        92        0.0114           -0.3364885              -9.1563
        93        0.0035           -0.3178555              -8.6493
        94        0.0020           -0.3090934              -8.4109
        95        0.0016           -0.3056666              -8.3176
       ...           ...                  ...                  ...
       171                          1.4216386              38.6848
      -------------------------------------------------------------
                  HL-Gap            0.0428069 Eh            1.1648 eV
             Fermi-level           -0.4181535 Eh          -11.3785 eV

 SCC (total)                   0 d,  0 h,  0 min,  0.122 sec
 SCC setup                      ...        0 min,  0.001 sec (  0.881%)
 Dispersion                     ...        0 min,  0.002 sec (  1.542%)
 classical contributions        ...        0 min,  0.000 sec (  0.401%)
 integral evaluation            ...        0 min,  0.018 sec ( 14.954%)
 iterations                     ...        0 min,  0.027 sec ( 22.318%)
 molecular gradient             ...        0 min,  0.073 sec ( 59.354%)
 printout                       ...        0 min,  0.001 sec (  0.536%)

         :::::::::::::::::::::::::::::::::::::::::::::::::::::
         ::                     SUMMARY                     ::
         :::::::::::::::::::::::::::::::::::::::::::::::::::::
         :: total energy             -99.211636805824 Eh    ::
         :: gradient norm              1.058534598348 Eh/a0 ::
         :: HOMO-LUMO gap              1.164835011531 eV    ::
         ::.................................................::
         :: SCC energy              -100.776209526173 Eh    ::
         :: -> isotropic ES            0.102381787365 Eh    ::
         :: -> anisotropic ES          0.005618137535 Eh    ::
         :: -> anisotropic XC          0.043372587365 Eh    ::
         :: -> dispersion             -0.073175226267 Eh    ::
         :: repulsion energy           1.563755185064 Eh    ::
         :: add. restraining           0.000000000000 Eh    ::
         :: total charge               1.000000000000 e     ::
         :::::::::::::::::::::::::::::::::::::::::::::::::::::

      ----------------------------------------------------------- 
     |                   =====================                   |
     |                        A N C O P T                        |
     |                   =====================                   |
     |               Approximate Normal Coordinate               |
     |                Rational Function Optimizer                |
      ----------------------------------------------------------- 

          ...................................................
          :                      SETUP                      :
          :.................................................:
          :   optimization level             crude          :
          :   max. optcycles                   200          :
          :   ANC micro-cycles                  20          :
          :   degrees of freedom               210          :
          :.................................................:
          :   RF solver                   davidson          :
          :   write xtbopt.log                true          :
          :   linear?                        false          :
          :   energy convergence         0.5000000E-03 Eh   :
          :   grad. convergence          0.1000000E-01 Eh/α :
          :   maxmium RF displ.          1.0000000          :
          :   Hlow (freq-cutoff)         0.1000000E-01      :
          :   Hmax (freq-cutoff)         5.0000000          :
          :   S6 in model hess.         20.0000000          :
          ...................................................

generating ANC from model Hessian ...
Using Lindh-Hessian (1995)
 Shifting diagonal of input Hessian by    9.9795525054945256E-003
 Lowest  eigenvalues of input Hessian
    0.000000    0.000000    0.000000    0.000000    0.000000    0.000000
    0.010000    0.010042    0.010108    0.010252    0.010272    0.010627
    0.010661    0.010708    0.010843    0.011302    0.011473    0.012403
 Highest eigenvalues
    2.046810    2.094260    2.115577    2.150180    2.184172    2.347188


........................................................................
.............................. CYCLE    1 ..............................
........................................................................

 iter      E             dE          RMSdq      gap      omega  full diag
   1   -100.7762095 -0.100776E+03  0.349E-06    1.16       0.0  T
   2   -100.7762095  0.270006E-12  0.331E-06    1.16    3556.4  T
   3   -100.7762095 -0.781597E-12  0.193E-06    1.16    6094.6  T
     SCC iter.                  ...        0 min,  0.026 sec
     gradient                   ...        0 min,  0.068 sec
 * total energy  :   -99.2116368 Eh     change       -0.9805490E-12 Eh
   gradient norm :     1.0585346 Eh/α   predicted     0.0000000E+00 (-100.00%)
   displ. norm   :     0.4132086 α      lambda       -0.4229717E+00
   maximum displ.:     0.3577600 α      in ANC's #210, #208, #136, ...

........................................................................
.............................. CYCLE    2 ..............................
........................................................................

 iter      E             dE          RMSdq      gap      omega  full diag
   1   -100.7634068 -0.100763E+03  0.263E-01    1.27       0.0  T
   2   -100.7634598 -0.529786E-04  0.163E-01    1.10       1.0  T
   3   -100.7623618  0.109791E-02  0.150E-01    1.36       1.0  T
   4   -100.7644507 -0.208886E-02  0.436E-02    1.18       1.0  T
   5   -100.7645172 -0.664702E-04  0.149E-02    1.22       1.0  T
   6   -100.7645399 -0.226925E-04  0.559E-03    1.21       2.1  T
   7   -100.7645404 -0.481637E-06  0.239E-03    1.21       4.9  T
   8   -100.7645407 -0.305295E-06  0.960E-04    1.21      12.3  T
   9   -100.7645407 -0.415671E-07  0.277E-04    1.21      42.6  T
     SCC iter.                  ...        0 min,  0.073 sec
     gradient                   ...        0 min,  0.068 sec
 * total energy  :   -99.3732402 Eh     change       -0.1616034E+00 Eh
   gradient norm :     0.0515327 Eh/α   predicted    -0.2476193E+00 (  53.23%)
   displ. norm   :     0.1613194 α      lambda       -0.3380290E-02
   maximum displ.:     0.0594608 α      in ANC's #79, #51, #44, ...

........................................................................
.............................. CYCLE    3 ..............................
........................................................................

 iter      E             dE          RMSdq      gap      omega  full diag
   1   -100.7589228 -0.100759E+03  0.835E-02    1.18       0.0  T
   2   -100.7588992  0.235942E-04  0.547E-02    1.22       1.0  T
   3   -100.7585865  0.312643E-03  0.536E-02    1.13       1.0  T
   4   -100.7589542 -0.367659E-03  0.703E-03    1.20       1.7  T
   5   -100.7589586 -0.434648E-05  0.215E-03    1.20       5.5  T
   6   -100.7589587 -0.189164E-06  0.111E-03    1.20      10.6  T
   7   -100.7589588 -0.861837E-07  0.380E-04    1.20      31.0  T
   8   -100.7589588 -0.907485E-08  0.186E-04    1.20      63.5  T
     SCC iter.                  ...        0 min,  0.065 sec
     gradient                   ...        0 min,  0.068 sec
 * total energy  :   -99.3755669 Eh     change       -0.2326697E-02 Eh
   gradient norm :     0.0379048 Eh/α   predicted    -0.1711764E-02 ( -26.43%)
   displ. norm   :     0.1166549 α      lambda       -0.3293606E-02
   maximum displ.:     0.0384871 α      in ANC's #79, #130, #210, ...

........................................................................
.............................. CYCLE    4 ..............................
........................................................................

 iter      E             dE          RMSdq      gap      omega  full diag
   1   -100.7534607 -0.100753E+03  0.497E-02    1.18       0.0  T
   2   -100.7534514  0.932169E-05  0.331E-02    1.21       1.0  T
   3   -100.7533669  0.844675E-04  0.305E-02    1.16       1.0  T
   4   -100.7534759 -0.108903E-03  0.578E-03    1.19       2.0  T
   5   -100.7534788 -0.294139E-05  0.178E-03    1.19       6.6  T
   6   -100.7534789 -0.909134E-07  0.957E-04    1.19      12.3  T
   7   -100.7534790 -0.708782E-07  0.279E-04    1.19      42.2  T
     SCC iter.                  ...        0 min,  0.058 sec
     gradient                   ...        0 min,  0.068 sec
 * total energy  :   -99.3766183 Eh     change       -0.1051421E-02 Eh
   gradient norm :     0.0212666 Eh/α   predicted    -0.8387307E-03 ( -20.23%)
   displ. norm   :     0.0738972 α      lambda       -0.1343704E-02
   maximum displ.:     0.0218608 α      in ANC's #18, #1, #4, ...

........................................................................
.............................. CYCLE    5 ..............................
........................................................................

 iter      E             dE          RMSdq      gap      omega  full diag
   1   -100.7520251 -0.100752E+03  0.224E-02    1.19       0.0  T
   2   -100.7520265 -0.145539E-05  0.124E-02    1.19       1.0  T
   3   -100.7520252  0.134694E-05  0.503E-03    1.19       2.3  T
   4   -100.7520258 -0.640670E-06  0.273E-03    1.19       4.3  T
   5   -100.7520269 -0.104523E-05  0.623E-04    1.19      18.9  T
   6   -100.7520269 -0.123721E-07  0.384E-04    1.19      30.7  T
   7   -100.7520269 -0.797145E-08  0.891E-05    1.19     132.3  T
     SCC iter.                  ...        0 min,  0.057 sec
     gradient                   ...        0 min,  0.068 sec
 * total energy  :   -99.3769300 Eh     change       -0.3116113E-03 Eh
   gradient norm :     0.0097314 Eh/α   predicted    -0.2286239E-03 ( -26.63%)
   displ. norm   :     0.0785252 α      lambda       -0.7440543E-03
   maximum displ.:     0.0287025 α      in ANC's #4, #5, #1, ...

   *** GEOMETRY OPTIMIZATION CONVERGED AFTER 5 ITERATIONS ***

------------------------------------------------------------------------
 total energy gain   :        -0.1652932 Eh     -103.7230 kcal/mol
 total RMSD          :         0.0707340 a0        0.0374 Å
 total power (kW/mol):       -86.7954223 (step) -545.7479 (real)
------------------------------------------------------------------------

 ANCopt (total)                0 d,  0 h,  0 min,  0.795 sec
 optimizer setup                ...        0 min,  0.000 sec (  0.032%)
 model hessian                  ...        0 min,  0.053 sec (  6.661%)
 ANC generation                 ...        0 min,  0.006 sec (  0.788%)
 coordinate transformation      ...        0 min,  0.000 sec (  0.043%)
 single point calculation       ...        0 min,  0.726 sec ( 91.329%)
 optimization log               ...        0 min,  0.003 sec (  0.371%)
 hessian update                 ...        0 min,  0.000 sec (  0.038%)
 rational function              ...        0 min,  0.003 sec (  0.426%)

================
 final structure:
================
72
 xtb: 6.6.1 (8d0f1dd)
N           -2.10075119493295        2.59778309824452        2.37294848198525
C           -2.01026501734209        1.62792675200262        1.58738467816031
C           -2.97016324652583        1.38374611553523        0.45720580044855
C           -3.32945942298911       -0.15303259687677        0.46559486163262
C           -4.29749681971658       -0.51032547031355       -0.60598357760592
C           -5.41067294907904       -1.26132393932707       -0.39364640644113
O           -6.31570606525856       -1.61781892042430       -1.33018997570033
C           -6.15002969412434       -1.15390764454152       -2.64981379194483
C           -5.70507631178605       -1.76980769546737        0.92167509582974
O           -6.80136660430695       -2.51979102844299        1.01177118679137
C           -7.18380795152198       -3.06674115151777        2.25512853095099
C           -4.84371443795083       -1.44332032956460        1.98270524739174
C           -3.75181350177134       -0.65240313247573        1.79556649295488
C           -2.15446922263510        1.69215330167431       -0.84269981827891
C           -1.13414968747689        0.66062373043059       -1.19991743657083
C            0.15678539428203        0.75384770331195       -0.82618835410052
N            1.13224428602223       -0.15504191732453       -1.06794945093214
C            2.47962169664165        0.04440632374241       -0.60465815808955
C            3.47729986693690        0.32676409266094       -1.74587205498933
C            4.87398651218823        0.42545412709613       -1.20218796911833
C            5.54886725154053        1.63518116155815       -1.15778017667324
C            6.83248715091730        1.71585696151980       -0.63935208251001
C            7.46477282453236        0.58754261569629       -0.13596823687541
O            8.70012712210142        0.54774164106807        0.39556187677114
C            9.46877696338356        1.72762804191862        0.44318859244334
C            6.77704183665874       -0.65834049875237       -0.16704033871881
O            7.45617169631984       -1.70132455833892        0.35057024775460
C            6.84872980312420       -2.97033943889656        0.38651394480515
C            5.50217498386495       -0.71601884860573       -0.70596924462716
C            0.84796242553611       -1.34523106341294       -1.82836219123394
C           -4.24249837900339        2.26638178343948        0.49872030391446
C           -5.00291613300850        2.15802925100284        1.81832081294366
C           -3.94924571392366        3.74422287222006        0.23301468913096
H           -4.06346946319804       -0.16169449261148       -1.59763878776870
H           -6.14651703156038       -0.06058059568520       -2.69224416032229
H           -7.00637324783330       -1.53344835033598       -3.20322585308579
H           -5.22955152898804       -1.54144646681255       -3.09729765414382
H           -7.41488567725987       -2.28156660059319        2.98049245816079
H           -8.08075601121507       -3.64967472041579        2.05476593135353
H           -6.40765004888167       -3.72296975322402        2.65866944957100
H           -5.06736244971529       -1.80486667643439        2.97437398348554
H           -3.12580344349209       -0.40177579342160        2.63787659518235
H           -2.86191242035649        1.79835230027716       -1.66607411171928
H           -1.66139895996167        2.65349421321039       -0.69493827093702
H           -1.46882610413038       -0.16475196958196       -1.80871059739354
H           -2.36367404821815       -0.62350289189112        0.23350851458316
H           -1.19209082626180        0.89111934529752        1.61665201388554
H            0.48057879173937        1.61543528555097       -0.25647755674302
H            2.80452329491907       -0.85141246694154       -0.06299007856114
H            2.49667532871415        0.88338614650513        0.09363517574783
H            3.19929132139600        1.25610046135307       -2.24384699686097
H            3.42549955020815       -0.48108855521031       -2.47842256758673
H            5.07976763285507        2.52866771163206       -1.54013515224106
H            7.33485063772086        2.66926987506271       -0.63035748520500
H            8.98781901313458        2.49490641655361        1.05735194011465
H            9.65415562210323        2.12458070561983       -0.55931478138184
H           10.41469343607221        1.44114996164408        0.89890682202494
H            7.57411573367673       -3.62862992819095        0.86072115168121
H            5.92955447555526       -2.95771912879432        0.98130854489146
H            6.62935901855999       -3.34010156759594       -0.61995683933298
H            4.98536748291543       -1.66175398189833       -0.75566096785194
H            0.57129256905697       -1.09929232324300       -2.85692454370243
H            0.02550199928230       -1.90369790357859       -1.37370610196170
H            1.72583185316575       -1.98509713059014       -1.84678206271444
H           -4.89885271833563        1.89735280083347       -0.29990994527185
H           -4.40278559504207        2.56520968090553        2.62632531933072
H           -5.25728084631450        1.12824625089818        2.04819692441759
H           -5.92545038288923        2.72929284266663        1.75278094176282
H           -3.23218837058412        4.11732477506801        0.95772177804206
H           -3.57031573081825        3.91500348575878       -0.77055541556076
H           -4.86921923617267        4.31333140067090        0.33997743364262
H           -1.37944548353221        2.69646582120695        3.08087821556726

 Bond Distances (Angstroems)
 ---------------------------
N1-C2=1.2514         N1-H72=1.0155        C2-N1=1.2514         C2-C3=1.5028         C2-H47=1.1014        C3-C2=1.5028         
C3-C4=1.5782         C3-C14=1.5653        C3-C31=1.5491        C4-C3=1.5782         C4-C5=1.4876         C4-C13=1.4821        
C4-H46=1.0991        C5-C4=1.4876         C5-C6=1.3595         C5-H34=1.0769        C6-C5=1.3595         C6-O7=1.3503         
C6-C9=1.4406         O7-C6=1.3503         O7-C8=1.4086         C8-O7=1.4086         C8-H35=1.0942        C8-H36=1.0880        
C8-H37=1.0944        C9-C6=1.4406         C9-O10=1.3313        C9-C12=1.4051        O10-C9=1.3313        O10-C11=1.4112       
C11-O10=1.4112       C11-H38=1.0936       C11-H39=1.0883       C11-H40=1.0936       C12-C9=1.4051        C12-C13=1.3612       
C12-H41=1.0790       C13-C4=1.4821        C13-C12=1.3612       C13-H42=1.0790       C14-C3=1.5653        C14-C15=1.4942       
C14-H43=1.0907       C14-H44=1.0905       C15-C14=1.4942       C15-C16=1.3472       C15-H45=1.0788       C16-C15=1.3472       
C16-N17=1.3550       C16-H48=1.0825       N17-C16=1.3550       N17-C18=1.4387       N17-C30=1.4407       C18-N17=1.4387       
C18-C19=1.5419       C18-H49=1.0961       C18-H50=1.0917       C19-C18=1.5419       C19-C20=1.5020       C19-H51=1.0904       
C19-H52=1.0918       C20-C19=1.5020       C20-C21=1.3860       C20-C29=1.3942       C21-C20=1.3860       C21-C22=1.3867       
C21-H53=1.0792       C22-C21=1.3867       C22-C23=1.3879       C22-H54=1.0777       C23-C22=1.3879       C23-O24=1.3454       
C23-C26=1.4234       O24-C23=1.3454       O24-C25=1.4090       C25-O24=1.4090       C25-H55=1.0942       C25-H56=1.0941       
C25-H57=1.0884       C26-C23=1.4234       C26-O27=1.3479       C26-C29=1.3853       O27-C26=1.3479       O27-C28=1.4074       
C28-O27=1.4074       C28-H58=1.0883       C28-H59=1.0949       C28-H60=1.0945       C29-C20=1.3942       C29-C26=1.3853       
C29-H61=1.0789       C30-N17=1.4407       C30-H62=1.0931       C30-H63=1.0932       C30-H64=1.0865       C31-C3=1.5491        
C31-C32=1.5269       C31-C33=1.5299       C31-H65=1.0976       C32-C31=1.5269       C32-H66=1.0857       C32-H67=1.0854       
C32-H68=1.0871       C33-C31=1.5299       C33-H69=1.0856       C33-H70=1.0862       C33-H71=1.0870       H34-C5=1.0769        
H35-C8=1.0942        H36-C8=1.0880        H37-C8=1.0944        H38-C11=1.0936       H39-C11=1.0883       H40-C11=1.0936       
H41-C12=1.0790       H42-C13=1.0790       H43-C14=1.0907       H44-C14=1.0905       H45-C15=1.0788       H46-C4=1.0991        
H47-C2=1.1014        H48-C16=1.0825       H49-C18=1.0961       H50-C18=1.0917       H51-C19=1.0904       H52-C19=1.0918       
H53-C21=1.0792       H54-C22=1.0777       H55-C25=1.0942       H56-C25=1.0941       H57-C25=1.0884       H58-C28=1.0883       
H59-C28=1.0949       H60-C28=1.0945       H61-C29=1.0789       H62-C30=1.0931       H63-C30=1.0932       H64-C30=1.0865       
H65-C31=1.0976       H66-C32=1.0857       H67-C32=1.0854       H68-C32=1.0871       H69-C33=1.0856       H70-C33=1.0862       
H71-C33=1.0870       H72-N1=1.0155        
 C  H  Rav=1.0889 sigma=0.0064  Rmin=1.0769  Rmax=1.1014    38
 C  C  Rav=1.4562 sigma=0.0733  Rmin=1.3472  Rmax=1.5782    22
 N  H  Rav=1.0155 sigma=0.0000  Rmin=1.0155  Rmax=1.0155     1
 N  C  Rav=1.3714 sigma=0.0775  Rmin=1.2514  Rmax=1.4407     4
 O  C  Rav=1.3764 sigma=0.0331  Rmin=1.3313  Rmax=1.4112     8

 selected bond angles (degree)
 --------------------
H72-N1-C2=117.49               C3-C2-N1=123.49                H47-C2-N1=123.74               H47-C2-C3=112.69               
C4-C3-C2=107.44                C14-C3-C2=105.05               C14-C3-C4=108.35               C31-C3-C2=114.32               
C31-C3-C4=111.57               C31-C3-C14=109.76              C5-C4-C3=112.22                C13-C4-C3=113.44               
C13-C4-C5=112.34               H46-C4-C3=102.45               H46-C4-C5=108.48               H46-C4-C13=107.20              
C6-C5-C4=123.57                H34-C5-C4=116.37               H34-C5-C6=120.04               O7-C6-C5=125.90                
C9-C6-C5=120.33                C9-C6-O7=113.77                C8-O7-C6=118.95                H35-C8-O7=111.46               
H36-C8-O7=105.61               H36-C8-H35=109.35              H37-C8-O7=111.43               H37-C8-H35=109.59              
H37-C8-H36=109.30              O10-C9-C6=115.40               C12-C9-C6=118.83               C12-C9-O10=125.77              
C11-O10-C9=120.08              

 selected dihedral angles (degree)
 ---------------------------------
C3-C2-N1-H72=182.52           H47-C2-N1-H72=359.28          C4-C3-C2-N1=224.29            C4-C3-C2-H47= 47.20           
C14-C3-C2-N1=109.06           C14-C3-C2-H47=291.98          C31-C3-C2-N1=348.69           C31-C3-C2-H47=171.60          
C5-C4-C3-C2=179.11            C5-C4-C3-C14=292.12           C5-C4-C3-C31= 53.06           C13-C4-C3-C2= 50.46           
C13-C4-C3-C14=163.47          C13-C4-C3-C31=284.41          H46-C4-C3-C2=295.26           H46-C4-C3-C14= 48.27          
H46-C4-C3-C31=169.21          C6-C5-C4-C3=228.01            C6-C5-C4-C13=357.23           C6-C5-C4-H46=115.55           
H34-C5-C4-C3= 49.60           H34-C5-C4-C13=178.82          H34-C5-C4-H46=297.14          O7-C6-C5-C4=180.31            
O7-C6-C5-H34=358.66           C9-C6-C5-C4=359.49            C9-C6-C5-H34=177.84           C8-O7-C6-C5=357.80            
C8-O7-C6-C9=178.57            H35-C8-O7-C6=300.73           H36-C8-O7-C6=182.07           H37-C8-O7-C6= 63.50           
O10-C9-C6-C5=181.57           O10-C9-C6-O7=  0.84           C12-C9-C6-C5=  1.81           C12-C9-C6-O7=181.09           
C11-O10-C9-C6=180.11          C11-O10-C9-C12=359.85         
           -------------------------------------------------
          |                Final Singlepoint                |
           -------------------------------------------------

          ...................................................
          :                      SETUP                      :
          :.................................................:
          :  # basis functions                 171          :
          :  # atomic orbitals                 171          :
          :  # shells                          105          :
          :  # electrons                       180          :
          :  max. iterations                   250          :
          :  Hamiltonian                  GFN2-xTB          :
          :  restarted?                      false          :
          :  GBSA solvation                  false          :
          :  PC potential                    false          :
          :  electronic temp.         5000.0000000     K    :
          :  accuracy                    1.0000000          :
          :  -> integral cutoff          0.2500000E+02      :
          :  -> integral neglect         0.1000000E-07      :
          :  -> SCF convergence          0.1000000E-05 Eh   :
          :  -> wf. convergence          0.1000000E-03 e    :
          :  Broyden damping             0.4000000          :
          ...................................................

 iter      E             dE          RMSdq      gap      omega  full diag
   1   -100.7520269 -0.100752E+03  0.578E-05    1.19       0.0  T
   2   -100.7520269  0.395630E-10  0.510E-05    1.19     231.2  T
   3   -100.7520269 -0.226521E-09  0.192E-05    1.19     614.2  T

   *** convergence criteria satisfied after 3 iterations ***

         #    Occupation            Energy/Eh            Energy/eV
      -------------------------------------------------------------
         1        2.0000           -0.8247794             -22.4434
       ...           ...                  ...                  ...
        84        1.9948           -0.5124600             -13.9447
        85        1.9913           -0.5041834             -13.7195
        86        1.9700           -0.4844341             -13.1821
        87        1.9652           -0.4820566             -13.1174
        88        1.9201           -0.4685195             -12.7491
        89        1.8249           -0.4552889             -12.3890
        90        1.7429           -0.4484843             -12.2039 (HOMO)
        91        0.6000           -0.4047646             -11.0142 (LUMO)
        92        0.0112           -0.3361323              -9.1466
        93        0.0035           -0.3176983              -8.6450
        94        0.0021           -0.3092276              -8.4145
        95        0.0017           -0.3058007              -8.3213
       ...           ...                  ...                  ...
       171                          0.5803464              15.7920
      -------------------------------------------------------------
                  HL-Gap            0.0437197 Eh            1.1897 eV
             Fermi-level           -0.4181790 Eh          -11.3792 eV

 SCC (total)                   0 d,  0 h,  0 min,  0.115 sec
 SCC setup                      ...        0 min,  0.001 sec (  0.755%)
 Dispersion                     ...        0 min,  0.001 sec (  1.165%)
 classical contributions        ...        0 min,  0.000 sec (  0.377%)
 integral evaluation            ...        0 min,  0.018 sec ( 15.255%)
 iterations                     ...        0 min,  0.026 sec ( 22.737%)
 molecular gradient             ...        0 min,  0.068 sec ( 59.217%)
 printout                       ...        0 min,  0.001 sec (  0.481%)

         :::::::::::::::::::::::::::::::::::::::::::::::::::::
         ::                     SUMMARY                     ::
         :::::::::::::::::::::::::::::::::::::::::::::::::::::
         :: total energy             -99.376929958273 Eh    ::
         :: gradient norm              0.009732015803 Eh/a0 ::
         :: HOMO-LUMO gap              1.189673632956 eV    ::
         ::.................................................::
         :: SCC energy              -100.752026883934 Eh    ::
         :: -> isotropic ES            0.101832063838 Eh    ::
         :: -> anisotropic ES          0.006208888393 Eh    ::
         :: -> anisotropic XC          0.044096952251 Eh    ::
         :: -> dispersion             -0.073148928783 Eh    ::
         :: repulsion energy           1.374273941939 Eh    ::
         :: add. restraining           0.000000000000 Eh    ::
         :: total charge               1.000000000000 e     ::
         :::::::::::::::::::::::::::::::::::::::::::::::::::::

           -------------------------------------------------
          |                Property Printout                |
           -------------------------------------------------

    * Orbital Energies and Occupations

         #    Occupation            Energy/Eh            Energy/eV
      -------------------------------------------------------------
         1        2.0000           -0.8247794             -22.4434
       ...           ...                  ...                  ...
        78        1.9981           -0.5283586             -14.3774
        79        1.9980           -0.5273348             -14.3495
        80        1.9977           -0.5255619             -14.3013
        81        1.9977           -0.5250577             -14.2875
        82        1.9959           -0.5159954             -14.0409
        83        1.9956           -0.5150250             -14.0145
        84        1.9948           -0.5124600             -13.9447
        85        1.9913           -0.5041834             -13.7195
        86        1.9700           -0.4844341             -13.1821
        87        1.9652           -0.4820566             -13.1174
        88        1.9201           -0.4685195             -12.7491
        89        1.8249           -0.4552889             -12.3890
        90        1.7429           -0.4484843             -12.2039 (HOMO)
        91        0.6000           -0.4047646             -11.0142 (LUMO)
        92        0.0112           -0.3361323              -9.1466
        93        0.0035           -0.3176983              -8.6450
        94        0.0021           -0.3092276              -8.4145
        95        0.0017           -0.3058007              -8.3213
        96        0.0006           -0.2898123              -7.8862
        97        0.0000           -0.2330580              -6.3418
        98        0.0000           -0.1833596              -4.9895
        99                         -0.1078581              -2.9350
       100                         -0.0754524              -2.0532
       101                         -0.0662490              -1.8027
       ...                                ...                  ...
       171                          0.5803464              15.7920
      -------------------------------------------------------------
                  HL-Gap            0.0437197 Eh            1.1897 eV
             Fermi-level           -0.4181790 Eh          -11.3792 eV

     #   Z          covCN         q      C6AA      α(0)
     1   7 N        1.774    -0.274    27.915     7.824
     2   6 C        2.827     0.100    25.770     8.318
     3   6 C        3.899     0.012    20.315     6.407
     4   6 C        3.862    -0.019    20.880     6.498
     5   6 C        2.904    -0.078    29.945     8.973
     6   6 C        2.849     0.134    25.057     8.204
     7   8 O        1.706    -0.234    17.879     5.709
     8   6 C        3.645     0.026    20.471     6.503
     9   6 C        2.863     0.142    24.912     8.181
    10   8 O        1.706    -0.192    17.205     5.600
    11   6 C        3.645     0.019    20.594     6.522
    12   6 C        2.899    -0.064    29.581     8.918
    13   6 C        2.906    -0.030    28.742     8.791
    14   6 C        3.815    -0.064    21.709     6.632
    15   6 C        2.890    -0.081    30.015     8.982
    16   6 C        2.842     0.009    27.806     8.642
    17   7 N        2.732    -0.044    22.095     6.981
    18   6 C        3.750    -0.007    20.763     6.499
    19   6 C        3.807    -0.072    21.869     6.657
    20   6 C        2.968     0.006    27.890     8.663
    21   6 C        2.921    -0.045    29.117     8.849
    22   6 C        2.913    -0.066    29.641     8.928
    23   6 C        2.864     0.134    25.066     8.207
    24   8 O        1.706    -0.219    17.642     5.671
    25   6 C        3.645     0.024    20.498     6.507
    26   6 C        2.862     0.134    25.074     8.208
    27   8 O        1.706    -0.223    17.701     5.680
    28   6 C        3.645     0.027    20.450     6.500
    29   6 C        2.920    -0.078    29.959     8.976
    30   6 C        3.699    -0.057    21.766     6.672
    31   6 C        3.850    -0.008    20.694     6.470
    32   6 C        3.757    -0.120    22.846     6.815
    33   6 C        3.756    -0.120    22.846     6.815
    34   1 H        0.926     0.060     2.204     2.322
    35   1 H        0.924     0.051     2.306     2.375
    36   1 H        0.925     0.083     1.946     2.181
    37   1 H        0.924     0.049     2.329     2.386
    38   1 H        0.924     0.065     2.145     2.290
    39   1 H        0.925     0.090     1.881     2.145
    40   1 H        0.924     0.062     2.170     2.304
    41   1 H        0.926     0.064     2.153     2.295
    42   1 H        0.926     0.055     2.257     2.349
    43   1 H        0.924     0.057     2.236     2.338
    44   1 H        0.924     0.058     2.227     2.334
    45   1 H        0.926     0.038     2.470     2.458
    46   1 H        0.923     0.085     1.925     2.170
    47   1 H        0.923     0.008     2.930     2.677
    48   1 H        0.925     0.047     2.352     2.398
    49   1 H        0.924     0.053     2.278     2.360
    50   1 H        0.924     0.058     2.224     2.332
    51   1 H        0.924     0.055     2.257     2.349
    52   1 H        0.924     0.057     2.237     2.339
    53   1 H        0.926     0.052     2.297     2.370
    54   1 H        0.926     0.060     2.200     2.319
    55   1 H        0.924     0.056     2.248     2.345
    56   1 H        0.924     0.057     2.230     2.335
    57   1 H        0.925     0.083     1.952     2.185
    58   1 H        0.925     0.082     1.961     2.190
    59   1 H        0.924     0.049     2.333     2.389
    60   1 H        0.924     0.053     2.279     2.361
    61   1 H        0.926     0.047     2.357     2.401
    62   1 H        0.924     0.063     2.161     2.299
    63   1 H        0.924     0.058     2.227     2.334
    64   1 H        0.925     0.067     2.121     2.277
    65   1 H        0.924     0.035     2.515     2.480
    66   1 H        0.925     0.067     2.124     2.279
    67   1 H        0.925     0.034     2.532     2.488
    68   1 H        0.925     0.052     2.301     2.372
    69   1 H        0.925     0.066     2.129     2.282
    70   1 H        0.925     0.039     2.463     2.454
    71   1 H        0.925     0.054     2.275     2.359
    72   1 H        0.860     0.158     1.350     1.820

 Mol. C6AA /au·bohr⁶  :      47486.250060
 Mol. C8AA /au·bohr⁸  :    1082208.667942
 Mol. α(0) /au        :        334.540622


Wiberg/Mayer (AO) data.
largest (>0.10) Wiberg bond orders for each atom

 ---------------------------------------------------------------------------
     #   Z sym  total        # sym  WBO       # sym  WBO       # sym  WBO
 ---------------------------------------------------------------------------
     1   7 N    3.006 --     2 C    1.948    72 H    0.942
     2   6 C    3.942 --     1 N    1.948     3 C    1.000    47 H    0.931
     3   6 C    3.917 --     2 C    1.000    31 C    0.968    14 C    0.927
                             4 C    0.896
     4   6 C    3.981 --    13 C    1.056     5 C    1.045     3 C    0.896
                            46 H    0.880
     5   6 C    3.804 --     6 C    1.566     4 C    1.045    34 H    0.959
                             7 O    0.104
     6   6 C    3.932 --     5 C    1.566     9 C    1.138     7 O    1.093
     7   8 O    2.259 --     6 C    1.093     8 C    0.977     5 C    0.104
     8   6 C    3.932 --     7 O    0.977    36 H    0.977    35 H    0.974
                            37 H    0.974
     9   6 C    3.697 --    12 C    1.276    10 O    1.163     6 C    1.138
    10   8 O    2.276 --     9 C    1.163    11 C    0.968
    11   6 C    3.921 --    39 H    0.976    40 H    0.971    38 H    0.971
                            10 O    0.968
    12   6 C    3.975 --    13 C    1.594     9 C    1.276    41 H    0.959
    13   6 C    3.748 --    12 C    1.594     4 C    1.056    42 H    0.965
    14   6 C    3.985 --    15 C    1.036    44 H    0.964    43 H    0.961
                             3 C    0.927
    15   6 C    3.824 --    16 C    1.659    14 C    1.036    45 H    0.962
    16   6 C    3.934 --    15 C    1.659    17 N    1.224    48 H    0.955
    17   7 N    3.387 --    16 C    1.224    30 C    1.006    18 C    1.003
    18   6 C    3.963 --    17 N    1.003    50 H    0.970    19 C    0.969
                            49 H    0.961
    19   6 C    3.977 --    20 C    1.012    51 H    0.975    18 C    0.969
                            52 H    0.963
    20   6 C    3.933 --    21 C    1.404    29 C    1.376    19 C    1.012
    21   6 C    3.937 --    22 C    1.417    20 C    1.404    53 H    0.967
    22   6 C    3.952 --    21 C    1.417    23 C    1.381    54 H    0.963
    23   6 C    3.882 --    22 C    1.381    26 C    1.213    24 O    1.112
    24   8 O    2.248 --    23 C    1.112    25 C    0.976
    25   6 C    3.927 --    57 H    0.977    24 O    0.976    56 H    0.972
                            55 H    0.972
    26   6 C    3.888 --    29 C    1.396    23 C    1.213    27 O    1.104
    27   8 O    2.249 --    26 C    1.104    28 C    0.979
    28   6 C    3.931 --    27 O    0.979    58 H    0.977    59 H    0.973
                            60 H    0.972
    29   6 C    3.955 --    26 C    1.396    20 C    1.376    61 H    0.961
    30   6 C    3.968 --    17 N    1.006    64 H    0.979    63 H    0.971
                            62 H    0.970
    31   6 C    3.977 --    32 C    1.007    33 C    1.004     3 C    0.968
                            65 H    0.957
    32   6 C    3.975 --    31 C    1.007    68 H    0.980    66 H    0.975
                            67 H    0.971
    33   6 C    3.976 --    31 C    1.004    70 H    0.982    71 H    0.981
                            69 H    0.976
    34   1 H    0.995 --     5 C    0.959
    35   1 H    0.995 --     8 C    0.974
    36   1 H    0.992 --     8 C    0.977
    37   1 H    0.995 --     8 C    0.974
    38   1 H    0.989 --    11 C    0.971
    39   1 H    0.991 --    11 C    0.976
    40   1 H    0.990 --    11 C    0.971
    41   1 H    0.994 --    12 C    0.959
    42   1 H    0.997 --    13 C    0.965
    43   1 H    0.991 --    14 C    0.961
    44   1 H    0.992 --    14 C    0.964
    45   1 H    0.998 --    15 C    0.962
    46   1 H    0.950 --     4 C    0.880
    47   1 H    0.982 --     2 C    0.931
    48   1 H    0.997 --    16 C    0.955
    49   1 H    0.989 --    18 C    0.961
    50   1 H    0.996 --    18 C    0.970
    51   1 H    0.996 --    19 C    0.975
    52   1 H    0.993 --    19 C    0.963
    53   1 H    0.996 --    21 C    0.967
    54   1 H    0.994 --    22 C    0.963
    55   1 H    0.990 --    25 C    0.972
    56   1 H    0.990 --    25 C    0.972
    57   1 H    0.992 --    25 C    0.977
    58   1 H    0.993 --    28 C    0.977
    59   1 H    0.992 --    28 C    0.973
    60   1 H    0.992 --    28 C    0.972
    61   1 H    0.996 --    29 C    0.961
    62   1 H    0.986 --    30 C    0.970
    63   1 H    0.988 --    30 C    0.971
    64   1 H    0.995 --    30 C    0.979
    65   1 H    0.992 --    31 C    0.957
    66   1 H    0.992 --    32 C    0.975
    67   1 H    0.996 --    32 C    0.971
    68   1 H    0.994 --    32 C    0.980
    69   1 H    0.991 --    33 C    0.976
    70   1 H    0.996 --    33 C    0.982
    71   1 H    0.994 --    33 C    0.981
    72   1 H    0.968 --     1 N    0.942
 ---------------------------------------------------------------------------

Topologies differ in total number of bonds
Writing topology from bond orders to xtbtopo.mol

molecular dipole:
                 x           y           z       tot (Debye)
 q only:       -0.219      -0.634      -0.062
   full:        0.152      -0.852      -0.049       2.203
molecular quadrupole (traceless):
                xx          xy          yy          xz          yz          zz
 q only:       83.790      22.316     -38.328     -12.904      -5.895     -45.462
  q+dip:       77.011      26.280     -36.642     -11.254      -6.870     -40.369
   full:       75.577      26.189     -36.688     -13.605      -7.386     -38.889

           -------------------------------------------------
          |                Geometry Summary                 |
           -------------------------------------------------

      molecular mass/u    :      455.6105846
   center of mass at/Å    :       -0.0036600       0.0442102       0.0034378
  moments of inertia/u·Å² :        0.2052403E+04   0.1364201E+05   0.1425476E+05
rotational constants/cm⁻¹ :        0.8213608E-02   0.1235715E-02   0.1182597E-02

 * 63 selected distances

     #   Z          #   Z                                           value/Å
     1   7 N        2   6 C                                       1.2513672
     5   6 C        6   6 C                                       1.3595026
     6   6 C        7   8 O                                       1.3502917
     7   8 O        8   6 C                                       1.4085701
     9   6 C       10   8 O                                       1.3313321
    10   8 O       11   6 C                                       1.4111533
     9   6 C       12   6 C                                       1.4051063
     4   6 C       13   6 C                                       1.4820860
    12   6 C       13   6 C                                       1.3611829
    15   6 C       16   6 C                                       1.3471740
    16   6 C       17   7 N                                       1.3550089
    17   7 N       18   6 C                                       1.4386955
    20   6 C       21   6 C                                       1.3859567
    21   6 C       22   6 C                                       1.3867071
    22   6 C       23   6 C                                       1.3879028
    23   6 C       24   8 O                                       1.3454401
    24   8 O       25   6 C                                       1.4089795
    23   6 C       26   6 C                                       1.4234341
    26   6 C       27   8 O                                       1.3479444
    27   8 O       28   6 C                                       1.4073652
    20   6 C       29   6 C                                       1.3942076
    26   6 C       29   6 C                                       1.3853003
    17   7 N       30   6 C                                       1.4406923
    31   6 C       32   6 C                                       1.5268665
    31   6 C       33   6 C                                       1.5299057 (max)
     5   6 C       34   1 H                                       1.0768903 (min)
     8   6 C       35   1 H                                       1.0941558
     8   6 C       36   1 H                                       1.0879525
     8   6 C       37   1 H                                       1.0943987
    11   6 C       38   1 H                                       1.0936403
    11   6 C       39   1 H                                       1.0883349
    11   6 C       40   1 H                                       1.0935733
    12   6 C       41   1 H                                       1.0789538
    13   6 C       42   1 H                                       1.0789760
    14   6 C       43   1 H                                       1.0907335
    14   6 C       44   1 H                                       1.0904716
    15   6 C       45   1 H                                       1.0788339
     4   6 C       46   1 H                                       1.0990669
     2   6 C       47   1 H                                       1.1014313
    16   6 C       48   1 H                                       1.0824721
    18   6 C       49   1 H                                       1.0961099
    18   6 C       50   1 H                                       1.0916922
    19   6 C       51   1 H                                       1.0903825
    19   6 C       52   1 H                                       1.0917599
    21   6 C       53   1 H                                       1.0791516
    22   6 C       54   1 H                                       1.0777042
    25   6 C       55   1 H                                       1.0941817
    25   6 C       56   1 H                                       1.0940521
    25   6 C       57   1 H                                       1.0883506
    28   6 C       58   1 H                                       1.0883032
    28   6 C       59   1 H                                       1.0949079
    28   6 C       60   1 H                                       1.0944548
    29   6 C       61   1 H                                       1.0788765
    30   6 C       62   1 H                                       1.0931481
    30   6 C       63   1 H                                       1.0931783
    30   6 C       64   1 H                                       1.0864727
    31   6 C       65   1 H                                       1.0976310
    32   6 C       66   1 H                                       1.0857366
    32   6 C       67   1 H                                       1.0853560
    32   6 C       68   1 H                                       1.0870636
    33   6 C       69   1 H                                       1.0856228
    33   6 C       70   1 H                                       1.0862353
    33   6 C       71   1 H                                       1.0870497

 * 4 distinct bonds (by element types)

   Z      Z             #   av. dist./Å        max./Å        min./Å
   1 H    6 C          38     1.0888765     1.1014313     1.0768903
   6 C    6 C          13     1.4134871     1.5299057     1.3471740
   6 C    7 N           4     1.3714410     1.4406923     1.2513672
   6 C    8 O           8     1.3763845     1.4111533     1.3313321


optimized geometry written to: xtbopt.xyz


           -------------------------------------------------
          | TOTAL ENERGY              -99.376929958273 Eh   |
          | GRADIENT NORM               0.009732015803 Eh/α |
          | HOMO-LUMO GAP               1.189673632956 eV   |
           -------------------------------------------------

------------------------------------------------------------------------
 * finished run on 2024/04/06 at 11:15:52.593     
------------------------------------------------------------------------
 total:
 * wall-time:     0 d,  0 h,  0 min,  1.085 sec
 *  cpu-time:     0 d,  0 h,  0 min,  1.055 sec
 * ratio c/w:     0.972 speedup
 SCF:
 * wall-time:     0 d,  0 h,  0 min,  0.123 sec
 *  cpu-time:     0 d,  0 h,  0 min,  0.123 sec
 * ratio c/w:     0.997 speedup
 ANC optimizer:
 * wall-time:     0 d,  0 h,  0 min,  0.917 sec
 *  cpu-time:     0 d,  0 h,  0 min,  0.910 sec
 * ratio c/w:     0.992 speedup

