      -----------------------------------------------------------      
     |                   =====================                   |     
     |                           x T B                           |     
     |                   =====================                   |     
     |                         S. Grimme                         |     
     |          Mulliken Center for Theoretical Chemistry        |     
     |                    University of Bonn                     |     
      -----------------------------------------------------------      

   * xtb version 6.6.1 (8d0f1dd) compiled by 'conda@1efc2f54142f' on 2023-08-01

   xtb is free software: you can redistribute it and/or modify it under
   the terms of the GNU Lesser General Public License as published by
   the Free Software Foundation, either version 3 of the License, or
   (at your option) any later version.
   
   xtb is distributed in the hope that it will be useful,
   but WITHOUT ANY WARRANTY; without even the implied warranty of
   MERCHANTABILITY or FITNESS FOR A PARTICULAR PURPOSE.  See the
   GNU Lesser General Public License for more details.
   
   Cite this work as:
   * C. Bannwarth, E. Caldeweyher, S. Ehlert, A. Hansen, P. Pracht,
     J. Seibert, S. Spicher, S. Grimme, WIREs Comput. Mol. Sci., 2020, 11,
     e01493. DOI: 10.1002/wcms.1493
   
   for GFN2-xTB:
   * C. Bannwarth, S. Ehlert and S. Grimme., J. Chem. Theory Comput., 2019,
     15, 1652-1671. DOI: 10.1021/acs.jctc.8b01176
   for GFN1-xTB:
   * S. Grimme, C. Bannwarth, P. Shushkov, J. Chem. Theory Comput., 2017,
     13, 1989-2009. DOI: 10.1021/acs.jctc.7b00118
   for GFN0-xTB:
   * P. Pracht, E. Caldeweyher, S. Ehlert, S. Grimme, ChemRxiv, 2019, preprint.
     DOI: 10.26434/chemrxiv.8326202.v1
   for GFN-FF:
   * S. Spicher and S. Grimme, Angew. Chem. Int. Ed., 2020, 59, 15665-15673.
     DOI: 10.1002/anie.202004239
   
   for ALPB and GBSA implicit solvation:
   * S. Ehlert, M. Stahn, S. Spicher, S. Grimme, J. Chem. Theory Comput.,
     2021, 17, 4250-4261. DOI: 10.1021/acs.jctc.1c00471
   
   for DFT-D4:
   * E. Caldeweyher, C. Bannwarth and S. Grimme, J. Chem. Phys., 2017,
     147, 034112. DOI: 10.1063/1.4993215
   * E. Caldeweyher, S. Ehlert, A. Hansen, H. Neugebauer, S. Spicher,
     C. Bannwarth and S. Grimme, J. Chem. Phys., 2019, 150, 154122.
     DOI: 10.1063/1.5090222
   * E. Caldeweyher, J.-M. Mewes, S. Ehlert and S. Grimme, Phys. Chem. Chem. Phys.
     2020, 22, 8499-8512. DOI: 10.1039/D0CP00502A
   
   for sTDA-xTB:
   * S. Grimme and C. Bannwarth, J. Chem. Phys., 2016, 145, 054103.
     DOI: 10.1063/1.4959605
   
   in the mass-spec context:
   * V. Asgeirsson, C. Bauer and S. Grimme, Chem. Sci., 2017, 8, 4879.
     DOI: 10.1039/c7sc00601b
   * J. Koopman and S. Grimme, ACS Omega 2019, 4, 12, 15120-15133.
     DOI: 10.1021/acsomega.9b02011
   
   for metadynamics refer to:
   * S. Grimme, J. Chem. Theory Comput., 2019, 155, 2847-2862
     DOI: 10.1021/acs.jctc.9b00143
   
   for SPH calculations refer to:
   * S. Spicher and S. Grimme, J. Chem. Theory Comput., 2021, 17, 1701-1714
     DOI: 10.1021/acs.jctc.0c01306
   
   with help from (in alphabetical order)
   P. Atkinson, C. Bannwarth, F. Bohle, G. Brandenburg, E. Caldeweyher
   M. Checinski, S. Dohm, S. Ehlert, S. Ehrlich, I. Gerasimov, C. Hölzer
   A. Katbashev, J. Koopman, C. Lavigne, S. Lehtola, F. März, M. Müller,
   F. Musil, H. Neugebauer, J. Pisarek, C. Plett, P. Pracht, F. Pultar,
   J. Seibert, P. Shushkov, S. Spicher, M. Stahn, M. Steiner, T. Strunk,
   J. Stückrath, T. Rose, and J. Unsleber
   
 * started run on 2024/04/06 at 11:16:02.961     

           -------------------------------------------------
          |                Calculation Setup                |
           -------------------------------------------------

          program call               : xtb xtbopt.xyz --opt crude --input .xc2 --gfn2
          hostname                   : n-62-30-23
          coordinate file            : xtbopt.xyz
          omp threads                :                     1

   ID    Z sym.   atoms
    1    7 N      1, 17
    2    6 C      2-6, 8, 9, 11-16, 18-23, 25, 26, 28-33
    3    8 O      7, 10, 24, 27
    4    1 H      34-72

molecular fragmentation (1/2 indicates fragments):
111111221111111111111111111111111112211111111111111111111111111111111111
# atoms in fragment 1/2:    68     4
 fragment masses (1/2) :      425.58       30.03
CMA distance (Bohr)    :   9.879
constraining FC (au)   :  0.0500
########################################################################
[WARNING] Please study the warnings concerning your input carefully
-1- readin_getIntValue: could not parse ''
########################################################################

           -------------------------------------------------
          |                 G F N 2 - x T B                 |
           -------------------------------------------------

        Reference                      10.1021/acs.jctc.8b01176
      * Hamiltonian:
        H0-scaling (s, p, d)           1.850000    2.230000    2.230000
        zeta-weighting                 0.500000
      * Dispersion:
        s8                             2.700000
        a1                             0.520000
        a2                             5.000000
        s9                             5.000000
      * Repulsion:
        kExp                           1.500000    1.000000
        rExp                           1.000000
      * Coulomb:
        alpha                          2.000000
        third order                    shell-resolved
        anisotropic                    true
        a3                             3.000000
        a5                             4.000000
        cn-shift                       1.200000
        cn-exp                         4.000000
        max-rad                        5.000000

q/qsh data taken from xtbrestart
CAMM data taken from xtbrestart

          ...................................................
          :                      SETUP                      :
          :.................................................:
          :  # basis functions                 171          :
          :  # atomic orbitals                 171          :
          :  # shells                          105          :
          :  # electrons                       180          :
          :  max. iterations                   250          :
          :  Hamiltonian                  GFN2-xTB          :
          :  restarted?                       true          :
          :  GBSA solvation                  false          :
          :  PC potential                    false          :
          :  electronic temp.         5000.0000000     K    :
          :  accuracy                    1.0000000          :
          :  -> integral cutoff          0.2500000E+02      :
          :  -> integral neglect         0.1000000E-07      :
          :  -> SCF convergence          0.1000000E-05 Eh   :
          :  -> wf. convergence          0.1000000E-03 e    :
          :  Broyden damping             0.4000000          :
          ...................................................

 iter      E             dE          RMSdq      gap      omega  full diag
   1   -100.7971535 -0.100797E+03  0.193E-05    1.75       0.0  T
   2   -100.7971535  0.324434E-10  0.259E-05    1.75     455.8  T
   3   -100.7971535 -0.605951E-10  0.527E-06    1.75    2237.9  T

   *** convergence criteria satisfied after 3 iterations ***

         #    Occupation            Energy/Eh            Energy/eV
      -------------------------------------------------------------
         1        2.0000           -0.8120293             -22.0964
       ...           ...                  ...                  ...
        84        1.9927           -0.5094558             -13.8630
        85        1.9890           -0.5029891             -13.6870
        86        1.9873           -0.5006213             -13.6226
        87        1.9766           -0.4909375             -13.3591
        88        1.9292           -0.4730057             -12.8711
        89        1.9147           -0.4699267             -12.7874
        90        1.8295           -0.4582415             -12.4694 (HOMO)
        91        0.3127           -0.3939807             -10.7208 (LUMO)
        92        0.0793           -0.3701981             -10.0736
        93        0.0123           -0.3400895              -9.2543
        94        0.0044           -0.3238010              -8.8111
        95        0.0025           -0.3148458              -8.5674
       ...           ...                  ...                  ...
       171                          1.2219027              33.2497
      -------------------------------------------------------------
                  HL-Gap            0.0642608 Eh            1.7486 eV
             Fermi-level           -0.4206693 Eh          -11.4470 eV

 SCC (total)                   0 d,  0 h,  0 min,  0.119 sec
 SCC setup                      ...        0 min,  0.001 sec (  0.823%)
 Dispersion                     ...        0 min,  0.002 sec (  1.453%)
 classical contributions        ...        0 min,  0.000 sec (  0.366%)
 integral evaluation            ...        0 min,  0.018 sec ( 15.389%)
 iterations                     ...        0 min,  0.028 sec ( 23.164%)
 molecular gradient             ...        0 min,  0.069 sec ( 58.266%)
 printout                       ...        0 min,  0.001 sec (  0.526%)

         :::::::::::::::::::::::::::::::::::::::::::::::::::::
         ::                     SUMMARY                     ::
         :::::::::::::::::::::::::::::::::::::::::::::::::::::
         :: total energy             -99.257683471039 Eh    ::
         :: gradient norm              0.782054109309 Eh/a0 ::
         :: HOMO-LUMO gap              1.748625043246 eV    ::
         ::.................................................::
         :: SCC energy              -100.797153512631 Eh    ::
         :: -> isotropic ES            0.117300420702 Eh    ::
         :: -> anisotropic ES         -0.000924990026 Eh    ::
         :: -> anisotropic XC          0.047283175059 Eh    ::
         :: -> dispersion             -0.075915364699 Eh    ::
         :: repulsion energy           1.537977459835 Eh    ::
         :: add. restraining           0.000000000000 Eh    ::
         :: total charge               1.000000000004 e     ::
         :::::::::::::::::::::::::::::::::::::::::::::::::::::

      ----------------------------------------------------------- 
     |                   =====================                   |
     |                        A N C O P T                        |
     |                   =====================                   |
     |               Approximate Normal Coordinate               |
     |                Rational Function Optimizer                |
      ----------------------------------------------------------- 

          ...................................................
          :                      SETUP                      :
          :.................................................:
          :   optimization level             crude          :
          :   max. optcycles                   200          :
          :   ANC micro-cycles                  20          :
          :   degrees of freedom               210          :
          :.................................................:
          :   RF solver                   davidson          :
          :   write xtbopt.log                true          :
          :   linear?                        false          :
          :   energy convergence         0.5000000E-03 Eh   :
          :   grad. convergence          0.1000000E-01 Eh/α :
          :   maxmium RF displ.          1.0000000          :
          :   Hlow (freq-cutoff)         0.1000000E-01      :
          :   Hmax (freq-cutoff)         5.0000000          :
          :   S6 in model hess.         20.0000000          :
          ...................................................

generating ANC from model Hessian ...
Using Lindh-Hessian (1995)
 Shifting diagonal of input Hessian by    1.0132154960734944E-002
 Lowest  eigenvalues of input Hessian
    0.010000    0.010125    0.000000    0.000000    0.000000    0.000000
    0.000000    0.000000    0.010181    0.010246    0.010297    0.010406
    0.010599    0.010732    0.010849    0.010990    0.011056    0.011104
 Highest eigenvalues
    2.048646    2.112111    2.170794    2.184097    2.343655    2.497949


........................................................................
.............................. CYCLE    1 ..............................
........................................................................

 iter      E             dE          RMSdq      gap      omega  full diag
   1   -100.7971535 -0.100797E+03  0.325E-06    1.75       0.0  T
   2   -100.7971535  0.255795E-12  0.250E-06    1.75    4716.0  T
   3   -100.7971535 -0.383693E-12  0.154E-06    1.75    7671.4  T
     SCC iter.                  ...        0 min,  0.026 sec
     gradient                   ...        0 min,  0.069 sec
 * total energy  :   -99.2576835 Eh     change       -0.8526513E-12 Eh
   gradient norm :     0.7820541 Eh/α   predicted     0.0000000E+00 (-100.00%)
   displ. norm   :     0.3690439 α      lambda       -0.2623935E+00
   maximum displ.:     0.2401779 α      in ANC's #210, #201, #154, ...

........................................................................
.............................. CYCLE    2 ..............................
........................................................................

 iter      E             dE          RMSdq      gap      omega  full diag
   1   -100.7866897 -0.100787E+03  0.224E-01    1.75       0.0  T
   2   -100.7868947 -0.204982E-03  0.122E-01    1.74       1.0  T
   3   -100.7867772  0.117429E-03  0.725E-02    1.75       1.0  T
   4   -100.7869664 -0.189208E-03  0.123E-02    1.75       1.0  T
   5   -100.7869683 -0.187502E-05  0.855E-03    1.74       1.4  T
   6   -100.7869701 -0.182141E-05  0.552E-03    1.75       2.1  T
   7   -100.7869719 -0.174947E-05  0.217E-03    1.74       5.4  T
   8   -100.7869722 -0.277846E-06  0.538E-04    1.75      21.9  T
   9   -100.7869722 -0.874249E-08  0.218E-04    1.75      54.0  T
     SCC iter.                  ...        0 min,  0.073 sec
     gradient                   ...        0 min,  0.069 sec
 * total energy  :   -99.3643895 Eh     change       -0.1067061E+00 Eh
   gradient norm :     0.0405659 Eh/α   predicted    -0.1490704E+00 (  39.70%)
   displ. norm   :     0.1011871 α      lambda       -0.2215329E-02
   maximum displ.:     0.0330804 α      in ANC's #115, #114, #47, ...

........................................................................
.............................. CYCLE    3 ..............................
........................................................................

 iter      E             dE          RMSdq      gap      omega  full diag
   1   -100.7771557 -0.100777E+03  0.456E-02    1.75       0.0  T
   2   -100.7771601 -0.434549E-05  0.282E-02    1.75       1.0  T
   3   -100.7771440  0.160739E-04  0.141E-02    1.74       1.0  T
   4   -100.7771597 -0.157366E-04  0.522E-03    1.75       2.3  T
   5   -100.7771622 -0.246119E-05  0.177E-03    1.75       6.7  T
   6   -100.7771625 -0.253501E-06  0.528E-04    1.75      22.3  T
   7   -100.7771625 -0.391634E-08  0.269E-04    1.75      43.8  T
     SCC iter.                  ...        0 min,  0.057 sec
     gradient                   ...        0 min,  0.075 sec
 * total energy  :   -99.3657767 Eh     change       -0.1387130E-02 Eh
   gradient norm :     0.0254055 Eh/α   predicted    -0.9966041E-03 ( -28.15%)
   displ. norm   :     0.1427183 α      lambda       -0.2186698E-02
   maximum displ.:     0.0678990 α      in ANC's #18, #17, #7, ...

........................................................................
.............................. CYCLE    4 ..............................
........................................................................

 iter      E             dE          RMSdq      gap      omega  full diag
   1   -100.7686760 -0.100769E+03  0.885E-02    1.75       0.0  T
   2   -100.7686866 -0.106288E-04  0.536E-02    1.75       1.0  T
   3   -100.7686492  0.373414E-04  0.244E-02    1.76       1.0  T
   4   -100.7686884 -0.391889E-04  0.709E-03    1.74       1.7  T
   5   -100.7686921 -0.370753E-05  0.291E-03    1.75       4.1  T
   6   -100.7686927 -0.548251E-06  0.121E-03    1.75       9.7  T
   7   -100.7686927 -0.125956E-07  0.583E-04    1.75      20.2  T
   8   -100.7686927 -0.216802E-07  0.113E-04    1.75     104.4  T
     SCC iter.                  ...        0 min,  0.065 sec
     gradient                   ...        0 min,  0.069 sec
 * total energy  :   -99.3655307 Eh     change        0.2459412E-03 Eh
   gradient norm :     0.0199272 Eh/α   predicted    -0.5334031E-03 (-316.88%)
   displ. norm   :     0.2417062 α      lambda       -0.1140099E-01
   maximum displ.:     0.1050972 α      in ANC's #14, #18, #17, ...

........................................................................
.............................. CYCLE    5 ..............................
........................................................................

 iter      E             dE          RMSdq      gap      omega  full diag
   1   -100.7571057 -0.100757E+03  0.149E-01    1.75       0.0  T
   2   -100.7571183 -0.126239E-04  0.912E-02    1.75       1.0  T
   3   -100.7570669  0.514284E-04  0.248E-02    1.74       1.0  T
   4   -100.7571232 -0.563314E-04  0.728E-03    1.76       1.6  T
   5   -100.7571258 -0.258111E-05  0.461E-03    1.75       2.6  T
   6   -100.7571269 -0.110661E-05  0.155E-03    1.75       7.6  T
   7   -100.7571270 -0.656783E-07  0.585E-04    1.75      20.1  T
   8   -100.7571270 -0.146019E-07  0.246E-04    1.75      48.0  T
     SCC iter.                  ...        0 min,  0.065 sec
     gradient                   ...        0 min,  0.069 sec
 * total energy  :   -99.3647451 Eh     change        0.7856706E-03 Eh
   gradient norm :     0.0289558 Eh/α   predicted    -0.1866823E-02 (-337.61%)
   displ. norm   :     0.1304239 α      lambda       -0.9530961E-02
   maximum displ.:     0.0470446 α      in ANC's #18, #115, #105, ...

........................................................................
.............................. CYCLE    6 ..............................
........................................................................

 iter      E             dE          RMSdq      gap      omega  full diag
   1   -100.7697045 -0.100770E+03  0.731E-02    1.75       0.0  T
   2   -100.7697146 -0.100418E-04  0.448E-02    1.75       1.0  T
   3   -100.7696869  0.276720E-04  0.197E-02    1.76       1.0  T
   4   -100.7697192 -0.322982E-04  0.408E-03    1.74       2.9  T
   5   -100.7697197 -0.536940E-06  0.320E-03    1.75       3.7  T
   6   -100.7697206 -0.806016E-06  0.106E-03    1.75      11.1  T
   7   -100.7697206 -0.243783E-07  0.489E-04    1.75      24.1  T
   8   -100.7697206 -0.933717E-08  0.129E-04    1.75      91.0  T
     SCC iter.                  ...        0 min,  0.065 sec
     gradient                   ...        0 min,  0.069 sec
 * total energy  :   -99.3663659 Eh     change       -0.1620816E-02 Eh
   gradient norm :     0.0039650 Eh/α   predicted    -0.1580462E-02 (  -2.49%)
   displ. norm   :     0.0438170 α      lambda       -0.4111844E-03
   maximum displ.:     0.0222098 α      in ANC's #1, #18, #13, ...

........................................................................
.............................. CYCLE    7 ..............................
........................................................................

 iter      E             dE          RMSdq      gap      omega  full diag
   1   -100.7713750 -0.100771E+03  0.202E-02    1.75       0.0  T
   2   -100.7713753 -0.296599E-06  0.123E-02    1.75       1.0  T
   3   -100.7713736  0.166333E-05  0.441E-03    1.75       2.7  T
   4   -100.7713755 -0.186425E-05  0.853E-04    1.75      13.8  T
   5   -100.7713755 -0.295148E-07  0.566E-04    1.75      20.8  T
   6   -100.7713755 -0.176202E-07  0.251E-04    1.75      47.0  T
     SCC iter.                  ...        0 min,  0.049 sec
     gradient                   ...        0 min,  0.070 sec
 * total energy  :   -99.3664176 Eh     change       -0.5168208E-04 Eh
   gradient norm :     0.0015080 Eh/α   predicted    -0.5258529E-04 (   1.75%)
   displ. norm   :     0.0494111 α      lambda       -0.6921579E-04
   maximum displ.:     0.0332359 α      in ANC's #1, #13, #4, ...

   *** GEOMETRY OPTIMIZATION CONVERGED AFTER 7 ITERATIONS ***

------------------------------------------------------------------------
 total energy gain   :        -0.1087341 Eh      -68.2317 kcal/mol
 total RMSD          :         0.0624591 a0        0.0331 Å
 total power (kW/mol):       -40.7830410 (step) -253.9231 (real)
------------------------------------------------------------------------

 ANCopt (total)                0 d,  0 h,  0 min,  1.124 sec
 optimizer setup                ...        0 min,  0.000 sec (  0.019%)
 model hessian                  ...        0 min,  0.059 sec (  5.229%)
 ANC generation                 ...        0 min,  0.007 sec (  0.582%)
 coordinate transformation      ...        0 min,  0.000 sec (  0.039%)
 single point calculation       ...        0 min,  1.046 sec ( 93.003%)
 optimization log               ...        0 min,  0.004 sec (  0.378%)
 hessian update                 ...        0 min,  0.000 sec (  0.042%)
 rational function              ...        0 min,  0.004 sec (  0.372%)

================
 final structure:
================
72
 xtb: 6.6.1 (8d0f1dd)
N           -1.74957243676959        2.91843591356800        2.30939085547914
C           -1.81686061919430        2.17463005927985        1.30875035492711
C           -3.01953656858855        2.04686272151953        0.41617607779674
C           -3.56031265831834        0.62727402989708        0.47706180198985
C           -4.53537759485628        0.20457471658509       -0.42761561297762
C           -5.05764387282440       -1.06725900374356       -0.37037673135106
O           -2.89114753044385       -1.58588227714332       -2.74181617598644
C           -3.94314260113891       -1.98900045725385       -3.17094500463982
C           -4.61957380798778       -1.97736832297803        0.59873500864686
O           -5.18632253493764       -3.20158155638874        0.55960598385016
C           -4.85385654771937       -4.14803663795531        1.55098402541893
C           -3.65325743173691       -1.56300815135772        1.51174007384992
C           -3.14199097659816       -0.27648898266044        1.44570309376336
C           -2.51628143456907        2.36135206460297       -1.01759816298517
C           -1.67644349670472        1.24292229862150       -1.65974441124445
C           -0.32188172833833        1.11804577002391       -1.08569161998002
N            0.27717709542722       -0.01185236566805       -0.76665760383490
C            1.65956952112145       -0.01297657081462       -0.34882410184498
C            2.60428251549570       -0.44047214934554       -1.48892580703207
C            4.02926733201973       -0.22494239527952       -1.06186043739713
C            4.64787620595692        0.99608190875363       -1.27902259574018
C            5.94468783847962        1.22265653487834       -0.84613901497753
C            6.64969363891215        0.23042504361224       -0.17956437949516
O            7.90562176374999        0.34056247974174        0.28905614087954
C            8.60644796976348        1.54876621795375        0.10148209637456
C            6.02395642004105       -1.02760779288590        0.04634066846228
O            6.78041384892576       -1.93399569637556        0.69481671005733
C            6.25968517171659       -3.21812675514483        0.94307154440524
C            4.72520377887495       -1.22983850686666       -0.39493084988930
C           -0.39887841660100       -1.28584370242853       -0.83066470465550
C           -4.17617100566281        3.01820838228425        0.79804220448200
C           -4.72630858492630        2.71049283197606        2.18871056846670
C           -3.78168275848303        4.49001469180144        0.71365416581016
H           -4.90108419596381        0.87996850830990       -1.18503067137058
H           -5.82301409693289       -1.38490303878379       -1.05873161955397
H           -4.24913381291548       -3.03981595474216       -3.08888008887522
H           -4.66089143207665       -1.32931492593203       -3.67756195034871
H           -5.08891949332082       -3.77719016436145        2.55265821950041
H           -5.46562068346160       -5.02267334091480        1.33858863980494
H           -3.79635030096333       -4.42553517138577        1.50106779092338
H           -3.30063663010282       -2.22589802189206        2.28586959984528
H           -2.41639530057164        0.02637641883096        2.18687378674792
H           -3.38037556668998        2.54035226782958       -1.65596444905001
H           -1.92971265790876        3.28093853088678       -0.98960094613538
H           -2.21951549717570        0.30046831425917       -1.63158541323278
H           -1.54982282808053        1.51494873718505       -2.71549116489911
H           -0.96775920735767        1.56930169856956        0.93816881090912
H            0.27734698000255        2.01670736177249       -1.02460501384234
H            1.77847785209835       -0.69275253444715        0.49880287436390
H            1.94038996653312        0.99132002668812       -0.02314935330426
H            2.38580765432567        0.16538366061706       -2.36983469703092
H            2.43416364805461       -1.48767886599736       -1.73992304517136
H            4.12329377145964        1.78188497174769       -1.80112288465071
H            6.40102304759176        2.18010621878629       -1.03618418788289
H            8.10429924938239        2.38402948418481        0.59915499647214
H            8.73230539267319        1.77793351488195       -0.96083088700651
H            9.58318772315944        1.39312565385949        0.55530791789233
H            7.05177963763510       -3.76006171418472        1.45604107432821
H            5.37585068303767       -3.17516709541578        1.58759041272434
H            6.01046689511703       -3.73677432702229        0.01224159962239
H            4.24383792611905       -2.18159052804685       -0.23341542160951
H           -0.78136823227323       -1.48406120131114       -1.83172029856083
H           -1.24734193331157       -1.29949939502990       -0.14131973530000
H            0.29301270987626       -2.07555091834132       -0.55253393803910
H           -4.97889974182646        2.83980178113305        0.07350524274522
H           -3.96878416654803        2.90499530069284        2.94143059557568
H           -5.04429531986274        1.67348966701653        2.26500182628341
H           -5.58459626942031        3.34603813179635        2.38964793334261
H           -2.95514408317741        4.69932605967844        1.38583618062922
H           -3.50649185372735        4.78000391126954       -0.29686341991137
H           -4.62762353783677        5.10191047022379        1.01572145480369
H           -0.87259119241208        2.95717168930349        2.81916091126940

 Bond Distances (Angstroems)
 ---------------------------
N1-C2=1.2486         N1-H72=1.0151        C2-N1=1.2486         C2-C3=1.5031         C2-H47=1.1067        C3-C2=1.5031         
C3-C4=1.5203         C3-C14=1.5517        C3-C31=1.5579        C4-C3=1.5203         C4-C5=1.3957         C4-C13=1.3893        
C5-C4=1.3957         C5-C6=1.3761         C5-H34=1.0787        C6-C5=1.3761         C6-C9=1.3998         C6-H35=1.0773        
O7-C8=1.2055         C8-O7=1.2055         C8-H36=1.0975        C8-H37=1.0986        C9-C6=1.3998         C9-O10=1.3496        
C9-C12=1.3925        O10-C9=1.3496        O10-C11=1.4104       C11-O10=1.4104       C11-H38=1.0937       C11-H39=1.0883       
C11-H40=1.0944       C12-C9=1.3925        C12-C13=1.3860       C12-H41=1.0784       C13-C4=1.3893        C13-C12=1.3860       
C13-H42=1.0805       C14-C3=1.5517        C14-C15=1.5390       C14-H43=1.0891       C14-H44=1.0911       C15-C14=1.5390       
C15-C16=1.4765       C15-H45=1.0881       C15-H46=1.0976       C16-C15=1.4765       C16-N17=1.3181       C16-H48=1.0819       
N17-C16=1.3181       N17-C18=1.4442       N17-C30=1.4437       C18-N17=1.4442       C18-C19=1.5411       C18-H49=1.0930       
C18-H50=1.0925       C19-C18=1.5411       C19-C20=1.5031       C19-H51=1.0912       C19-H52=1.0902       C20-C19=1.5031       
C20-C21=1.3859       C20-C29=1.3925       C21-C20=1.3859       C21-C22=1.3858       C21-H53=1.0795       C22-C21=1.3858       
C22-C23=1.3878       C22-H54=1.0775       C23-C22=1.3878       C23-O24=1.3450       C23-C26=1.4231       O24-C23=1.3450       
O24-C25=1.4093       C25-O24=1.4093       C25-H55=1.0943       C25-H56=1.0940       C25-H57=1.0882       C26-C23=1.4231       
C26-O27=1.3470       C26-C29=1.3865       O27-C26=1.3470       O27-C28=1.4078       C28-O27=1.4078       C28-H58=1.0882       
C28-H59=1.0947       C28-H60=1.0943       C29-C20=1.3925       C29-C26=1.3865       C29-H61=1.0787       C30-N17=1.4437       
C30-H62=1.0898       C30-H63=1.0933       C30-H64=1.0861       C31-C3=1.5579        C31-C32=1.5269       C31-C33=1.5261       
C31-H65=1.0960       C32-C31=1.5269       C32-H66=1.0855       C32-H67=1.0873       C32-H68=1.0867       C33-C31=1.5261       
C33-H69=1.0857       C33-H70=1.0867       C33-H71=1.0869       H34-C5=1.0787        H35-C6=1.0773        H36-C8=1.0975        
H37-C8=1.0986        H38-C11=1.0937       H39-C11=1.0883       H40-C11=1.0944       H41-C12=1.0784       H42-C13=1.0805       
H43-C14=1.0891       H44-C14=1.0911       H45-C15=1.0881       H46-C15=1.0976       H47-C2=1.1067        H48-C16=1.0819       
H49-C18=1.0930       H50-C18=1.0925       H51-C19=1.0912       H52-C19=1.0902       H53-C21=1.0795       H54-C22=1.0775       
H55-C25=1.0943       H56-C25=1.0940       H57-C25=1.0882       H58-C28=1.0882       H59-C28=1.0947       H60-C28=1.0943       
H61-C29=1.0787       H62-C30=1.0898       H63-C30=1.0933       H64-C30=1.0861       H65-C31=1.0960       H66-C32=1.0855       
H67-C32=1.0873       H68-C32=1.0867       H69-C33=1.0857       H70-C33=1.0867       H71-C33=1.0869       H72-N1=1.0151        
 C  H  Rav=1.0890 sigma=0.0067  Rmin=1.0773  Rmax=1.1067    38
 C  C  Rav=1.4521 sigma=0.0685  Rmin=1.3761  Rmax=1.5579    22
 N  H  Rav=1.0151 sigma=0.0000  Rmin=1.0151  Rmax=1.0151     1
 N  C  Rav=1.3636 sigma=0.0840  Rmin=1.2486  Rmax=1.4442     4
 O  C  Rav=1.3535 sigma=0.0669  Rmin=1.2055  Rmax=1.4104     7

 selected bond angles (degree)
 --------------------
H72-N1-C2=118.15               C3-C2-N1=124.72                H47-C2-N1=123.56               H47-C2-C3=111.63               
C4-C3-C2=109.89                C14-C3-C2=105.78               C14-C3-C4=109.97               C31-C3-C2=113.30               
C31-C3-C4=107.96               C31-C3-C14=109.93              C5-C4-C3=120.35                C13-C4-C3=121.89               
C13-C4-C5=117.73               C6-C5-C4=121.21                H34-C5-C4=120.16               H34-C5-C6=118.63               
C9-C6-C5=120.73                H35-C6-C5=121.04               H35-C6-C9=118.23               H36-C8-O7=122.47               
H37-C8-O7=122.24               H37-C8-H36=115.29              O10-C9-C6=115.99               C12-C9-C6=118.53               
C12-C9-O10=125.47              C11-O10-C9=119.30              

 selected dihedral angles (degree)
 ---------------------------------
C3-C2-N1-H72=182.61           H47-C2-N1-H72=358.92          C4-C3-C2-N1=243.11            C4-C3-C2-H47= 66.41           
C14-C3-C2-N1=124.44           C14-C3-C2-H47=307.75          C31-C3-C2-N1=  3.96           C31-C3-C2-H47=187.26          
C5-C4-C3-C2=190.55            C5-C4-C3-C14=306.60           C5-C4-C3-C31= 66.54           C13-C4-C3-C2= 12.56           
C13-C4-C3-C14=128.61          C13-C4-C3-C31=248.55          C6-C5-C4-C3=181.40            C6-C5-C4-C13=359.48           
H34-C5-C4-C3=  0.86           H34-C5-C4-C13=178.94          C9-C6-C5-C4=359.78            C9-C6-C5-H34=180.31           
H35-C6-C5-C4=178.88           H35-C6-C5-H34=359.41          O10-C9-C6-C5=180.62           O10-C9-C6-H35=  1.50          
C12-C9-C6-C5=  0.62           C12-C9-C6-H35=181.50          C11-O10-C9-C6=183.65          C11-O10-C9-C12=  3.65         

 CMA Distance (Angstroems)
 ---------------------------
R(CMA):  5.2083
           -------------------------------------------------
          |                Final Singlepoint                |
           -------------------------------------------------

          ...................................................
          :                      SETUP                      :
          :.................................................:
          :  # basis functions                 171          :
          :  # atomic orbitals                 171          :
          :  # shells                          105          :
          :  # electrons                       180          :
          :  max. iterations                   250          :
          :  Hamiltonian                  GFN2-xTB          :
          :  restarted?                      false          :
          :  GBSA solvation                  false          :
          :  PC potential                    false          :
          :  electronic temp.         5000.0000000     K    :
          :  accuracy                    1.0000000          :
          :  -> integral cutoff          0.2500000E+02      :
          :  -> integral neglect         0.1000000E-07      :
          :  -> SCF convergence          0.1000000E-05 Eh   :
          :  -> wf. convergence          0.1000000E-03 e    :
          :  Broyden damping             0.4000000          :
          ...................................................

 iter      E             dE          RMSdq      gap      omega  full diag
   1   -100.7713755 -0.100771E+03  0.730E-05    1.75       0.0  T
   2   -100.7713755 -0.896563E-10  0.501E-05    1.75     235.4  T
   3   -100.7713755 -0.101366E-09  0.290E-05    1.75     405.7  T

   *** convergence criteria satisfied after 3 iterations ***

         #    Occupation            Energy/Eh            Energy/eV
      -------------------------------------------------------------
         1        2.0000           -0.8122385             -22.1021
       ...           ...                  ...                  ...
        84        1.9928           -0.5095254             -13.8649
        85        1.9889           -0.5026278             -13.6772
        86        1.9874           -0.5005928             -13.6218
        87        1.9767           -0.4908474             -13.3566
        88        1.9295           -0.4729043             -12.8684
        89        1.9153           -0.4698918             -12.7864
        90        1.8299           -0.4581310             -12.4664 (HOMO)
        91        0.3133           -0.3938586             -10.7174 (LUMO)
        92        0.0777           -0.3697194             -10.0606
        93        0.0124           -0.3400668              -9.2537
        94        0.0038           -0.3213150              -8.7434
        95        0.0025           -0.3147416              -8.5646
       ...           ...                  ...                  ...
       171                          0.5735236              15.6064
      -------------------------------------------------------------
                  HL-Gap            0.0642723 Eh            1.7489 eV
             Fermi-level           -0.4205125 Eh          -11.4427 eV

 SCC (total)                   0 d,  0 h,  0 min,  0.119 sec
 SCC setup                      ...        0 min,  0.001 sec (  0.726%)
 Dispersion                     ...        0 min,  0.002 sec (  1.354%)
 classical contributions        ...        0 min,  0.000 sec (  0.365%)
 integral evaluation            ...        0 min,  0.018 sec ( 15.094%)
 iterations                     ...        0 min,  0.026 sec ( 22.167%)
 molecular gradient             ...        0 min,  0.071 sec ( 59.744%)
 printout                       ...        0 min,  0.001 sec (  0.538%)

         :::::::::::::::::::::::::::::::::::::::::::::::::::::
         ::                     SUMMARY                     ::
         :::::::::::::::::::::::::::::::::::::::::::::::::::::
         :: total energy             -99.366417553154 Eh    ::
         :: gradient norm              0.001506398282 Eh/a0 ::
         :: HOMO-LUMO gap              1.748939304192 eV    ::
         ::.................................................::
         :: SCC energy              -100.771375528658 Eh    ::
         :: -> isotropic ES            0.117080037232 Eh    ::
         :: -> anisotropic ES         -0.000438009187 Eh    ::
         :: -> anisotropic XC          0.048702766991 Eh    ::
         :: -> dispersion             -0.075914846919 Eh    ::
         :: repulsion energy           1.403472386107 Eh    ::
         :: add. restraining           0.000000000000 Eh    ::
         :: total charge               1.000000000004 e     ::
         :::::::::::::::::::::::::::::::::::::::::::::::::::::

           -------------------------------------------------
          |                Property Printout                |
           -------------------------------------------------

    * Orbital Energies and Occupations

         #    Occupation            Energy/Eh            Energy/eV
      -------------------------------------------------------------
         1        2.0000           -0.8122385             -22.1021
       ...           ...                  ...                  ...
        78        1.9978           -0.5284331             -14.3794
        79        1.9977           -0.5278421             -14.3633
        80        1.9968           -0.5222165             -14.2102
        81        1.9950           -0.5151882             -14.0190
        82        1.9948           -0.5148067             -14.0086
        83        1.9940           -0.5123604             -13.9420
        84        1.9928           -0.5095254             -13.8649
        85        1.9889           -0.5026278             -13.6772
        86        1.9874           -0.5005928             -13.6218
        87        1.9767           -0.4908474             -13.3566
        88        1.9295           -0.4729043             -12.8684
        89        1.9153           -0.4698918             -12.7864
        90        1.8299           -0.4581310             -12.4664 (HOMO)
        91        0.3133           -0.3938586             -10.7174 (LUMO)
        92        0.0777           -0.3697194             -10.0606
        93        0.0124           -0.3400668              -9.2537
        94        0.0038           -0.3213150              -8.7434
        95        0.0025           -0.3147416              -8.5646
        96        0.0023           -0.3130849              -8.5195
        97        0.0022           -0.3125350              -8.5045
        98        0.0000           -0.1907432              -5.1904
        99        0.0000           -0.1900253              -5.1709
       100                         -0.1338667              -3.6427
       101                         -0.0665878              -1.8119
       ...                                ...                  ...
       171                          0.5735236              15.6064
      -------------------------------------------------------------
                  HL-Gap            0.0642723 Eh            1.7489 eV
             Fermi-level           -0.4205125 Eh          -11.4427 eV

     #   Z          covCN         q      C6AA      α(0)
     1   7 N        1.774    -0.267    27.756     7.801
     2   6 C        2.827     0.103    25.722     8.311
     3   6 C        3.907     0.006    20.421     6.423
     4   6 C        2.975     0.003    27.944     8.671
     5   6 C        2.923    -0.033    28.829     8.805
     6   6 C        2.919    -0.052    29.303     8.877
     7   8 O        0.856    -0.332    20.371     6.051
     8   6 C        2.702     0.175    24.231     8.057
     9   6 C        2.864     0.150    24.752     8.155
    10   8 O        1.706    -0.248    18.106     5.745
    11   6 C        3.644     0.029    20.421     6.496
    12   6 C        2.915    -0.068    29.692     8.935
    13   6 C        2.924    -0.040    28.996     8.831
    14   6 C        3.813    -0.064    21.723     6.634
    15   6 C        3.802    -0.078    21.996     6.677
    16   6 C        2.847     0.019    27.574     8.606
    17   7 N        2.729     0.027    20.778     6.770
    18   6 C        3.758    -0.018    20.949     6.525
    19   6 C        3.808    -0.071    21.846     6.653
    20   6 C        2.970     0.001    28.008     8.681
    21   6 C        2.922    -0.049    29.208     8.863
    22   6 C        2.914    -0.067    29.674     8.933
    23   6 C        2.865     0.134    25.068     8.207
    24   8 O        1.706    -0.220    17.650     5.672
    25   6 C        3.645     0.024    20.498     6.507
    26   6 C        2.863     0.134    25.073     8.208
    27   8 O        1.706    -0.223    17.694     5.679
    28   6 C        3.645     0.026    20.467     6.502
    29   6 C        2.919    -0.079    29.978     8.979
    30   6 C        3.701    -0.082    22.236     6.743
    31   6 C        3.853    -0.008    20.684     6.468
    32   6 C        3.756    -0.118    22.814     6.810
    33   6 C        3.755    -0.119    22.834     6.814
    34   1 H        0.926     0.050     2.325     2.384
    35   1 H        0.926     0.057     2.239     2.340
    36   1 H        0.924     0.050     2.324     2.384
    37   1 H        0.923     0.046     2.369     2.407
    38   1 H        0.924     0.054     2.274     2.358
    39   1 H        0.925     0.077     2.006     2.215
    40   1 H        0.924     0.048     2.350     2.397
    41   1 H        0.926     0.047     2.363     2.404
    42   1 H        0.926     0.036     2.509     2.477
    43   1 H        0.925     0.065     2.146     2.291
    44   1 H        0.924     0.053     2.285     2.364
    45   1 H        0.925     0.094     1.836     2.119
    46   1 H        0.924     0.090     1.883     2.146
    47   1 H        0.922     0.004     2.985     2.702
    48   1 H        0.925     0.072     2.067     2.248
    49   1 H        0.924     0.070     2.085     2.258
    50   1 H        0.924     0.067     2.121     2.278
    51   1 H        0.924     0.057     2.229     2.335
    52   1 H        0.924     0.058     2.218     2.329
    53   1 H        0.926     0.046     2.369     2.407
    54   1 H        0.926     0.059     2.206     2.323
    55   1 H        0.924     0.055     2.260     2.351
    56   1 H        0.924     0.057     2.234     2.337
    57   1 H        0.925     0.083     1.946     2.181
    58   1 H        0.925     0.083     1.951     2.184
    59   1 H        0.924     0.050     2.325     2.385
    60   1 H        0.924     0.054     2.272     2.357
    61   1 H        0.926     0.049     2.333     2.389
    62   1 H        0.925     0.109     1.708     2.044
    63   1 H        0.924     0.083     1.952     2.185
    64   1 H        0.925     0.080     1.982     2.202
    65   1 H        0.924     0.041     2.436     2.441
    66   1 H        0.925     0.068     2.106     2.269
    67   1 H        0.925     0.036     2.506     2.476
    68   1 H        0.925     0.052     2.295     2.369
    69   1 H        0.925     0.061     2.183     2.310
    70   1 H        0.925     0.036     2.502     2.474
    71   1 H        0.925     0.055     2.253     2.347
    72   1 H        0.860     0.157     1.356     1.824

 Mol. C6AA /au·bohr⁶  :      47768.941475
 Mol. C8AA /au·bohr⁸  :    1090107.308244
 Mol. α(0) /au        :        336.381053


Wiberg/Mayer (AO) data.
largest (>0.10) Wiberg bond orders for each atom

 ---------------------------------------------------------------------------
     #   Z sym  total        # sym  WBO       # sym  WBO       # sym  WBO
 ---------------------------------------------------------------------------
     1   7 N    3.038 --     2 C    1.956    72 H    0.941
     2   6 C    3.933 --     1 N    1.956     3 C    0.995    47 H    0.903
     3   6 C    3.974 --     2 C    0.995     4 C    0.971    14 C    0.954
                            31 C    0.942
     4   6 C    3.948 --    13 C    1.407     5 C    1.370     3 C    0.971
     5   6 C    3.976 --     6 C    1.484     4 C    1.370    34 H    0.963
     6   6 C    3.959 --     5 C    1.484     9 C    1.320    35 H    0.964
     7   8 O    2.018 --     8 C    1.912
     8   6 C    3.812 --     7 O    1.912    36 H    0.946    37 H    0.945
     9   6 C    3.912 --    12 C    1.356     6 C    1.320    10 O    1.094
    10   8 O    2.243 --     9 C    1.094    11 C    0.976
    11   6 C    3.933 --    39 H    0.978    10 O    0.976    40 H    0.974
                            38 H    0.974
    12   6 C    3.960 --    13 C    1.436     9 C    1.356    41 H    0.965
    13   6 C    3.974 --    12 C    1.436     4 C    1.407    42 H    0.962
    14   6 C    3.973 --    15 C    0.979    44 H    0.972    43 H    0.967
                             3 C    0.954
    15   6 C    3.980 --    16 C    1.065    14 C    0.979    45 H    0.951
                            46 H    0.920
    16   6 C    3.657 --    17 N    1.450    15 C    1.065    48 H    0.955
    17   7 N    3.527 --    16 C    1.450    30 C    0.994    18 C    0.987
    18   6 C    3.955 --    17 N    0.987    50 H    0.967    19 C    0.966
                            49 H    0.964
    19   6 C    3.977 --    20 C    1.008    52 H    0.971    51 H    0.971
                            18 C    0.966
    20   6 C    3.942 --    21 C    1.406    29 C    1.382    19 C    1.008
    21   6 C    3.947 --    22 C    1.418    20 C    1.406    53 H    0.968
    22   6 C    3.958 --    21 C    1.418    23 C    1.381    54 H    0.963
    23   6 C    3.892 --    22 C    1.381    26 C    1.217    24 O    1.113
    24   8 O    2.255 --    23 C    1.113    25 C    0.975
    25   6 C    3.927 --    57 H    0.977    24 O    0.975    55 H    0.972
                            56 H    0.972
    26   6 C    3.896 --    29 C    1.393    23 C    1.217    27 O    1.106
    27   8 O    2.255 --    26 C    1.106    28 C    0.978
    28   6 C    3.931 --    27 O    0.978    58 H    0.977    59 H    0.973
                            60 H    0.973
    29   6 C    3.958 --    26 C    1.393    20 C    1.382    61 H    0.962
    30   6 C    3.947 --    17 N    0.994    64 H    0.978    63 H    0.958
                            62 H    0.956
    31   6 C    3.969 --    33 C    1.008    32 C    1.008    65 H    0.959
                             3 C    0.942
    32   6 C    3.976 --    31 C    1.008    67 H    0.981    68 H    0.981
                            66 H    0.973
    33   6 C    3.980 --    31 C    1.008    70 H    0.982    71 H    0.979
                            69 H    0.975
    34   1 H    0.996 --     5 C    0.963
    35   1 H    0.995 --     6 C    0.964
    36   1 H    0.994 --     8 C    0.946
    37   1 H    0.994 --     8 C    0.945
    38   1 H    0.993 --    11 C    0.974
    39   1 H    0.993 --    11 C    0.978
    40   1 H    0.994 --    11 C    0.974
    41   1 H    0.996 --    12 C    0.965
    42   1 H    0.998 --    13 C    0.962
    43   1 H    0.994 --    14 C    0.967
    44   1 H    0.996 --    14 C    0.972
    45   1 H    0.990 --    15 C    0.951
    46   1 H    0.971 --    15 C    0.920
    47   1 H    0.985 --     2 C    0.903
    48   1 H    0.994 --    16 C    0.955
    49   1 H    0.991 --    18 C    0.964
    50   1 H    0.995 --    18 C    0.967
    51   1 H    0.995 --    19 C    0.971
    52   1 H    0.995 --    19 C    0.971
    53   1 H    0.997 --    21 C    0.968
    54   1 H    0.995 --    22 C    0.963
    55   1 H    0.991 --    25 C    0.972
    56   1 H    0.991 --    25 C    0.972
    57   1 H    0.992 --    25 C    0.977
    58   1 H    0.992 --    28 C    0.977
    59   1 H    0.993 --    28 C    0.973
    60   1 H    0.992 --    28 C    0.973
    61   1 H    0.996 --    29 C    0.962
    62   1 H    0.981 --    30 C    0.956
    63   1 H    0.985 --    30 C    0.958
    64   1 H    0.994 --    30 C    0.978
    65   1 H    0.990 --    31 C    0.959
    66   1 H    0.990 --    32 C    0.973
    67   1 H    0.996 --    32 C    0.981
    68   1 H    0.993 --    32 C    0.981
    69   1 H    0.992 --    33 C    0.975
    70   1 H    0.996 --    33 C    0.982
    71   1 H    0.993 --    33 C    0.979
    72   1 H    0.970 --     1 N    0.941
 ---------------------------------------------------------------------------

Topologies differ in total number of bonds
Writing topology from bond orders to xtbtopo.mol

molecular dipole:
                 x           y           z       tot (Debye)
 q only:        0.742      -0.143      -0.583
   full:        0.827      -0.439      -0.765       3.073
molecular quadrupole (traceless):
                xx          xy          yy          xz          yz          zz
 q only:       46.028       8.007      -9.064       1.759      -7.820     -36.963
  q+dip:       42.126      15.963      -8.102       7.758     -11.514     -34.024
   full:       41.491      15.522      -9.074       3.943     -10.679     -32.417

           -------------------------------------------------
          |                Geometry Summary                 |
           -------------------------------------------------

      molecular mass/u    :      455.6105846
   center of mass at/Å    :        0.0320022       0.0332370      -0.0481381
  moments of inertia/u·Å² :        0.2682231E+04   0.1013158E+05   0.1129719E+05
rotational constants/cm⁻¹ :        0.6284930E-02   0.1663870E-02   0.1492197E-02

 * 65 selected distances

     #   Z          #   Z                                           value/Å
     1   7 N        2   6 C                                       1.2486219
     4   6 C        5   6 C                                       1.3956604
     5   6 C        6   6 C                                       1.3760813
     7   8 O        8   6 C                                       1.2055495
     6   6 C        9   6 C                                       1.3997794
     9   6 C       10   8 O                                       1.3496050
    10   8 O       11   6 C                                       1.4103693
     9   6 C       12   6 C                                       1.3924943
     4   6 C       13   6 C                                       1.3892613
    12   6 C       13   6 C                                       1.3859604
    14   6 C       15   6 C                                       1.5390143
    15   6 C       16   6 C                                       1.4764717
    16   6 C       17   7 N                                       1.3180760
    17   7 N       18   6 C                                       1.4441590
    18   6 C       19   6 C                                       1.5411254 (max)
    20   6 C       21   6 C                                       1.3859066
    21   6 C       22   6 C                                       1.3858012
    22   6 C       23   6 C                                       1.3877603
    23   6 C       24   8 O                                       1.3450246
    24   8 O       25   6 C                                       1.4092899
    23   6 C       26   6 C                                       1.4231048
    26   6 C       27   8 O                                       1.3469552
    27   8 O       28   6 C                                       1.4077577
    20   6 C       29   6 C                                       1.3924580
    26   6 C       29   6 C                                       1.3864980
    17   7 N       30   6 C                                       1.4436767
    31   6 C       32   6 C                                       1.5268592
    31   6 C       33   6 C                                       1.5260919
     5   6 C       34   1 H                                       1.0786917
     6   6 C       35   1 H                                       1.0772753 (min)
     8   6 C       36   1 H                                       1.0975330
     8   6 C       37   1 H                                       1.0986398
    11   6 C       38   1 H                                       1.0936787
    11   6 C       39   1 H                                       1.0882816
    11   6 C       40   1 H                                       1.0944481
    12   6 C       41   1 H                                       1.0784439
    13   6 C       42   1 H                                       1.0805326
    14   6 C       43   1 H                                       1.0891334
    14   6 C       44   1 H                                       1.0910941
    15   6 C       45   1 H                                       1.0880900
    15   6 C       46   1 H                                       1.0975576
    16   6 C       48   1 H                                       1.0818500
    18   6 C       49   1 H                                       1.0930262
    18   6 C       50   1 H                                       1.0924908
    19   6 C       51   1 H                                       1.0912347
    19   6 C       52   1 H                                       1.0902212
    21   6 C       53   1 H                                       1.0794731
    22   6 C       54   1 H                                       1.0775292
    25   6 C       55   1 H                                       1.0943019
    25   6 C       56   1 H                                       1.0940141
    25   6 C       57   1 H                                       1.0882107
    28   6 C       58   1 H                                       1.0882303
    28   6 C       59   1 H                                       1.0947208
    28   6 C       60   1 H                                       1.0943261
    29   6 C       61   1 H                                       1.0787180
    30   6 C       62   1 H                                       1.0898170
    30   6 C       63   1 H                                       1.0932857
    30   6 C       64   1 H                                       1.0861435
    31   6 C       65   1 H                                       1.0959728
    32   6 C       66   1 H                                       1.0854778
    32   6 C       67   1 H                                       1.0873416
    32   6 C       68   1 H                                       1.0867160
    33   6 C       69   1 H                                       1.0857285
    33   6 C       70   1 H                                       1.0867243
    33   6 C       71   1 H                                       1.0868657

 * 4 distinct bonds (by element types)

   Z      Z             #   av. dist./Å        max./Å        min./Å
   1 H    6 C          37     1.0885357     1.0986398     1.0772753
   6 C    6 C          17     1.4300193     1.5411254     1.3760813
   6 C    7 N           4     1.3636334     1.4441590     1.2486219
   6 C    8 O           7     1.3535073     1.4103693     1.2055495


optimized geometry written to: xtbopt.xyz


           -------------------------------------------------
          | TOTAL ENERGY              -99.366417553154 Eh   |
          | GRADIENT NORM               0.001506398282 Eh/α |
          | HOMO-LUMO GAP               1.748939304192 eV   |
           -------------------------------------------------

------------------------------------------------------------------------
 * finished run on 2024/04/06 at 11:16:04.375     
------------------------------------------------------------------------
 total:
 * wall-time:     0 d,  0 h,  0 min,  1.414 sec
 *  cpu-time:     0 d,  0 h,  0 min,  1.387 sec
 * ratio c/w:     0.981 speedup
 SCF:
 * wall-time:     0 d,  0 h,  0 min,  0.120 sec
 *  cpu-time:     0 d,  0 h,  0 min,  0.120 sec
 * ratio c/w:     0.999 speedup
 ANC optimizer:
 * wall-time:     0 d,  0 h,  0 min,  1.250 sec
 *  cpu-time:     0 d,  0 h,  0 min,  1.243 sec
 * ratio c/w:     0.994 speedup

