25
 energy: -42.137167750740 gnorm: 0.003860006501 xtb: 6.6.1 (8d0f1dd)
C            3.43638434931387        2.11138828536078        0.02323070570819
N            2.81357473926093        0.81380999560868        0.01892598911831
C            3.42313103633928       -0.36473478122278        0.01800755999507
N            2.51844794010261       -1.35844396910003        0.01318990133028
C            1.26531250187983       -0.80009451691113        0.01051156654265
C            1.46557988444913        0.58809409515865        0.01445188855618
C            0.32755553100731        1.47960077922406        0.00931776982161
O            0.38554923537250        2.69441248608705        0.01309890103758
N           -0.86387073419735        0.77755446037728       -0.00160992112573
C           -2.09773733277345        1.53575104406723       -0.01124481372286
C           -1.01173014185975       -0.64020798597212       -0.00050893153573
O           -2.12798931483241       -1.10766814756231       -0.00487918994203
N            0.10667792734146       -1.40616216413605        0.00392279659446
C           -4.30611809722012       -4.03863711755366       -0.03573249045272
H            4.04708993835390        2.23651094968473        0.91785709890637
H            4.07118929410177        2.23107500048825       -0.85494857900946
H            2.65512678242999        2.87187532654912        0.01137396981942
H            4.48763800485632       -0.50478867683912        0.02105588469380
H           -1.84837756918828        2.59529907962651        0.00105541340964
H           -2.67584664283494        1.29215206002940       -0.90433062947260
H           -2.69906453110198        1.27632768025935        0.86190350237650
H           -4.62817262074775       -4.44751462346269        0.90512273779127
H           -4.63042910395842       -4.49502856094275       -0.95189876368934
H           -3.66745824213509       -3.17254673954353       -0.05874000145159
H            2.71396868013910       -2.34978541767613        0.01203925259308
