25
 energy: 0.000000000000 xtb: 6.6.1 (8d0f1dd)
C            3.23720132972391        1.16630909158653        0.08434468864950
N            2.29877796055224        0.07527476373246        0.03981602671198
C            2.58028186251803       -1.21425391179017        0.03006175752192
N            1.43813944744728       -1.93419254010258        0.00098261751768
C            0.39035684826767       -1.05887462812143       -0.00790371763344
C            0.93510047688824        0.21347817468824        0.01709077332874
C            0.09450143016486        1.40504290868848       -0.00410946993748
O            0.49712746915594        2.54126690785742       -0.00342325656480
N           -1.25076628431515        1.06271869620815       -0.03085477937476
C           -2.21907191394203        2.15522079838987       -0.05001256521996
C           -1.81739470187490       -0.20012724136556       -0.04692818139228
O           -2.99983858926755       -0.37846413507442       -0.07008877579474
N           -0.92618577614240       -1.30210203518959       -0.03682761236648
C           -1.46982251276835       -2.64643077634382       -0.06029819901142
H            3.71247229913541        1.21471443890471        1.06488839270555
H            4.00791460421487        1.03430799217987       -0.67357688121503
H            2.69909982127087        2.09770098766290       -0.09130154035862
H            3.56654087521359       -1.63682977417947        0.04233139674524
H           -1.67107945562430        3.09322822573871       -0.02552706696334
H           -2.82428927394145        2.09428605349656       -0.95318074103337
H           -2.87644002486466        2.07745706351925        0.81450059976605
H           -1.17061985538665       -3.19584861009707        0.83242224714061
H           -1.14560246782873       -3.17511580834413       -0.95688266944647
H           -2.55549768731684       -2.55659960601237       -0.07459039105944
H            1.38130842369251       -2.94313824728853       -0.01389874052104
25
 energy: -6.102450774020 xtb: 6.6.1 (8d0f1dd)
C            3.24628435622333        1.17001681452182        0.08418598370079
N            2.30546638973027        0.10151056239404        0.03495345701944
C            2.60281335077963       -1.24097095718855        0.03151401420200
N            1.42211862826817       -1.94052992653977        0.00172375051972
C            0.40092607965954       -1.06173546259064       -0.00552807111654
C            0.91912933756870        0.22602589757689        0.02020041497719
C            0.11101053359932        1.38543351568671       -0.00101811810544
O            0.49395278335897        2.55948795604373        0.00586881854014
N           -1.28006602961483        1.05143767344793       -0.05165886698651
C           -2.23498950466425        2.15473533633356       -0.06727569809695
C           -1.81947455829605       -0.19878547360460       -0.04420024406842
O           -3.01758291560099       -0.39244362835892       -0.06112951994064
N           -0.93711956715212       -1.30122699133272       -0.03094421910132
C           -1.46612761260174       -2.64477789785210       -0.05672837844274
H            3.72339742518342        1.21624891854861        1.06706252986630
H            4.01713964414932        1.03087640202549       -0.67663454943564
H            2.70751532201834        2.09819569317896       -0.09500295784820
H            3.57957908391921       -1.65281339870333        0.04098661314129
H           -1.66298866462940        3.07823801822186        0.00536945751648
H           -2.85709714462246        2.17044494170022       -0.96675111286630
H           -2.90395627278792        2.05791181783161        0.78548804895561
H           -1.16086483765452       -3.19632806041572        0.83546849439390
H           -1.13527296523594       -3.17670639031666       -0.95242703303722
H           -2.55178747331395       -2.56129050538873       -0.07195624021343
H            1.36951046611236       -2.94523691213213       -0.01287940060486
25
 energy: -5.331687890171 xtb: 6.6.1 (8d0f1dd)
C            3.25340024063401        1.16719094668874        0.08428112964089
N            2.30903042112340        0.10027834728620        0.03604682853747
C            2.60689780536107       -1.24402714274631        0.02976458768745
N            1.42489654541421       -1.94309876912388        0.00121310476856
C            0.40400279512286       -1.06301779162170       -0.00249085690774
C            0.91989611718567        0.22601497484097        0.02439065027629
C            0.10675626558889        1.38423099195341       -0.00034503466603
O            0.49145710749775        2.55812592328005        0.01530047455884
N           -1.29210709358310        1.05357949580541       -0.07297159482480
C           -2.25181713262792        2.16139222944394       -0.08392322388310
C           -1.82227463396363       -0.20142806723638       -0.04176920354915
O           -3.01958197961711       -0.40222071594558       -0.04924642167018
N           -0.93493581711169       -1.30163247459566       -0.02347415579033
C           -1.46217748931147       -2.64635175612014       -0.05117202109296
H            3.73268183775312        1.21465686759959        1.06653525411293
H            4.02344825266417        1.02677483628722       -0.67791915041257
H            2.71572461420195        2.09538639985018       -0.09547989593247
H            3.58388774694064       -1.65910627119558        0.03566536526368
H           -1.66895136619007        3.07432260653749        0.03545232010918
H           -2.88215378512437        2.24327514905193       -0.98080764500204
H           -2.93561581795904        2.03923745403321        0.75326430682237
H           -1.15767297018493       -3.20103505115132        0.83944754453810
H           -1.13033633131957       -3.17690459321756       -0.94748990870712
H           -2.54779929825768       -2.56259155459018       -0.06763639447840
H            1.37046600472738       -2.94853611232434       -0.01639441333202
25
 energy: -3.989322290627 xtb: 6.6.1 (8d0f1dd)
C            3.25926706323874        1.16456020693214        0.08282720658555
N            2.31166894017275        0.09937869206035        0.03627094431154
C            2.61022963177985       -1.24704587375814        0.02888042875333
N            1.42683638768499       -1.94582138127686        0.00183904478387
C            0.40642124639057       -1.06458742611010        0.00042113868255
C            0.91959907243882        0.22553691735020        0.02833859706884
C            0.10266415641290        1.38168016357362        0.00034227442481
O            0.48929721380241        2.55504529841401        0.02681229025249
N           -1.30344978369468        1.05685115237979       -0.09498048602633
C           -2.26757518821349        2.17131584783636       -0.09977920546213
C           -1.82452973105771       -0.20177309525063       -0.03901892055765
O           -3.02061402279591       -0.41038486617119       -0.03744016710904
N           -0.93339884120501       -1.30123759447851       -0.01660739610962
C           -1.45769001609253       -2.64769998051464       -0.04688803496361
H            3.73927896404811        1.21319498615812        1.06502867948497
H            4.02953014530272        1.02140763349095       -0.67935115182650
H            2.72356868172616        2.09305478170471       -0.09890097627664
H            3.58722567076288       -1.66478468196801        0.03241647913979
H           -1.67358182751727        3.07079949697093        0.06730125153024
H           -2.90359966897569        2.32074719304964       -0.99198462226907
H           -2.96487311106931        2.01833917272936        0.72101971946891
H           -1.15234546609375       -3.20363448799191        0.84278434580558
H           -1.12329406819317       -3.17720277413604       -0.94329663954514
H           -2.54345241806755       -2.56656176900010       -0.06484035661602
H            1.37183100647336       -2.95180230246595       -0.01859204872093
25
 energy: -2.090016568412 xtb: 6.6.1 (8d0f1dd)
C            3.26536274901372        1.16136513199246        0.08221284326668
N            2.31434618659722        0.09850774287362        0.03620313331384
C            2.61329133278769       -1.24990434821415        0.02656101324186
N            1.42854942465727       -1.94822877973413        0.00154747725623
C            0.40875582517601       -1.06577891715650        0.00301732613952
C            0.91983870212914        0.22529153528465        0.03269273138636
C            0.09913540561759        1.37967974095166        0.00140672872310
O            0.48809162719825        2.55217119559577        0.03788567567087
N           -1.31408469690851        1.06194527058155       -0.11518232704796
C           -2.28424793975480        2.18366859158090       -0.11471329941670
C           -1.82646074972585       -0.19989716048383       -0.03540450055218
O           -3.02096519602044       -0.41746206783937       -0.02652908123337
N           -0.93191274195466       -1.29993717119390       -0.00987576516449
C           -1.45286943741248       -2.64860557900741       -0.04202460787717
H            3.74643367981745        1.21031848137429        1.06420084713009
H            4.03547321976174        1.01539041318042       -0.68013098408411
H            2.73251181400295        2.09087482221311       -0.10042625867291
H            3.59012037584227       -1.66994650209328        0.02688731491737
H           -1.67959099387019        3.06733403401467        0.10075469720874
H           -2.92315636009738        2.39833049342194       -1.00296887985312
H           -2.99426258054370        1.99799576781006        0.68850159845232
H           -1.14580356759757       -3.20515369826691        0.84689825325752
H           -1.11616012233085       -3.17767802521447       -0.93833113356181
H           -2.53885247544796       -2.57126556080484       -0.06061176543417
H            1.37475318930617       -2.95457265828887       -0.02272418368172
25
 energy: 0.337009985028 xtb: 6.6.1 (8d0f1dd)
C            3.27149361280054        1.15820166943664        0.08096240607993
N            2.31779568373867        0.09754375370455        0.03556154151559
C            2.61689889344962       -1.25277144861332        0.02453482287046
N            1.43077062434294       -1.95016777201074        0.00104873202542
C            0.41143020914015       -1.06650067099023        0.00546339523289
C            0.92125715918294        0.22548507463974        0.03442593605021
C            0.09826418553727        1.38015487053476        0.00161421988160
O            0.48808427226818        2.55149743284049        0.04887420696761
N           -1.32337763801003        1.06955721165847       -0.13441341837989
C           -2.30109986624529        2.19875181610548       -0.12748258013625
C           -1.82760051782082       -0.19635233388791       -0.03165618096464
O           -3.02049677259788       -0.42314901566142       -0.01516416278081
N           -0.93017793436763       -1.29794191037111       -0.00331419554245
C           -1.44811145790261       -2.64909353282149       -0.03737270475518
H            3.75347251030271        1.20768838396686        1.06271957351583
H            4.04142184509469        1.00965313611892       -0.68146560118695
H            2.74098553765320        2.08859765279388       -0.10250875976632
H            3.59352663497876       -1.67519219134899        0.02113259679977
H           -1.68670050952688        3.06496635450127        0.13370027660498
H           -2.94030076390729        2.47718957930665       -1.01146413572885
H           -3.02358609500174        1.97848301153255        0.65588200246966
H           -1.13967907195107       -3.20682302513227        0.85066939276798
H           -1.10912400714820       -3.17801274019908       -0.93346811790526
H           -2.53431667577724       -2.57573363526479       -0.05689057797902
H            1.37909538295836       -2.95678519272493       -0.02475723008191
25
 energy: 3.045408091935 xtb: 6.6.1 (8d0f1dd)
C            3.27755739551384        1.15482176669640        0.07955300446286
N            2.32165195781800        0.09621490412280        0.03394282657614
C            2.62073187649444       -1.25568883125348        0.02194638346947
N            1.43347083000414       -1.95129075668089       -0.00140898415116
C            0.41434237609998       -1.06675806157465        0.00679048625315
C            0.92337249076878        0.22590473277136        0.03174405987962
C            0.09955958623428        1.38252563711765       -0.00121607019540
O            0.48931621205133        2.55233479496985        0.05963214597272
N           -1.32989554506261        1.07801748520709       -0.15332171124491
C           -2.31538530601159        2.21254673621868       -0.13490746309060
C           -1.82749895883080       -0.19144540514026       -0.03092411766872
O           -3.01888315054672       -0.42670679626064       -0.00457896505309
N           -0.92818578952300       -1.29534732118003        0.00241285163033
C           -1.44332982000211       -2.64903340837663       -0.03278032954150
H            3.75999477028107        1.20460258410978        1.06125649811108
H            4.04755550513081        1.00414311338983       -0.68262614550613
H            2.74923029393976        2.08616070907690       -0.10437261881364
H            3.59696723735866       -1.68047073937427        0.01440606555982
H           -1.69560789954715        3.06250894756795        0.16732331516929
H           -2.95407776595407        2.55384985304306       -1.01695880976401
H           -3.05287348374665        1.95902486220415        0.62323682160169
H           -1.13368261028180       -3.20764381947608        0.85467258253473
H           -1.10199166849010       -3.17837198053586       -0.92829250403647
H           -2.52975112715235       -2.57986846950388       -0.05329222758469
H            1.38323168662748       -2.95796372466416       -0.02332337886063
25
 energy: 6.098033032740 xtb: 6.6.1 (8d0f1dd)
C            3.28492260495980        1.15034916809380        0.07746203940582
N            2.32753168540377        0.09296127082470        0.03277251285497
C            2.62625871915338       -1.26019763811384        0.02039934156196
N            1.43770309924199       -1.95281861732751        0.00162659248659
C            0.41890965204581       -1.06746204255561        0.00962600303851
C            0.92833147975005        0.22520785149362        0.02945376680676
C            0.10488751942463        1.38382092680891       -0.00148310911174
O            0.49320879316811        2.55250515362118        0.07110943310784
N           -1.32714713577475        1.08301914658771       -0.15979506845632
C           -2.31882482580257        2.21895158369607       -0.13413066163530
C           -1.82389288269815       -0.18957812522224       -0.02685565178018
O           -3.01442855909150       -0.42926809800517        0.00628262364631
N           -0.92451774268064       -1.29400901281211        0.00813006262850
C           -1.43830832989189       -2.64942445647480       -0.03005711327148
H            3.76994887399165        1.20132501953724        1.05801733432007
H            4.05327221251634        0.99722106772374       -0.68586364434566
H            2.75859419230551        2.08278324435645       -0.10622109507894
H            3.60189548190964       -1.68682824049209        0.00934316240055
H           -1.71304508699283        3.06399660148799        0.20162286211098
H           -2.96506120464113        2.62631140725869       -1.01840695121505
H           -3.07680477105920        1.93816712915125        0.59522667274257
H           -1.12765160252480       -3.21113014651840        0.85532536747162
H           -1.09691728866003       -3.17797910376687       -0.92639372661527
H           -2.52491789460496       -2.58316293191211       -0.05015029773061
H            1.38652909634271       -2.95936567304231       -0.01256908035564
25
 energy: 9.974940513568 xtb: 6.6.1 (8d0f1dd)
C            3.28986736786741        1.14614316265045        0.07706245259926
N            2.33141119242658        0.08932151641957        0.03009409727273
C            2.62866701053304       -1.26555594267380        0.01400980680528
N            1.43849985732337       -1.95458254264633        0.00026497189697
C            0.42177951568040       -1.06780821707240        0.01180529260496
C            0.93164174712026        0.22428879159118        0.03048359469788
C            0.10676357989588        1.38308025280473        0.00528749060518
O            0.49507158307520        2.55114596143251        0.08371276128251
N           -1.32564956013668        1.08494104420669       -0.14982493415544
C           -2.32169069980078        2.22366413722571       -0.12865014226833
C           -1.82133283825235       -0.19092845444639       -0.02034142126467
O           -3.01149796939244       -0.43295892052264        0.01977737523903
N           -0.92186807301778       -1.29349117173104        0.01443469398168
C           -1.43293376022815       -2.65036543005787       -0.02311133320165
H            3.77247514308440        1.19803200879929        1.05890504070810
H            4.06042937361261        0.99185718967739       -0.68386297623577
H            2.76566071683526        2.07950657530676       -0.10835223562398
H            3.60410812367306       -1.69310130995582        0.00006464044188
H           -1.72829215591789        3.06162511748522        0.23955688904686
H           -2.98144436178607        2.69579024247584       -1.01484070596583
H           -3.10509013358105        1.91591627098528        0.56100515965244
H           -1.12170523657341       -3.21013887862780        0.86343859183319
H           -1.08793843665966       -3.17968656444090       -0.91783666896808
H           -2.51975988503094       -2.58763930231423       -0.04558639213914
H            1.38118335677940       -2.96043850192244       -0.01724870210497
25
 energy: 14.423568900026 xtb: 6.6.1 (8d0f1dd)
C            3.29625682764297        1.14174954405042        0.07646131230505
N            2.33474212992927        0.08738950153783        0.02953801801909
C            2.62948978072631       -1.26709687540832        0.02076867480379
N            1.43992498372336       -1.95641498209487        0.00310614842926
C            0.42490405127636       -1.06854121594327        0.01474654088020
C            0.93500303421663        0.22314423073641        0.03103703341881
C            0.10937206753217        1.38174207138442        0.01046716144675
O            0.49935496554622        2.54937686042019        0.09074859859851
N           -1.32492816871208        1.08676210898099       -0.13609794708236
C           -2.32462880216385        2.22517662025585       -0.12230071364090
C           -1.81889232901071       -0.19228386333563       -0.01034412695188
O           -3.00866247344561       -0.43670258110747        0.03623947097171
N           -0.91907248203943       -1.29287742088379        0.02204321010763
C           -1.42818544954407       -2.65072177724501       -0.01954138758563
H            3.77893590292340        1.19410321680953        1.05833175861088
H            4.06728179309388        0.98338120461859       -0.68328245630164
H            2.77607060771151        2.07694947049728       -0.11065581653213
H            3.60445780275204       -1.69711789573036       -0.00842759058456
H           -1.74743827786871        3.06131808047056        0.26403826258737
H           -2.99597051486709        2.75964785618272       -1.02020185092174
H           -3.13077916483853        1.89661938668193        0.52989671822425
H           -1.11496811207075       -3.21347276633570        0.86461695730951
H           -1.08184362748922       -3.17589426820069       -0.91631848799768
H           -2.51526652982580       -2.59073299177970       -0.04201677130664
H            1.37763862350848       -2.96193872999781       -0.01770109201837
25
 energy: 19.498596122775 xtb: 6.6.1 (8d0f1dd)
C            3.30208847603138        1.13688141765818        0.07603535090556
N            2.33834238842060        0.08407516806758        0.02708730029221
C            2.63264284623166       -1.27081985038955        0.03215796816794
N            1.44216502225335       -1.95905019179607        0.00549256527292
C            0.42768730401586       -1.06992322706232        0.01241677690183
C            0.93874330675312        0.22120519781707        0.02973344737331
C            0.11282740598980        1.38050414959866        0.01151985602972
O            0.50325877777194        2.54883852591789        0.08071923427276
N           -1.32319596311681        1.08676453840298       -0.12246243385031
C           -2.32891166467881        2.21896397303092       -0.11990442895172
C           -1.81594853254533       -0.19476794572332       -0.00246659292149
O           -3.00531552059957       -0.44026077084444        0.05077508925542
N           -0.91606059643123       -1.29298979269445        0.02626791452726
C           -1.42333259684726       -2.65174620329015       -0.01579443771158
H            3.78485065739748        1.18901163503636        1.05796030660642
H            4.07372208254898        0.97634870461125       -0.68271050615148
H            2.78517126256228        2.07380930834742       -0.11165084905296
H            3.60647389892531       -1.70188861714629       -0.01818144221731
H           -1.77219894511152        3.05790011074642        0.28016025002801
H           -3.03893322070185        2.78022386286666       -1.05097048252936
H           -3.15406794796005        1.87878840520056        0.49880074687214
H           -1.10868892868280       -3.21540064080793        0.86740623165788
H           -1.07581543052295       -3.17532457303195       -0.91302296167192
H           -2.51059431179663       -2.59422059741827       -0.03846617916528
H            1.37519906159692       -2.96473049201818       -0.01504512462790
25
 energy: 28.267962167496 xtb: 6.6.1 (8d0f1dd)
C            3.30789355435108        1.13238750925191        0.07490393280287
N            2.34207807015454        0.08128122772251        0.02512289992948
C            2.63511007288967       -1.27350773588926        0.04299767843868
N            1.44474070277812       -1.96128323479347        0.00890766616496
C            0.43084663647801       -1.07086825595401        0.01430711645872
C            0.94296528899801        0.21939937014499        0.03112921109768
C            0.11803491763123        1.37903137621927        0.01586639440183
O            0.50946260729091        2.54776174261481        0.07272696348302
N           -1.31911400679922        1.08711987135913       -0.10646202229135
C           -2.32312458354966        2.21021143086040       -0.10561350748726
C           -1.81219587830732       -0.19763024940723        0.00369286516803
O           -3.00137809539644       -0.44229512206983        0.06017721628996
N           -0.91316214970308       -1.29299482060765        0.02530966514159
C           -1.41862467706529       -2.65247824127790       -0.01242260240018
H            3.79179716139458        1.18415778719896        1.05628193110422
H            4.07866409090255        0.96896485862845       -0.68403352839641
H            2.79447514193010        2.07119006496143       -0.11289449020687
H            3.60754278860491       -1.70289886475980       -0.02756583651395
H           -1.78573166048276        3.05239772859961        0.30594356551167
H           -3.09704500485142        2.83409369105237       -1.08049242131364
H           -3.17267304846418        1.85573446542068        0.46517428844119
H           -1.10245294408508       -3.21482039544277        0.87123057520670
H           -1.06880089029736       -3.17518279646683       -0.90902906424373
H           -2.50618369775909       -2.59814587981853       -0.03545489342268
H            1.37854278631306       -2.96743648107225       -0.01281990224247
25
 energy: 39.655983492700 xtb: 6.6.1 (8d0f1dd)
C            3.31487355005809        1.12778050414471        0.07438171344027
N            2.34747701632439        0.07840063278871        0.02611424226701
C            2.63902842014990       -1.27608896283439        0.05303599266640
N            1.44975323509566       -1.96350111551264        0.01160421470714
C            0.43568390243092       -1.07364648895358        0.01630195468085
C            0.94810091237437        0.21660732926914        0.03353207062517
C            0.12472213512833        1.37624320404801        0.02211362615386
O            0.51726870054429        2.54471149845151        0.06745831870087
N           -1.31280487946309        1.08621217921700       -0.08686032847871
C           -2.31135755787089        2.19421532271033       -0.08794901321573
C           -1.80642697875875       -0.20209104868637        0.01300063250252
O           -2.99533280780082       -0.44230168708291        0.07278179061331
N           -0.90875833717283       -1.29558691676534        0.02713162092917
C           -1.41322951369027       -2.65405711492520       -0.00982759319035
H            3.79864437238333        1.17875900004041        1.05559542462665
H            4.08564923580582        0.96203372537584       -0.68392113055713
H            2.80445162722570        2.06805450758802       -0.11404508738048
H            3.60909384318446       -1.70819343934298       -0.03219084245947
H           -1.79873771065081        3.04397151073991        0.33034240786150
H           -3.17223700586439        2.89484421806472       -1.11965823021687
H           -3.18615284350598        1.82672913643230        0.42820746026038
H           -1.09610253276746       -3.21514438867349        0.87404409216441
H           -1.06125612130353       -3.17486963299379       -0.90633774521832
H           -2.50099187173895       -2.60135847117159       -0.03391581150069
H            1.38495904379386       -2.96963690552094       -0.01128098927334
25
 energy: 58.696996362937 xtb: 6.6.1 (8d0f1dd)
C            3.32045549958407        1.12322779245172        0.07438968177755
N            2.35349658543157        0.07198735164744        0.02798692658081
C            2.64056208241051       -1.27746091255385        0.05853171698294
N            1.45583438309709       -1.96548091921478        0.01473029432401
C            0.43907501857348       -1.07688643634071        0.01951215668222
C            0.95558244488381        0.21215501398919        0.03557533651664
C            0.13461632265890        1.37202265703452        0.03131854743081
O            0.52806083538328        2.54015329484725        0.06153087600540
N           -1.29413298063736        1.08118343018528       -0.04813917104362
C           -2.26115517278967        2.15582690549849       -0.03232673795046
C           -1.79894445678432       -0.21193334038533        0.01952405338172
O           -2.98923487359394       -0.44161128810932        0.06476292484017
N           -0.90369114281925       -1.30036466298827        0.02814191045063
C           -1.40843316908627       -2.65711444554244       -0.00561674669632
H            3.80476241975908        1.17404167665278        1.05484269721438
H            4.08938121967157        0.95380065936796       -0.68411574185752
H            2.81186936289417        2.06461213553746       -0.11497749457151
H            3.60925805916449       -1.71208227303646       -0.04038704121014
H           -1.79647542862222        3.04111162904664        0.35206738533570
H           -3.30595297494753        3.00829465934614       -1.20110866769632
H           -3.18691327486864        1.79750814398144        0.37717071397373
H           -1.08899703958428       -3.21514677759462        0.87880775568707
H           -1.05302457542622       -3.17298957397713       -0.90296936186923
H           -2.49651240527254       -2.60735608753133       -0.02923534820784
H            1.39003177978439       -2.97147594543879       -0.01109166820444
25
 energy: 70.430900722833 xtb: 6.6.1 (8d0f1dd)
C            3.32527911866202        1.11807147235881        0.07359049829844
N            2.35902509673445        0.06412672152799        0.02971322374353
C            2.64370288936353       -1.27895835853242        0.06302160614103
N            1.46327790612934       -1.96901659282381        0.01655147368688
C            0.44275316785922       -1.08151547392209        0.02172224385299
C            0.96381112439312        0.20563181897372        0.03769620785304
C            0.14281312786343        1.36722359746745        0.03817961125425
O            0.53933195571353        2.53344623496587        0.05332949611714
N           -1.27503322223749        1.07521566510847       -0.01338242885936
C           -2.21516870456090        2.13072559824937        0.01610434487407
C           -1.79147537367882       -0.21981305887561        0.02637749604143
O           -2.98289314017223       -0.44436800550517        0.05385156637845
N           -0.89697843309050       -1.30589980791312        0.02850292891962
C           -1.40724925682655       -2.65910206358637       -0.00244559077285
H            3.80890568021717        1.16863303996471        1.05424654914049
H            4.09283693369672        0.94578852609365       -0.68505406539027
H            2.81566079427831        2.05915883414286       -0.12013799804655
H            3.61143563723919       -1.71684995771279       -0.04560977752604
H           -1.77766292867793        3.04915115039346        0.35022028849202
H           -3.43869063157189        3.10754968661072       -1.26931320446282
H           -3.17858321626445        1.78759732626896        0.33088373601600
H           -1.08924539529707       -3.21228924896183        0.88473718929817
H           -1.05122577665874       -3.17447773931934       -0.89830301055792
H           -2.49401789209101       -2.61058095138927       -0.02683331306431
H            1.39737988641628       -2.97471166172169       -0.01035831180778
25