      -----------------------------------------------------------      
     |                   =====================                   |     
     |                           x T B                           |     
     |                   =====================                   |     
     |                         S. Grimme                         |     
     |          Mulliken Center for Theoretical Chemistry        |     
     |                    University of Bonn                     |     
      -----------------------------------------------------------      

   * xtb version 6.6.1 (8d0f1dd) compiled by 'conda@1efc2f54142f' on 2023-08-01

   xtb is free software: you can redistribute it and/or modify it under
   the terms of the GNU Lesser General Public License as published by
   the Free Software Foundation, either version 3 of the License, or
   (at your option) any later version.
   
   xtb is distributed in the hope that it will be useful,
   but WITHOUT ANY WARRANTY; without even the implied warranty of
   MERCHANTABILITY or FITNESS FOR A PARTICULAR PURPOSE.  See the
   GNU Lesser General Public License for more details.
   
   Cite this work as:
   * C. Bannwarth, E. Caldeweyher, S. Ehlert, A. Hansen, P. Pracht,
     J. Seibert, S. Spicher, S. Grimme, WIREs Comput. Mol. Sci., 2020, 11,
     e01493. DOI: 10.1002/wcms.1493
   
   for GFN2-xTB:
   * C. Bannwarth, S. Ehlert and S. Grimme., J. Chem. Theory Comput., 2019,
     15, 1652-1671. DOI: 10.1021/acs.jctc.8b01176
   for GFN1-xTB:
   * S. Grimme, C. Bannwarth, P. Shushkov, J. Chem. Theory Comput., 2017,
     13, 1989-2009. DOI: 10.1021/acs.jctc.7b00118
   for GFN0-xTB:
   * P. Pracht, E. Caldeweyher, S. Ehlert, S. Grimme, ChemRxiv, 2019, preprint.
     DOI: 10.26434/chemrxiv.8326202.v1
   for GFN-FF:
   * S. Spicher and S. Grimme, Angew. Chem. Int. Ed., 2020, 59, 15665-15673.
     DOI: 10.1002/anie.202004239
   
   for ALPB and GBSA implicit solvation:
   * S. Ehlert, M. Stahn, S. Spicher, S. Grimme, J. Chem. Theory Comput.,
     2021, 17, 4250-4261. DOI: 10.1021/acs.jctc.1c00471
   
   for DFT-D4:
   * E. Caldeweyher, C. Bannwarth and S. Grimme, J. Chem. Phys., 2017,
     147, 034112. DOI: 10.1063/1.4993215
   * E. Caldeweyher, S. Ehlert, A. Hansen, H. Neugebauer, S. Spicher,
     C. Bannwarth and S. Grimme, J. Chem. Phys., 2019, 150, 154122.
     DOI: 10.1063/1.5090222
   * E. Caldeweyher, J.-M. Mewes, S. Ehlert and S. Grimme, Phys. Chem. Chem. Phys.
     2020, 22, 8499-8512. DOI: 10.1039/D0CP00502A
   
   for sTDA-xTB:
   * S. Grimme and C. Bannwarth, J. Chem. Phys., 2016, 145, 054103.
     DOI: 10.1063/1.4959605
   
   in the mass-spec context:
   * V. Asgeirsson, C. Bauer and S. Grimme, Chem. Sci., 2017, 8, 4879.
     DOI: 10.1039/c7sc00601b
   * J. Koopman and S. Grimme, ACS Omega 2019, 4, 12, 15120-15133.
     DOI: 10.1021/acsomega.9b02011
   
   for metadynamics refer to:
   * S. Grimme, J. Chem. Theory Comput., 2019, 155, 2847-2862
     DOI: 10.1021/acs.jctc.9b00143
   
   for SPH calculations refer to:
   * S. Spicher and S. Grimme, J. Chem. Theory Comput., 2021, 17, 1701-1714
     DOI: 10.1021/acs.jctc.0c01306
   
   with help from (in alphabetical order)
   P. Atkinson, C. Bannwarth, F. Bohle, G. Brandenburg, E. Caldeweyher
   M. Checinski, S. Dohm, S. Ehlert, S. Ehrlich, I. Gerasimov, C. Hölzer
   A. Katbashev, J. Koopman, C. Lavigne, S. Lehtola, F. März, M. Müller,
   F. Musil, H. Neugebauer, J. Pisarek, C. Plett, P. Pracht, F. Pultar,
   J. Seibert, P. Shushkov, S. Spicher, M. Stahn, M. Steiner, T. Strunk,
   J. Stückrath, T. Rose, and J. Unsleber
   
 * started run on 2024/04/06 at 11:15:31.527     

           -------------------------------------------------
          |                Calculation Setup                |
           -------------------------------------------------

          program call               : xtb struc.xyz --opt loose --input .xc1 --gfn2
          hostname                   : n-62-30-23
          coordinate file            : struc.xyz
          omp threads                :                     1

   ID    Z sym.   atoms
    1    7 N      1, 17
    2    6 C      2-6, 8, 9, 11-16, 18-23, 25, 26, 28-33
    3    8 O      7, 10, 24, 27
    4    1 H      34-72
constraining bond 2 72 to    2.7133300 Å, actual value:    1.9604601 Å

           -------------------------------------------------
          |                 G F N 2 - x T B                 |
           -------------------------------------------------

        Reference                      10.1021/acs.jctc.8b01176
      * Hamiltonian:
        H0-scaling (s, p, d)           1.850000    2.230000    2.230000
        zeta-weighting                 0.500000
      * Dispersion:
        s8                             2.700000
        a1                             0.520000
        a2                             5.000000
        s9                             5.000000
      * Repulsion:
        kExp                           1.500000    1.000000
        rExp                           1.000000
      * Coulomb:
        alpha                          2.000000
        third order                    shell-resolved
        anisotropic                    true
        a3                             3.000000
        a5                             4.000000
        cn-shift                       1.200000
        cn-exp                         4.000000
        max-rad                        5.000000


          ...................................................
          :                      SETUP                      :
          :.................................................:
          :  # basis functions                 171          :
          :  # atomic orbitals                 171          :
          :  # shells                          105          :
          :  # electrons                       180          :
          :  max. iterations                   250          :
          :  Hamiltonian                  GFN2-xTB          :
          :  restarted?                      false          :
          :  GBSA solvation                  false          :
          :  PC potential                    false          :
          :  electronic temp.         5000.0000000     K    :
          :  accuracy                    1.0000000          :
          :  -> integral cutoff          0.2500000E+02      :
          :  -> integral neglect         0.1000000E-07      :
          :  -> SCF convergence          0.1000000E-05 Eh   :
          :  -> wf. convergence          0.1000000E-03 e    :
          :  Broyden damping             0.4000000          :
          ...................................................

 iter      E             dE          RMSdq      gap      omega  full diag
   1   -100.5973919 -0.100597E+03  0.374E+00    3.20       0.0  T
   2   -100.7362642 -0.138872E+00  0.221E+00    1.08       1.0  T
   3   -100.7049001  0.313641E-01  0.141E+00    3.29       1.0  T
   4   -100.7721690 -0.672689E-01  0.526E-01    1.50       1.0  T
   5   -100.7894292 -0.172602E-01  0.190E-01    1.98       1.0  T
   6   -100.7911978 -0.176856E-02  0.792E-02    1.77       1.0  T
   7   -100.7914750 -0.277198E-03  0.375E-02    1.83       1.0  T
   8   -100.7914914 -0.164582E-04  0.140E-02    1.83       1.0  T
   9   -100.7914976 -0.616739E-05  0.474E-03    1.82       2.5  T
  10   -100.7914988 -0.118227E-05  0.172E-03    1.82       6.8  T
  11   -100.7914989 -0.139928E-06  0.766E-04    1.82      15.4  T
  12   -100.7914989 -0.773143E-08  0.318E-04    1.82      37.0  T

   *** convergence criteria satisfied after 12 iterations ***

         #    Occupation            Energy/Eh            Energy/eV
      -------------------------------------------------------------
         1        2.0000           -0.8078051             -21.9815
       ...           ...                  ...                  ...
        84        1.9966           -0.5157491             -14.0342
        85        1.9959           -0.5128261             -13.9547
        86        1.9840           -0.4911498             -13.3649
        87        1.9795           -0.4872543             -13.2589
        88        1.9640           -0.4782114             -13.0128
        89        1.8920           -0.4602041             -12.5228
        90        1.8557           -0.4553147             -12.3897 (HOMO)
        91        0.3166           -0.3884132             -10.5693 (LUMO)
        92        0.0218           -0.3434697              -9.3463
        93        0.0041           -0.3169887              -8.6257
        94        0.0034           -0.3139726              -8.5436
        95        0.0029           -0.3112618              -8.4699
       ...           ...                  ...                  ...
       171                          0.5822580              15.8440
      -------------------------------------------------------------
                  HL-Gap            0.0669015 Eh            1.8205 eV
             Fermi-level           -0.4148687 Eh          -11.2892 eV

 SCC (total)                   0 d,  0 h,  0 min,  0.190 sec
 SCC setup                      ...        0 min,  0.001 sec (  0.676%)
 Dispersion                     ...        0 min,  0.002 sec (  0.949%)
 classical contributions        ...        0 min,  0.001 sec (  0.300%)
 integral evaluation            ...        0 min,  0.018 sec (  9.581%)
 iterations                     ...        0 min,  0.098 sec ( 51.647%)
 molecular gradient             ...        0 min,  0.069 sec ( 36.502%)
 printout                       ...        0 min,  0.001 sec (  0.337%)

         :::::::::::::::::::::::::::::::::::::::::::::::::::::
         ::                     SUMMARY                     ::
         :::::::::::::::::::::::::::::::::::::::::::::::::::::
         :: total energy             -99.505337205441 Eh    ::
         :: gradient norm              0.202183109858 Eh/a0 ::
         :: HOMO-LUMO gap              1.820481192090 eV    ::
         ::.................................................::
         :: SCC energy              -100.791498925389 Eh    ::
         :: -> isotropic ES            0.109302908418 Eh    ::
         :: -> anisotropic ES          0.005415138735 Eh    ::
         :: -> anisotropic XC          0.042392697176 Eh    ::
         :: -> dispersion             -0.075527661009 Eh    ::
         :: repulsion energy           1.386151658689 Eh    ::
         :: add. restraining          -0.101206291246 Eh    ::
         :: total charge               1.000000000108 e     ::
         :::::::::::::::::::::::::::::::::::::::::::::::::::::

      ----------------------------------------------------------- 
     |                   =====================                   |
     |                        A N C O P T                        |
     |                   =====================                   |
     |               Approximate Normal Coordinate               |
     |                Rational Function Optimizer                |
      ----------------------------------------------------------- 

          ...................................................
          :                      SETUP                      :
          :.................................................:
          :   optimization level             loose          :
          :   max. optcycles                   200          :
          :   ANC micro-cycles                  20          :
          :   degrees of freedom               210          :
          :.................................................:
          :   RF solver                   davidson          :
          :   write xtbopt.log                true          :
          :   linear?                        false          :
          :   energy convergence         0.5000000E-04 Eh   :
          :   grad. convergence          0.4000000E-02 Eh/α :
          :   maxmium RF displ.          1.0000000          :
          :   Hlow (freq-cutoff)         0.1000000E-01      :
          :   Hmax (freq-cutoff)         5.0000000          :
          :   S6 in model hess.         20.0000000          :
          ...................................................

generating ANC from model Hessian ...
Using Lindh-Hessian (1995)
 Shifting diagonal of input Hessian by    9.9386488835365733E-003
 Lowest  eigenvalues of input Hessian
    0.000000    0.000000    0.000000    0.000000    0.000000    0.000000
    0.010000    0.010045    0.010110    0.010204    0.010276    0.010598
    0.010730    0.010962    0.011195    0.011812    0.012095    0.012778
 Highest eigenvalues
    2.035902    2.045900    2.051520    2.160852    2.184371    2.184437


........................................................................
.............................. CYCLE    1 ..............................
........................................................................

 iter      E             dE          RMSdq      gap      omega  full diag
   1   -100.7914989 -0.100791E+03  0.114E-04    1.82       0.0  T
   2   -100.7914989 -0.678995E-10  0.713E-05    1.82     165.2  T
   3   -100.7914989  0.665210E-10  0.496E-05    1.82     237.5  T
     SCC iter.                  ...        0 min,  0.026 sec
     gradient                   ...        0 min,  0.069 sec
 * total energy  :   -99.5053372 Eh     change       -0.4035485E-08 Eh
   gradient norm :     0.2021849 Eh/α   predicted     0.0000000E+00 (-100.00%)
   displ. norm   :     0.5815978 α      lambda       -0.9615949E-01
   maximum displ.:     0.2406099 α      in ANC's #86, #80, #97, ...

........................................................................
.............................. CYCLE    2 ..............................
........................................................................

 iter      E             dE          RMSdq      gap      omega  full diag
   1   -100.8030766 -0.100803E+03  0.329E-01    1.65       0.0  T
   2   -100.8030141  0.625710E-04  0.234E-01    1.89       1.0  T
   3   -100.8021732  0.840876E-03  0.170E-01    1.57       1.0  T
   4   -100.8041491 -0.197585E-02  0.539E-02    1.81       1.0  T
   5   -100.8044247 -0.275621E-03  0.109E-02    1.75       1.1  T
   6   -100.8044297 -0.504298E-05  0.530E-03    1.75       2.2  T
   7   -100.8044301 -0.367328E-06  0.176E-03    1.75       6.7  T
   8   -100.8044302 -0.134654E-06  0.518E-04    1.75      22.8  T
   9   -100.8044302 -0.141156E-07  0.233E-04    1.75      50.7  T
     SCC iter.                  ...        0 min,  0.073 sec
     gradient                   ...        0 min,  0.070 sec
 * total energy  :   -99.5879532 Eh     change       -0.8261603E-01 Eh
   gradient norm :     0.1815108 Eh/α   predicted    -0.6434908E-01 ( -22.11%)
   displ. norm   :     0.8388966 α      lambda       -0.1203191E+00
   maximum displ.:     0.3573931 α      in ANC's #86, #80, #97, ...

........................................................................
.............................. CYCLE    3 ..............................
........................................................................

 iter      E             dE          RMSdq      gap      omega  full diag
   1   -100.6798591 -0.100680E+03  0.454E-01    1.51       0.0  T
   2   -100.6787706  0.108855E-02  0.326E-01    1.93       1.0  T
   3   -100.6788509 -0.803027E-04  0.263E-01    1.43       1.0  T
   4   -100.6830388 -0.418794E-02  0.784E-02    1.73       1.0  T
   5   -100.6834915 -0.452656E-03  0.230E-02    1.67       1.0  T
   6   -100.6834993 -0.779609E-05  0.115E-02    1.66       1.0  T
   7   -100.6835082 -0.892550E-05  0.282E-03    1.66       4.2  T
   8   -100.6835086 -0.405053E-06  0.119E-03    1.67       9.9  T
   9   -100.6835087 -0.585477E-07  0.496E-04    1.67      23.8  T
  10   -100.6835087 -0.464836E-08  0.200E-04    1.67      58.9  T
     SCC iter.                  ...        0 min,  0.080 sec
     gradient                   ...        0 min,  0.069 sec
 * total energy  :   -99.7108259 Eh     change       -0.1228727E+00 Eh
   gradient norm :     0.2579604 Eh/α   predicted    -0.1024970E+00 ( -16.58%)
   displ. norm   :     0.9662037 α      lambda       -0.1499758E+00
   maximum displ.:     0.3732618 α      in ANC's #86, #139, #136, ...

........................................................................
.............................. CYCLE    4 ..............................
........................................................................

 iter      E             dE          RMSdq      gap      omega  full diag
   1   -100.5427932 -0.100543E+03  0.106E+00    0.70       0.0  T
   2   -100.4952729  0.475204E-01  0.891E-01    1.84       1.0  T
   3   -100.5436730 -0.484002E-01  0.718E-01    0.61       1.0  T
   4   -100.5769695 -0.332965E-01  0.232E-01    1.08       1.0  T
   5   -100.5788363 -0.186684E-02  0.102E-01    0.96       1.0  T
   6   -100.5796408 -0.804507E-03  0.418E-02    1.00       1.0  T
   7   -100.5797402 -0.993496E-04  0.137E-02    1.02       1.0  T
   8   -100.5797485 -0.831861E-05  0.402E-03    1.01       2.9  T
   9   -100.5797491 -0.590426E-06  0.200E-03    1.01       5.9  T
  10   -100.5797492 -0.129177E-06  0.980E-04    1.01      12.0  T
  11   -100.5797493 -0.613979E-07  0.320E-04    1.01      36.8  T
     SCC iter.                  ...        0 min,  0.088 sec
     gradient                   ...        0 min,  0.069 sec
 * total energy  :   -99.6403240 Eh     change        0.7050192E-01 Eh
   gradient norm :     1.2830894 Eh/α   predicted    -0.1449930E+00 (-305.66%)
   displ. norm   :     0.4415408 α      lambda       -0.4639110E+00
   maximum displ.:     0.1609929 α      in ANC's #139, #136, #193, ...

........................................................................
.............................. CYCLE    5 ..............................
........................................................................

 iter      E             dE          RMSdq      gap      omega  full diag
   1   -100.5973791 -0.100597E+03  0.545E-01    1.67       0.0  T
   2   -100.5938126  0.356652E-02  0.390E-01    1.31       1.0  T
   3   -100.6020930 -0.828038E-02  0.294E-01    1.73       1.0  T
   4   -100.6071075 -0.501445E-02  0.115E-01    1.49       1.0  T
   5   -100.6075781 -0.470661E-03  0.222E-02    1.52       1.0  T
   6   -100.6075870 -0.884496E-05  0.115E-02    1.51       1.0  T
   7   -100.6075944 -0.740517E-05  0.378E-03    1.52       3.1  T
   8   -100.6075950 -0.600879E-06  0.162E-03    1.52       7.3  T
   9   -100.6075951 -0.110349E-06  0.637E-04    1.52      18.5  T
  10   -100.6075951 -0.376258E-07  0.322E-04    1.52      36.6  T
     SCC iter.                  ...        0 min,  0.081 sec
     gradient                   ...        0 min,  0.069 sec
 * total energy  :   -99.7714254 Eh     change       -0.1311014E+00 Eh
   gradient norm :     0.1726964 Eh/α   predicted    -0.2771773E+00 ( 111.42%)
   displ. norm   :     0.6267883 α      lambda       -0.1975775E-01
   maximum displ.:     0.2089568 α      in ANC's #86, #80, #193, ...

........................................................................
.............................. CYCLE    6 ..............................
........................................................................

 iter      E             dE          RMSdq      gap      omega  full diag
   1   -100.5090074 -0.100509E+03  0.606E-01    1.10       0.0  T
   2   -100.4887925  0.202149E-01  0.789E-01    1.12       1.0  T
   3   -100.5458235 -0.570310E-01  0.215E-01    1.21       1.0  T
   4   -100.5446993  0.112422E-02  0.203E-01    1.08       1.0  T
   5   -100.5469010 -0.220169E-02  0.717E-02    1.21       1.0  T
   6   -100.5471179 -0.216860E-03  0.652E-02    1.16       1.0  T
   7   -100.5474079 -0.290030E-03  0.142E-02    1.18       1.0  T
   8   -100.5474159 -0.798251E-05  0.769E-03    1.18       1.5  T
   9   -100.5474205 -0.459314E-05  0.322E-03    1.18       3.7  T
  10   -100.5474213 -0.829357E-06  0.606E-04    1.18      19.5  T
  11   -100.5474213 -0.691738E-08  0.357E-04    1.18      33.0  T
     SCC iter.                  ...        0 min,  0.088 sec
     gradient                   ...        0 min,  0.069 sec
 * total energy  :   -99.7563196 Eh     change        0.1510578E-01 Eh
   gradient norm :     0.2280514 Eh/α   predicted    -0.1375987E-01 (-191.09%)
   displ. norm   :     0.5987996 α      lambda       -0.5776242E-01
   maximum displ.:     0.1849462 α      in ANC's #54, #53, #49, ...

........................................................................
.............................. CYCLE    7 ..............................
........................................................................

 iter      E             dE          RMSdq      gap      omega  full diag
   1   -100.5745816 -0.100575E+03  0.531E-01    0.91       0.0  T
   2   -100.5222037  0.523779E-01  0.800E-01    1.27       1.0  T
   3   -100.5913024 -0.690987E-01  0.177E-01    0.96       1.0  T
   4   -100.5917563 -0.453928E-03  0.999E-02    0.96       1.0  T
   5   -100.5923743 -0.618022E-03  0.246E-02    0.99       1.0  T
   6   -100.5924115 -0.371349E-04  0.150E-02    0.99       1.0  T
   7   -100.5924356 -0.240939E-04  0.491E-03    0.99       2.4  T
   8   -100.5924369 -0.136509E-05  0.182E-03    0.98       6.5  T
   9   -100.5924371 -0.145094E-06  0.585E-04    0.98      20.2  T
  10   -100.5924371 -0.105352E-07  0.247E-04    0.98      47.7  T
     SCC iter.                  ...        0 min,  0.080 sec
     gradient                   ...        0 min,  0.069 sec
 * total energy  :   -99.7904946 Eh     change       -0.3417504E-01 Eh
   gradient norm :     0.1580385 Eh/α   predicted    -0.3923692E-01 (  14.81%)
   displ. norm   :     0.3937159 α      lambda       -0.2978455E-01
   maximum displ.:     0.1486622 α      in ANC's #193, #41, #40, ...

........................................................................
.............................. CYCLE    8 ..............................
........................................................................

 iter      E             dE          RMSdq      gap      omega  full diag
   1   -100.6259243 -0.100626E+03  0.417E-01    1.19       0.0  T
   2   -100.6061394  0.197849E-01  0.572E-01    1.10       1.0  T
   3   -100.6377811 -0.316417E-01  0.141E-01    1.14       1.0  T
   4   -100.6380989 -0.317756E-03  0.947E-02    1.12       1.0  T
   5   -100.6383475 -0.248632E-03  0.228E-02    1.13       1.0  T
   6   -100.6383785 -0.309679E-04  0.109E-02    1.13       1.1  T
   7   -100.6383873 -0.882729E-05  0.409E-03    1.13       2.9  T
   8   -100.6383887 -0.134524E-05  0.158E-03    1.13       7.5  T
   9   -100.6383888 -0.113228E-06  0.630E-04    1.13      18.7  T
  10   -100.6383888 -0.291109E-07  0.229E-04    1.13      51.6  T
     SCC iter.                  ...        0 min,  0.081 sec
     gradient                   ...        0 min,  0.069 sec
 * total energy  :   -99.8124366 Eh     change       -0.2194192E-01 Eh
   gradient norm :     0.1336966 Eh/α   predicted    -0.1720078E-01 ( -21.61%)
   displ. norm   :     0.7651590 α      lambda       -0.5129978E-01
   maximum displ.:     0.2142264 α      in ANC's #40, #43, #193, ...

........................................................................
.............................. CYCLE    9 ..............................
........................................................................

 iter      E             dE          RMSdq      gap      omega  full diag
   1   -100.6853021 -0.100685E+03  0.658E-01    1.11       0.0  T
   2   -100.6349296  0.503725E-01  0.863E-01    0.73       1.0  T
   3   -100.7000642 -0.651346E-01  0.326E-01    1.13       1.0  T
   4   -100.7010265 -0.962255E-03  0.199E-01    0.77       1.0  T
   5   -100.7061317 -0.510529E-02  0.442E-02    0.95       1.0  T
   6   -100.7063281 -0.196348E-03  0.163E-02    0.94       1.0  T
   7   -100.7063349 -0.676951E-05  0.767E-03    0.94       1.5  T
   8   -100.7063383 -0.344189E-05  0.311E-03    0.94       3.8  T
   9   -100.7063393 -0.955393E-06  0.834E-04    0.94      14.1  T
  10   -100.7063393 -0.129974E-07  0.474E-04    0.94      24.9  T
     SCC iter.                  ...        0 min,  0.081 sec
     gradient                   ...        0 min,  0.069 sec
 * total energy  :   -99.8409327 Eh     change       -0.2849614E-01 Eh
   gradient norm :     0.2965503 Eh/α   predicted    -0.4066710E-01 (  42.71%)
   displ. norm   :     0.2971447 α      lambda       -0.4864716E-01
   maximum displ.:     0.0950738 α      in ANC's #148, #86, #150, ...

........................................................................
.............................. CYCLE   10 ..............................
........................................................................

 iter      E             dE          RMSdq      gap      omega  full diag
   1   -100.6881614 -0.100688E+03  0.226E-01    0.58       0.0  T
   2   -100.6677166  0.204448E-01  0.527E-01    1.13       1.0  T
   3   -100.6945529 -0.268363E-01  0.174E-01    0.82       1.0  T
   4   -100.6949746 -0.421735E-03  0.155E-01    0.84       1.0  T
   5   -100.6962571 -0.128248E-02  0.474E-02    0.77       1.0  T
   6   -100.6964632 -0.206097E-03  0.109E-02    0.76       1.1  T
   7   -100.6964720 -0.882248E-05  0.377E-03    0.75       3.1  T
   8   -100.6964723 -0.214883E-06  0.194E-03    0.76       6.1  T
   9   -100.6964725 -0.223917E-06  0.733E-04    0.75      16.1  T
  10   -100.6964725 -0.390375E-07  0.300E-04    0.76      39.2  T
     SCC iter.                  ...        0 min,  0.081 sec
     gradient                   ...        0 min,  0.070 sec
 * total energy  :   -99.8728921 Eh     change       -0.3195936E-01 Eh
   gradient norm :     0.1173621 Eh/α   predicted    -0.2647128E-01 ( -17.17%)
   displ. norm   :     0.4897391 α      lambda       -0.3278039E-01
   maximum displ.:     0.1922881 α      in ANC's #40, #41, #148, ...

........................................................................
.............................. CYCLE   11 ..............................
........................................................................

 iter      E             dE          RMSdq      gap      omega  full diag
   1   -100.7020854 -0.100702E+03  0.203E-01    0.63       0.0  T
   2   -100.6979266  0.415873E-02  0.260E-01    0.88       1.0  T
   3   -100.7033354 -0.540882E-02  0.117E-01    0.67       1.0  T
   4   -100.7033007  0.347806E-04  0.858E-02    0.73       1.0  T
   5   -100.7036481 -0.347462E-03  0.223E-02    0.71       1.0  T
   6   -100.7037061 -0.579609E-04  0.115E-02    0.71       1.0  T
   7   -100.7037153 -0.925819E-05  0.350E-03    0.70       3.4  T
   8   -100.7037160 -0.629015E-06  0.116E-03    0.71      10.2  T
   9   -100.7037161 -0.111056E-06  0.475E-04    0.70      24.8  T
  10   -100.7037161 -0.689741E-08  0.160E-04    0.70      73.8  T
     SCC iter.                  ...        0 min,  0.081 sec
     gradient                   ...        0 min,  0.069 sec
 * total energy  :   -99.8925004 Eh     change       -0.1960830E-01 Eh
   gradient norm :     0.1102508 Eh/α   predicted    -0.2032130E-01 (   3.64%)
   displ. norm   :     0.5402774 α      lambda       -0.3093796E-01
   maximum displ.:     0.1971631 α      in ANC's #148, #150, #149, ...

........................................................................
.............................. CYCLE   12 ..............................
........................................................................

 iter      E             dE          RMSdq      gap      omega  full diag
   1   -100.7339412 -0.100734E+03  0.269E-01    0.73       0.0  T
   2   -100.7315949  0.234636E-02  0.226E-01    0.53       1.0  T
   3   -100.7310930  0.501850E-03  0.226E-01    0.85       1.0  T
   4   -100.7332996 -0.220652E-02  0.114E-01    0.60       1.0  T
   5   -100.7351181 -0.181850E-02  0.308E-02    0.69       1.0  T
   6   -100.7352199 -0.101880E-03  0.106E-02    0.68       1.1  T
   7   -100.7352237 -0.371390E-05  0.462E-03    0.67       2.6  T
   8   -100.7352261 -0.240905E-05  0.113E-03    0.68      10.4  T
   9   -100.7352261 -0.802018E-07  0.496E-04    0.68      23.7  T
  10   -100.7352261 -0.869670E-08  0.166E-04    0.68      71.0  T
     SCC iter.                  ...        0 min,  0.080 sec
     gradient                   ...        0 min,  0.069 sec
 * total energy  :   -99.8963382 Eh     change       -0.3837820E-02 Eh
   gradient norm :     0.1517083 Eh/α   predicted    -0.1998439E-01 ( 420.72%)
   displ. norm   :     0.3343117 α      lambda       -0.2944364E-01
   maximum displ.:     0.1507954 α      in ANC's #40, #41, #9, ...

........................................................................
.............................. CYCLE   13 ..............................
........................................................................

 iter      E             dE          RMSdq      gap      omega  full diag
   1   -100.7256077 -0.100726E+03  0.151E-01    0.71       0.0  T
   2   -100.7254616  0.146099E-03  0.102E-01    0.66       1.0  T
   3   -100.7235495  0.191206E-02  0.138E-01    0.81       1.0  T
   4   -100.7255733 -0.202382E-02  0.544E-02    0.66       1.0  T
   5   -100.7258300 -0.256701E-03  0.152E-02    0.70       1.0  T
   6   -100.7258494 -0.193283E-04  0.435E-03    0.70       2.7  T
   7   -100.7258493  0.286093E-07  0.237E-03    0.70       5.0  T
   8   -100.7258497 -0.408948E-06  0.867E-04    0.70      13.6  T
   9   -100.7258498 -0.721087E-07  0.304E-04    0.70      38.8  T
     SCC iter.                  ...        0 min,  0.072 sec
     gradient                   ...        0 min,  0.069 sec
 * total energy  :   -99.9076580 Eh     change       -0.1131980E-01 Eh
   gradient norm :     0.1057674 Eh/α   predicted    -0.1636718E-01 (  44.59%)
   displ. norm   :     0.3789073 α      lambda       -0.1451635E-01
   maximum displ.:     0.1374872 α      in ANC's #9, #21, #86, ...

........................................................................
.............................. CYCLE   14 ..............................
........................................................................

 iter      E             dE          RMSdq      gap      omega  full diag
   1   -100.7229425 -0.100723E+03  0.144E-01    0.74       0.0  T
   2   -100.7230252 -0.827653E-04  0.809E-02    0.73       1.0  T
   3   -100.7229536  0.716760E-04  0.513E-02    0.75       1.0  T
   4   -100.7230673 -0.113753E-03  0.122E-02    0.73       1.0  T
   5   -100.7230717 -0.442618E-05  0.821E-03    0.74       1.4  T
   6   -100.7230727 -0.947720E-06  0.734E-03    0.73       1.6  T
   7   -100.7230762 -0.347084E-05  0.289E-03    0.74       4.1  T
   8   -100.7230774 -0.122252E-05  0.628E-04    0.73      18.8  T
   9   -100.7230774 -0.376230E-07  0.282E-04    0.73      41.7  T
  10   -100.7230774 -0.333273E-08  0.987E-05    0.73     119.4  T
     SCC iter.                  ...        0 min,  0.080 sec
     gradient                   ...        0 min,  0.069 sec
 * total energy  :   -99.9057584 Eh     change        0.1899598E-02 Eh
   gradient norm :     0.1752672 Eh/α   predicted    -0.8300233E-02 (-536.95%)
   displ. norm   :     0.2421683 α      lambda       -0.1475694E-01
   maximum displ.:     0.1065230 α      in ANC's #9, #86, #16, ...

........................................................................
.............................. CYCLE   15 ..............................
........................................................................

 iter      E             dE          RMSdq      gap      omega  full diag
   1   -100.7334978 -0.100733E+03  0.110E-01    0.75       0.0  T
   2   -100.7330551  0.442706E-03  0.950E-02    0.67       1.0  T
   3   -100.7327313  0.323826E-03  0.935E-02    0.81       1.0  T
   4   -100.7336020 -0.870656E-03  0.166E-02    0.72       1.0  T
   5   -100.7336209 -0.188983E-04  0.678E-03    0.73       1.7  T
   6   -100.7336243 -0.340288E-05  0.308E-03    0.73       3.8  T
   7   -100.7336247 -0.482580E-06  0.951E-04    0.73      12.4  T
   8   -100.7336249 -0.115810E-06  0.369E-04    0.73      31.9  T
     SCC iter.                  ...        0 min,  0.065 sec
     gradient                   ...        0 min,  0.070 sec
 * total energy  :   -99.9149112 Eh     change       -0.9152862E-02 Eh
   gradient norm :     0.0399415 Eh/α   predicted    -0.7811114E-02 ( -14.66%)
   displ. norm   :     0.4230413 α      lambda       -0.5356340E-02
   maximum displ.:     0.1719120 α      in ANC's #9, #16, #21, ...

........................................................................
.............................. CYCLE   16 ..............................
........................................................................

 iter      E             dE          RMSdq      gap      omega  full diag
   1   -100.7363469 -0.100736E+03  0.142E-01    0.77       0.0  T
   2   -100.7356720  0.674959E-03  0.114E-01    0.66       1.0  T
   3   -100.7347844  0.887529E-03  0.132E-01    0.85       1.0  T
   4   -100.7364396 -0.165517E-02  0.305E-02    0.73       1.0  T
   5   -100.7365344 -0.947662E-04  0.631E-03    0.74       1.9  T
   6   -100.7365375 -0.310474E-05  0.299E-03    0.73       3.9  T
   7   -100.7365377 -0.285819E-06  0.178E-03    0.74       6.6  T
   8   -100.7365382 -0.498154E-06  0.374E-04    0.74      31.5  T
   9   -100.7365382 -0.162099E-08  0.193E-04    0.74      61.1  T
     SCC iter.                  ...        0 min,  0.073 sec
     gradient                   ...        0 min,  0.069 sec
 * total energy  :   -99.9179217 Eh     change       -0.3010415E-02 Eh
   gradient norm :     0.0420266 Eh/α   predicted    -0.3157450E-02 (   4.88%)
   displ. norm   :     0.5743298 α      lambda       -0.5945242E-02
   maximum displ.:     0.2834842 α      in ANC's #9, #16, #8, ...

........................................................................
.............................. CYCLE   17 ..............................
........................................................................

 iter      E             dE          RMSdq      gap      omega  full diag
   1   -100.7421681 -0.100742E+03  0.157E-01    0.82       0.0  T
   2   -100.7406891  0.147898E-02  0.153E-01    0.65       1.0  T
   3   -100.7413355 -0.646443E-03  0.115E-01    0.86       1.0  T
   4   -100.7424008 -0.106526E-02  0.381E-02    0.76       1.0  T
   5   -100.7425443 -0.143456E-03  0.655E-03    0.77       1.8  T
   6   -100.7425444 -0.117186E-06  0.467E-03    0.76       2.5  T
   7   -100.7425474 -0.299000E-05  0.141E-03    0.77       8.4  T
   8   -100.7425475 -0.180700E-06  0.440E-04    0.76      26.8  T
   9   -100.7425475 -0.478029E-08  0.225E-04    0.77      52.5  T
     SCC iter.                  ...        0 min,  0.073 sec
     gradient                   ...        0 min,  0.069 sec
 * total energy  :   -99.9218626 Eh     change       -0.3940941E-02 Eh
   gradient norm :     0.0471298 Eh/α   predicted    -0.3953140E-02 (   0.31%)
   displ. norm   :     0.5622990 α      lambda       -0.4359022E-02
   maximum displ.:     0.2527180 α      in ANC's #9, #16, #8, ...

........................................................................
.............................. CYCLE   18 ..............................
........................................................................

 iter      E             dE          RMSdq      gap      omega  full diag
   1   -100.7440109 -0.100744E+03  0.124E-01    0.84       0.0  T
   2   -100.7428317  0.117914E-02  0.129E-01    0.69       1.0  T
   3   -100.7437670 -0.935254E-03  0.838E-02    0.86       1.0  T
   4   -100.7442205 -0.453550E-03  0.384E-02    0.78       1.0  T
   5   -100.7443520 -0.131434E-03  0.597E-03    0.80       2.0  T
   6   -100.7443528 -0.797403E-06  0.404E-03    0.79       2.9  T
   7   -100.7443545 -0.177402E-05  0.138E-03    0.79       8.5  T
   8   -100.7443548 -0.225198E-06  0.399E-04    0.79      29.5  T
   9   -100.7443548 -0.810587E-08  0.179E-04    0.79      65.8  T
     SCC iter.                  ...        0 min,  0.073 sec
     gradient                   ...        0 min,  0.069 sec
 * total energy  :   -99.9245947 Eh     change       -0.2732059E-02 Eh
   gradient norm :     0.0338221 Eh/α   predicted    -0.2868627E-02 (   5.00%)
   displ. norm   :     0.4599938 α      lambda       -0.2546702E-02
   maximum displ.:     0.1972755 α      in ANC's #9, #16, #8, ...

........................................................................
.............................. CYCLE   19 ..............................
........................................................................

 iter      E             dE          RMSdq      gap      omega  full diag
   1   -100.7418098 -0.100742E+03  0.115E-01    0.80       0.0  T
   2   -100.7418057  0.402731E-05  0.683E-02    0.79       1.0  T
   3   -100.7414074  0.398315E-03  0.696E-02    0.84       1.0  T
   4   -100.7417446 -0.337177E-03  0.334E-02    0.77       1.0  T
   5   -100.7418845 -0.139850E-03  0.540E-03    0.80       2.2  T
   6   -100.7418863 -0.187522E-05  0.290E-03    0.80       4.1  T
   7   -100.7418867 -0.418101E-06  0.133E-03    0.80       8.8  T
   8   -100.7418870 -0.259772E-06  0.360E-04    0.80      32.7  T
   9   -100.7418870 -0.630253E-08  0.187E-04    0.80      62.9  T
     SCC iter.                  ...        0 min,  0.073 sec
     gradient                   ...        0 min,  0.069 sec
 * total energy  :   -99.9263620 Eh     change       -0.1767305E-02 Eh
   gradient norm :     0.0256541 Eh/α   predicted    -0.1542785E-02 ( -12.70%)
   displ. norm   :     0.4605088 α      lambda       -0.2018451E-02
   maximum displ.:     0.1898988 α      in ANC's #9, #8, #7, ...

........................................................................
.............................. CYCLE   20 ..............................
........................................................................

 iter      E             dE          RMSdq      gap      omega  full diag
   1   -100.7474123 -0.100747E+03  0.811E-02    0.81       0.0  T
   2   -100.7473860  0.263861E-04  0.501E-02    0.79       1.0  T
   3   -100.7467916  0.594381E-03  0.724E-02    0.88       1.0  T
   4   -100.7474048 -0.613247E-03  0.198E-02    0.80       1.0  T
   5   -100.7474417 -0.368618E-04  0.304E-03    0.81       3.9  T
   6   -100.7474417  0.169343E-07  0.233E-03    0.80       5.1  T
   7   -100.7474422 -0.486677E-06  0.862E-04    0.81      13.7  T
   8   -100.7474423 -0.102716E-06  0.231E-04    0.81      51.0  T
     SCC iter.                  ...        0 min,  0.066 sec
     gradient                   ...        0 min,  0.069 sec
 * total energy  :   -99.9277517 Eh     change       -0.1389746E-02 Eh
   gradient norm :     0.0238243 Eh/α   predicted    -0.1223250E-02 ( -11.98%)
   displ. norm   :     0.4727621 α      lambda       -0.1554641E-02
   maximum displ.:     0.1805501 α      in ANC's #9, #8, #7, ...
 * RMSD in coord.:     0.6047653 α      energy gain  -0.4224145E+00 Eh

generating ANC from model Hessian ...
Using Lindh-Hessian (1995)
 Shifting diagonal of input Hessian by    9.9427888557608417E-003
 Lowest  eigenvalues of input Hessian
    0.000000    0.000000    0.000000    0.000000    0.000000    0.000000
    0.010000    0.010056    0.010109    0.010177    0.010262    0.010611
    0.010808    0.010916    0.011285    0.011698    0.012119    0.012760
 Highest eigenvalues
    1.924674    2.040163    2.044519    2.182109    2.182144    2.532518


........................................................................
.............................. CYCLE   21 ..............................
........................................................................

 iter      E             dE          RMSdq      gap      omega  full diag
   1   -100.7463307 -0.100746E+03  0.805E-02    0.82       0.0  T
   2   -100.7462761  0.545796E-04  0.551E-02    0.79       1.0  T
   3   -100.7459432  0.332894E-03  0.650E-02    0.87       1.0  T
   4   -100.7462665 -0.323295E-03  0.293E-02    0.79       1.0  T
   5   -100.7463784 -0.111865E-03  0.372E-03    0.82       3.2  T
   6   -100.7463794 -0.959957E-06  0.201E-03    0.81       5.9  T
   7   -100.7463797 -0.366545E-06  0.717E-04    0.81      16.4  T
   8   -100.7463798 -0.563424E-07  0.238E-04    0.81      49.5  T
     SCC iter.                  ...        0 min,  0.065 sec
     gradient                   ...        0 min,  0.069 sec
 * total energy  :   -99.9289154 Eh     change       -0.1163719E-02 Eh
   gradient norm :     0.0222099 Eh/α   predicted     0.0000000E+00 (-100.00%)
   displ. norm   :     0.1813757 α      lambda       -0.1557571E-02
   maximum displ.:     0.1004554 α      in ANC's #8, #7, #50, ...

........................................................................
.............................. CYCLE   22 ..............................
........................................................................

 iter      E             dE          RMSdq      gap      omega  full diag
   1   -100.7492399 -0.100749E+03  0.645E-02    0.81       0.0  T
   2   -100.7491807  0.591832E-04  0.460E-02    0.84       1.0  T
   3   -100.7488326  0.348134E-03  0.604E-02    0.76       1.0  T
   4   -100.7492471 -0.414527E-03  0.121E-02    0.82       1.0  T
   5   -100.7492655 -0.184229E-04  0.337E-03    0.82       3.5  T
   6   -100.7492660 -0.500998E-06  0.115E-03    0.81      10.2  T
   7   -100.7492661 -0.558550E-07  0.504E-04    0.81      23.4  T
   8   -100.7492661 -0.295790E-07  0.158E-04    0.81      74.6  T
     SCC iter.                  ...        0 min,  0.065 sec
     gradient                   ...        0 min,  0.069 sec
 * total energy  :   -99.9299812 Eh     change       -0.1065757E-02 Eh
   gradient norm :     0.0179046 Eh/α   predicted    -0.8044679E-03 ( -24.52%)
   displ. norm   :     0.2624544 α      lambda       -0.1040899E-02
   maximum displ.:     0.1360905 α      in ANC's #8, #29, #12, ...

........................................................................
.............................. CYCLE   23 ..............................
........................................................................

 iter      E             dE          RMSdq      gap      omega  full diag
   1   -100.7494319 -0.100749E+03  0.672E-02    0.80       0.0  T
   2   -100.7493244  0.107586E-03  0.524E-02    0.85       1.0  T
   3   -100.7490776  0.246744E-03  0.585E-02    0.76       1.0  T
   4   -100.7494574 -0.379782E-03  0.936E-03    0.83       1.3  T
   5   -100.7494685 -0.110747E-04  0.347E-03    0.81       3.4  T
   6   -100.7494694 -0.934386E-06  0.162E-03    0.82       7.3  T
   7   -100.7494697 -0.251866E-06  0.476E-04    0.82      24.8  T
   8   -100.7494697 -0.112633E-07  0.275E-04    0.82      42.9  T
     SCC iter.                  ...        0 min,  0.065 sec
     gradient                   ...        0 min,  0.072 sec
 * total energy  :   -99.9306702 Eh     change       -0.6890416E-03 Eh
   gradient norm :     0.0107718 Eh/α   predicted    -0.5562997E-03 ( -19.26%)
   displ. norm   :     0.3322107 α      lambda       -0.7447323E-03
   maximum displ.:     0.1542950 α      in ANC's #8, #29, #12, ...

........................................................................
.............................. CYCLE   24 ..............................
........................................................................

 iter      E             dE          RMSdq      gap      omega  full diag
   1   -100.7486352 -0.100749E+03  0.589E-02    0.81       0.0  T
   2   -100.7486254  0.972946E-05  0.366E-02    0.83       1.0  T
   3   -100.7483438  0.281608E-03  0.515E-02    0.77       1.0  T
   4   -100.7486316 -0.287821E-03  0.122E-02    0.83       1.0  T
   5   -100.7486501 -0.184624E-04  0.344E-03    0.82       3.4  T
   6   -100.7486505 -0.353468E-06  0.161E-03    0.82       7.3  T
   7   -100.7486507 -0.246116E-06  0.468E-04    0.82      25.2  T
   8   -100.7486507 -0.295225E-07  0.266E-04    0.82      44.3  T
     SCC iter.                  ...        0 min,  0.065 sec
     gradient                   ...        0 min,  0.069 sec
 * total energy  :   -99.9312154 Eh     change       -0.5451908E-03 Eh
   gradient norm :     0.0105226 Eh/α   predicted    -0.4135274E-03 ( -24.15%)
   displ. norm   :     0.4436695 α      lambda       -0.8292212E-03
   maximum displ.:     0.1929078 α      in ANC's #8, #29, #12, ...

........................................................................
.............................. CYCLE   25 ..............................
........................................................................

 iter      E             dE          RMSdq      gap      omega  full diag
   1   -100.7466864 -0.100747E+03  0.634E-02    0.83       0.0  T
   2   -100.7466811  0.530996E-05  0.393E-02    0.81       1.0  T
   3   -100.7464941  0.186979E-03  0.430E-02    0.86       1.0  T
   4   -100.7466512 -0.157151E-03  0.225E-02    0.80       1.0  T
   5   -100.7467052 -0.539579E-04  0.302E-03    0.82       3.9  T
   6   -100.7467054 -0.223739E-06  0.206E-03    0.82       5.7  T
   7   -100.7467059 -0.487352E-06  0.522E-04    0.82      22.6  T
   8   -100.7467060 -0.361351E-07  0.232E-04    0.82      50.8  T
     SCC iter.                  ...        0 min,  0.065 sec
     gradient                   ...        0 min,  0.069 sec
 * total energy  :   -99.9318671 Eh     change       -0.6516402E-03 Eh
   gradient norm :     0.0148686 Eh/α   predicted    -0.4962245E-03 ( -23.85%)
   displ. norm   :     0.5012413 α      lambda       -0.1079704E-02
   maximum displ.:     0.2091267 α      in ANC's #8, #29, #12, ...

........................................................................
.............................. CYCLE   26 ..............................
........................................................................

 iter      E             dE          RMSdq      gap      omega  full diag
   1   -100.7458141 -0.100746E+03  0.736E-02    0.84       0.0  T
   2   -100.7456886  0.125452E-03  0.591E-02    0.79       1.0  T
   3   -100.7455000  0.188642E-03  0.602E-02    0.88       1.0  T
   4   -100.7457871 -0.287083E-03  0.271E-02    0.80       1.0  T
   5   -100.7458704 -0.833701E-04  0.285E-03    0.83       4.1  T
   6   -100.7458708 -0.426212E-06  0.184E-03    0.82       6.4  T
   7   -100.7458712 -0.358830E-06  0.531E-04    0.83      22.2  T
   8   -100.7458712 -0.312614E-07  0.212E-04    0.82      55.7  T
     SCC iter.                  ...        0 min,  0.065 sec
     gradient                   ...        0 min,  0.068 sec
 * total energy  :   -99.9327234 Eh     change       -0.8563742E-03 Eh
   gradient norm :     0.0176121 Eh/α   predicted    -0.6754932E-03 ( -21.12%)
   displ. norm   :     0.4670125 α      lambda       -0.1273373E-02
   maximum displ.:     0.1827871 α      in ANC's #8, #7, #12, ...

........................................................................
.............................. CYCLE   27 ..............................
........................................................................

 iter      E             dE          RMSdq      gap      omega  full diag
   1   -100.7475962 -0.100748E+03  0.887E-02    0.84       0.0  T
   2   -100.7473992  0.196961E-03  0.712E-02    0.79       1.0  T
   3   -100.7470908  0.308401E-03  0.742E-02    0.89       1.0  T
   4   -100.7475978 -0.506982E-03  0.257E-02    0.81       1.0  T
   5   -100.7476780 -0.801680E-04  0.425E-03    0.83       2.8  T
   6   -100.7476786 -0.659974E-06  0.223E-03    0.83       5.3  T
   7   -100.7476790 -0.358339E-06  0.103E-03    0.83      11.4  T
   8   -100.7476792 -0.149640E-06  0.282E-04    0.83      41.7  T
   9   -100.7476792 -0.480884E-08  0.158E-04    0.83      74.6  T
     SCC iter.                  ...        0 min,  0.073 sec
     gradient                   ...        0 min,  0.070 sec
 * total energy  :   -99.9336669 Eh     change       -0.9434598E-03 Eh
   gradient norm :     0.0167591 Eh/α   predicted    -0.7755723E-03 ( -17.79%)
   displ. norm   :     0.5605678 α      lambda       -0.1121200E-02
   maximum displ.:     0.2234433 α      in ANC's #8, #29, #7, ...

........................................................................
.............................. CYCLE   28 ..............................
........................................................................

 iter      E             dE          RMSdq      gap      omega  full diag
   1   -100.7436075 -0.100744E+03  0.960E-02    0.84       0.0  T
   2   -100.7434936  0.113919E-03  0.681E-02    0.80       1.0  T
   3   -100.7427720  0.721567E-03  0.887E-02    0.91       1.0  T
   4   -100.7435966 -0.824612E-03  0.237E-02    0.81       1.0  T
   5   -100.7436661 -0.695038E-04  0.487E-03    0.83       2.4  T
   6   -100.7436676 -0.147101E-05  0.226E-03    0.83       5.2  T
   7   -100.7436679 -0.272988E-06  0.931E-04    0.83      12.7  T
   8   -100.7436680 -0.128568E-06  0.259E-04    0.83      45.5  T
     SCC iter.                  ...        0 min,  0.065 sec
     gradient                   ...        0 min,  0.069 sec
 * total energy  :   -99.9344817 Eh     change       -0.8148439E-03 Eh
   gradient norm :     0.0178889 Eh/α   predicted    -0.7367617E-03 (  -9.58%)
   displ. norm   :     0.3921534 α      lambda       -0.1462083E-02
   maximum displ.:     0.1529407 α      in ANC's #16, #7, #17, ...

........................................................................
.............................. CYCLE   29 ..............................
........................................................................

 iter      E             dE          RMSdq      gap      omega  full diag
   1   -100.7526099 -0.100753E+03  0.963E-02    0.85       0.0  T
   2   -100.7525058  0.104141E-03  0.659E-02    0.80       1.0  T
   3   -100.7515966  0.909206E-03  0.939E-02    0.93       1.0  T
   4   -100.7526615 -0.106494E-02  0.129E-02    0.83       1.0  T
   5   -100.7526727 -0.112045E-04  0.595E-03    0.84       2.0  T
   6   -100.7526746 -0.189093E-05  0.259E-03    0.84       4.6  T
   7   -100.7526750 -0.339920E-06  0.950E-04    0.84      12.4  T
   8   -100.7526751 -0.978625E-07  0.474E-04    0.84      24.8  T
     SCC iter.                  ...        0 min,  0.065 sec
     gradient                   ...        0 min,  0.069 sec
 * total energy  :   -99.9350492 Eh     change       -0.5674479E-03 Eh
   gradient norm :     0.0152006 Eh/α   predicted    -0.8434849E-03 (  48.65%)
   displ. norm   :     0.4613767 α      lambda       -0.9938530E-03
   maximum displ.:     0.1735187 α      in ANC's #8, #7, #29, ...

........................................................................
.............................. CYCLE   30 ..............................
........................................................................

 iter      E             dE          RMSdq      gap      omega  full diag
   1   -100.7458519 -0.100746E+03  0.718E-02    0.85       0.0  T
   2   -100.7458142  0.376873E-04  0.499E-02    0.82       1.0  T
   3   -100.7454741  0.340069E-03  0.595E-02    0.89       1.0  T
   4   -100.7458135 -0.339428E-03  0.254E-02    0.82       1.0  T
   5   -100.7458870 -0.734742E-04  0.377E-03    0.84       3.1  T
   6   -100.7458880 -0.104015E-05  0.185E-03    0.84       6.4  T
   7   -100.7458883 -0.260170E-06  0.931E-04    0.84      12.7  T
   8   -100.7458884 -0.110749E-06  0.260E-04    0.84      45.3  T
     SCC iter.                  ...        0 min,  0.065 sec
     gradient                   ...        0 min,  0.069 sec
 * total energy  :   -99.9356048 Eh     change       -0.5556583E-03 Eh
   gradient norm :     0.0124878 Eh/α   predicted    -0.6027082E-03 (   8.47%)
   displ. norm   :     0.1498653 α      lambda       -0.5240538E-03
   maximum displ.:     0.0514005 α      in ANC's #16, #22, #29, ...

........................................................................
.............................. CYCLE   31 ..............................
........................................................................

 iter      E             dE          RMSdq      gap      omega  full diag
   1   -100.7479848 -0.100748E+03  0.390E-02    0.83       0.0  T
   2   -100.7479407  0.441523E-04  0.324E-02    0.86       1.0  T
   3   -100.7478952  0.454206E-04  0.314E-02    0.81       1.0  T
   4   -100.7479877 -0.924272E-04  0.866E-03    0.85       1.4  T
   5   -100.7479994 -0.117124E-04  0.217E-03    0.84       5.4  T
   6   -100.7479998 -0.392294E-06  0.863E-04    0.84      13.7  T
   7   -100.7479998 -0.187081E-07  0.285E-04    0.84      41.4  T
     SCC iter.                  ...        0 min,  0.058 sec
     gradient                   ...        0 min,  0.069 sec
 * total energy  :   -99.9359312 Eh     change       -0.3264107E-03 Eh
   gradient norm :     0.0095799 Eh/α   predicted    -0.2679151E-03 ( -17.92%)
   displ. norm   :     0.3012274 α      lambda       -0.5289669E-03
   maximum displ.:     0.1231242 α      in ANC's #16, #22, #7, ...

........................................................................
.............................. CYCLE   32 ..............................
........................................................................

 iter      E             dE          RMSdq      gap      omega  full diag
   1   -100.7507833 -0.100751E+03  0.618E-02    0.83       0.0  T
   2   -100.7506949  0.883479E-04  0.471E-02    0.87       1.0  T
   3   -100.7504268  0.268106E-03  0.582E-02    0.78       1.0  T
   4   -100.7508029 -0.376112E-03  0.677E-03    0.85       1.7  T
   5   -100.7508088 -0.590086E-05  0.319E-03    0.84       3.7  T
   6   -100.7508102 -0.140414E-05  0.116E-03    0.84      10.2  T
   7   -100.7508103 -0.358181E-07  0.484E-04    0.84      24.3  T
   8   -100.7508103 -0.163984E-07  0.146E-04    0.84      80.9  T
     SCC iter.                  ...        0 min,  0.065 sec
     gradient                   ...        0 min,  0.068 sec
 * total energy  :   -99.9362501 Eh     change       -0.3188817E-03 Eh
   gradient norm :     0.0082117 Eh/α   predicted    -0.2884837E-03 (  -9.53%)
   displ. norm   :     0.3119217 α      lambda       -0.3175325E-03
   maximum displ.:     0.1209149 α      in ANC's #16, #22, #7, ...

........................................................................
.............................. CYCLE   33 ..............................
........................................................................

 iter      E             dE          RMSdq      gap      omega  full diag
   1   -100.7516086 -0.100752E+03  0.526E-02    0.83       0.0  T
   2   -100.7516050  0.362720E-05  0.312E-02    0.84       1.0  T
   3   -100.7513972  0.207846E-03  0.437E-02    0.80       1.0  T
   4   -100.7516093 -0.212138E-03  0.622E-03    0.84       1.9  T
   5   -100.7516141 -0.478540E-05  0.278E-03    0.84       4.2  T
   6   -100.7516149 -0.771491E-06  0.110E-03    0.84      10.8  T
   7   -100.7516150 -0.102903E-06  0.374E-04    0.84      31.6  T
   8   -100.7516150 -0.142985E-07  0.127E-04    0.84      92.9  T
     SCC iter.                  ...        0 min,  0.065 sec
     gradient                   ...        0 min,  0.069 sec
 * total energy  :   -99.9364631 Eh     change       -0.2129776E-03 Eh
   gradient norm :     0.0095851 Eh/α   predicted    -0.1742140E-03 ( -18.20%)
   displ. norm   :     0.2443793 α      lambda       -0.2973752E-03
   maximum displ.:     0.0939170 α      in ANC's #6, #16, #22, ...

........................................................................
.............................. CYCLE   34 ..............................
........................................................................

 iter      E             dE          RMSdq      gap      omega  full diag
   1   -100.7553512 -0.100755E+03  0.488E-02    0.82       0.0  T
   2   -100.7551948  0.156442E-03  0.492E-02    0.87       1.0  T
   3   -100.7552982 -0.103390E-03  0.339E-02    0.80       1.0  T
   4   -100.7553829 -0.846737E-04  0.125E-02    0.84       1.0  T
   5   -100.7553981 -0.152333E-04  0.381E-03    0.83       3.1  T
   6   -100.7553997 -0.162488E-05  0.113E-03    0.83      10.4  T
   7   -100.7553997 -0.157772E-07  0.569E-04    0.83      20.7  T
   8   -100.7553998 -0.486495E-07  0.191E-04    0.83      61.7  T
     SCC iter.                  ...        0 min,  0.065 sec
     gradient                   ...        0 min,  0.071 sec
 * total energy  :   -99.9366455 Eh     change       -0.1823846E-03 Eh
   gradient norm :     0.0064913 Eh/α   predicted    -0.1575687E-03 ( -13.61%)
   displ. norm   :     0.3117334 α      lambda       -0.2100874E-03
   maximum displ.:     0.1056281 α      in ANC's #22, #6, #29, ...

........................................................................
.............................. CYCLE   35 ..............................
........................................................................

 iter      E             dE          RMSdq      gap      omega  full diag
   1   -100.7517128 -0.100752E+03  0.648E-02    0.80       0.0  T
   2   -100.7514397  0.273037E-03  0.634E-02    0.88       1.0  T
   3   -100.7515525 -0.112727E-03  0.489E-02    0.78       1.0  T
   4   -100.7517735 -0.221013E-03  0.830E-03    0.82       1.4  T
   5   -100.7517810 -0.751209E-05  0.234E-03    0.82       5.0  T
   6   -100.7517810 -0.138041E-08  0.125E-03    0.82       9.5  T
   7   -100.7517811 -0.120308E-06  0.517E-04    0.82      22.8  T
   8   -100.7517811 -0.280633E-07  0.178E-04    0.82      66.1  T
     SCC iter.                  ...        0 min,  0.065 sec
     gradient                   ...        0 min,  0.071 sec
 * total energy  :   -99.9367413 Eh     change       -0.9576135E-04 Eh
   gradient norm :     0.0078884 Eh/α   predicted    -0.1152547E-03 (  20.36%)
   displ. norm   :     0.1952543 α      lambda       -0.2324316E-03
   maximum displ.:     0.1050973 α      in ANC's #6, #8, #10, ...

........................................................................
.............................. CYCLE   36 ..............................
........................................................................

 iter      E             dE          RMSdq      gap      omega  full diag
   1   -100.7557610 -0.100756E+03  0.386E-02    0.81       0.0  T
   2   -100.7557203  0.406560E-04  0.317E-02    0.84       1.0  T
   3   -100.7556660  0.543335E-04  0.326E-02    0.79       1.0  T
   4   -100.7557746 -0.108610E-03  0.870E-03    0.82       1.4  T
   5   -100.7557805 -0.588808E-05  0.389E-03    0.81       3.0  T
   6   -100.7557822 -0.168025E-05  0.140E-03    0.82       8.4  T
   7   -100.7557823 -0.871165E-07  0.488E-04    0.82      24.2  T
   8   -100.7557823 -0.268842E-07  0.139E-04    0.82      84.8  T
     SCC iter.                  ...        0 min,  0.064 sec
     gradient                   ...        0 min,  0.069 sec
 * total energy  :   -99.9368662 Eh     change       -0.1249380E-03 Eh
   gradient norm :     0.0074777 Eh/α   predicted    -0.1206473E-03 (  -3.43%)
   displ. norm   :     0.1644038 α      lambda       -0.1443777E-03
   maximum displ.:     0.0849051 α      in ANC's #6, #8, #10, ...

........................................................................
.............................. CYCLE   37 ..............................
........................................................................

 iter      E             dE          RMSdq      gap      omega  full diag
   1   -100.7559917 -0.100756E+03  0.348E-02    0.79       0.0  T
   2   -100.7557889  0.202819E-03  0.503E-02    0.85       1.0  T
   3   -100.7560324 -0.243534E-03  0.165E-02    0.81       1.0  T
   4   -100.7560314  0.102516E-05  0.590E-03    0.81       2.0  T
   5   -100.7560344 -0.301964E-05  0.206E-03    0.81       5.7  T
   6   -100.7560347 -0.358633E-06  0.805E-04    0.81      14.6  T
   7   -100.7560347  0.678428E-08  0.454E-04    0.81      26.0  T
     SCC iter.                  ...        0 min,  0.057 sec
     gradient                   ...        0 min,  0.069 sec
 * total energy  :   -99.9369581 Eh     change       -0.9190962E-04 Eh
   gradient norm :     0.0044730 Eh/α   predicted    -0.7414579E-04 ( -19.33%)
   displ. norm   :     0.2462323 α      lambda       -0.1529805E-03
   maximum displ.:     0.1250933 α      in ANC's #6, #10, #8, ...

........................................................................
.............................. CYCLE   38 ..............................
........................................................................

 iter      E             dE          RMSdq      gap      omega  full diag
   1   -100.7545341 -0.100755E+03  0.450E-02    0.79       0.0  T
   2   -100.7544488  0.852328E-04  0.401E-02    0.83       1.0  T
   3   -100.7544035  0.453521E-04  0.379E-02    0.77       1.0  T
   4   -100.7545541 -0.150578E-03  0.391E-03    0.80       3.0  T
   5   -100.7545547 -0.675637E-06  0.199E-03    0.80       5.9  T
   6   -100.7545550 -0.245262E-06  0.854E-04    0.80      13.8  T
   7   -100.7545550 -0.435709E-07  0.258E-04    0.80      45.6  T
     SCC iter.                  ...        0 min,  0.057 sec
     gradient                   ...        0 min,  0.069 sec
 * total energy  :   -99.9370482 Eh     change       -0.9012710E-04 Eh
   gradient norm :     0.0055790 Eh/α   predicted    -0.8112902E-04 (  -9.98%)
   displ. norm   :     0.2008689 α      lambda       -0.1223477E-03
   maximum displ.:     0.0871096 α      in ANC's #6, #8, #10, ...

........................................................................
.............................. CYCLE   39 ..............................
........................................................................

 iter      E             dE          RMSdq      gap      omega  full diag
   1   -100.7540468 -0.100754E+03  0.332E-02    0.79       0.0  T
   2   -100.7540240  0.228180E-04  0.250E-02    0.81       1.0  T
   3   -100.7539132  0.110757E-03  0.344E-02    0.77       1.0  T
   4   -100.7540504 -0.137179E-03  0.481E-03    0.80       2.4  T
   5   -100.7540528 -0.241123E-05  0.139E-03    0.80       8.5  T
   6   -100.7540529 -0.992849E-07  0.622E-04    0.80      19.0  T
   7   -100.7540529 -0.187322E-07  0.259E-04    0.80      45.6  T
     SCC iter.                  ...        0 min,  0.057 sec
     gradient                   ...        0 min,  0.069 sec
 * total energy  :   -99.9371325 Eh     change       -0.8423835E-04 Eh
   gradient norm :     0.0045783 Eh/α   predicted    -0.6364468E-04 ( -24.45%)
   displ. norm   :     0.2214612 α      lambda       -0.1135477E-03
   maximum displ.:     0.0979318 α      in ANC's #6, #8, #10, ...

........................................................................
.............................. CYCLE   40 ..............................
........................................................................

 iter      E             dE          RMSdq      gap      omega  full diag
   1   -100.7541928 -0.100754E+03  0.328E-02    0.80       0.0  T
   2   -100.7541919  0.877525E-06  0.199E-02    0.79       1.0  T
   3   -100.7541296  0.622826E-04  0.221E-02    0.82       1.0  T
   4   -100.7541909 -0.612660E-04  0.596E-03    0.79       2.0  T
   5   -100.7541943 -0.334663E-05  0.109E-03    0.80      10.8  T
   6   -100.7541943 -0.598105E-07  0.572E-04    0.80      20.6  T
   7   -100.7541944 -0.444635E-07  0.162E-04    0.80      72.8  T
     SCC iter.                  ...        0 min,  0.058 sec
     gradient                   ...        0 min,  0.069 sec
 * total energy  :   -99.9372148 Eh     change       -0.8237815E-04 Eh
   gradient norm :     0.0046528 Eh/α   predicted    -0.5955934E-04 ( -27.70%)
   displ. norm   :     0.2252634 α      lambda       -0.9437448E-04
   maximum displ.:     0.0995073 α      in ANC's #6, #8, #10, ...

........................................................................
.............................. CYCLE   41 ..............................
........................................................................

 iter      E             dE          RMSdq      gap      omega  full diag
   1   -100.7545704 -0.100755E+03  0.345E-02    0.80       0.0  T
   2   -100.7545704 -0.117460E-07  0.205E-02    0.79       1.0  T
   3   -100.7545195  0.508580E-04  0.189E-02    0.82       1.0  T
   4   -100.7545713 -0.517443E-04  0.216E-03    0.80       5.5  T
   5   -100.7545716 -0.379287E-06  0.102E-03    0.80      11.5  T
   6   -100.7545717 -0.219557E-07  0.564E-04    0.80      20.9  T
   7   -100.7545717 -0.364672E-07  0.188E-04    0.80      62.7  T
     SCC iter.                  ...        0 min,  0.057 sec
     gradient                   ...        0 min,  0.069 sec
 * total energy  :   -99.9372788 Eh     change       -0.6393310E-04 Eh
   gradient norm :     0.0045229 Eh/α   predicted    -0.4959020E-04 ( -22.43%)
   displ. norm   :     0.2028864 α      lambda       -0.5964982E-04
   maximum displ.:     0.0920525 α      in ANC's #6, #10, #5, ...

........................................................................
.............................. CYCLE   42 ..............................
........................................................................

 iter      E             dE          RMSdq      gap      omega  full diag
   1   -100.7546717 -0.100755E+03  0.314E-02    0.80       0.0  T
   2   -100.7546702  0.155440E-05  0.189E-02    0.80       1.0  T
   3   -100.7545918  0.783829E-04  0.262E-02    0.77       1.0  T
   4   -100.7546716 -0.797665E-04  0.303E-03    0.80       3.9  T
   5   -100.7546728 -0.121053E-05  0.880E-04    0.80      13.4  T
   6   -100.7546728 -0.362770E-07  0.482E-04    0.80      24.4  T
   7   -100.7546728 -0.191501E-07  0.120E-04    0.80      98.3  T
     SCC iter.                  ...        0 min,  0.058 sec
     gradient                   ...        0 min,  0.069 sec
 * total energy  :   -99.9373210 Eh     change       -0.4218958E-04 Eh
   gradient norm :     0.0035836 Eh/α   predicted    -0.3105728E-04 ( -26.39%)
   displ. norm   :     0.1942071 α      lambda       -0.5865041E-04
   maximum displ.:     0.0854786 α      in ANC's #5, #6, #10, ...

   *** GEOMETRY OPTIMIZATION CONVERGED AFTER 42 ITERATIONS ***

------------------------------------------------------------------------
 total energy gain   :        -0.4319838 Eh     -271.0739 kcal/mol
 total RMSD          :         0.8168115 a0        0.4322 Å
 total power (kW/mol):       -27.0041242 (step) -164.5489 (real)
------------------------------------------------------------------------

 ANCopt (total)                0 d,  0 h,  0 min,  6.893 sec
 optimizer setup                ...        0 min,  0.000 sec (  0.004%)
 model hessian                  ...        0 min,  0.107 sec (  1.555%)
 ANC generation                 ...        0 min,  0.013 sec (  0.190%)
 coordinate transformation      ...        0 min,  0.003 sec (  0.043%)
 single point calculation       ...        0 min,  6.703 sec ( 97.249%)
 optimization log               ...        0 min,  0.011 sec (  0.160%)
 hessian update                 ...        0 min,  0.003 sec (  0.040%)
 rational function              ...        0 min,  0.037 sec (  0.537%)

================
 final structure:
================
72
 xtb: 6.6.1 (8d0f1dd)
N           -2.67005152545985        2.56620776322072        2.73560481151820
C           -2.25957598612561        2.46214234066857        1.58233616414260
C           -3.17678881958398        2.05977489967553        0.38205186366258
C           -3.61233055534604        0.61035287728859        0.49402261442739
C           -4.44609664104400        0.08929967078243       -0.49924428435852
C           -4.86593378408829       -1.23083153530632       -0.47535956231219
O           -5.67902892769823       -1.80739992175281       -1.37901308979619
C           -6.25570498343067       -1.02572924352114       -2.39907462512278
C           -4.42196750528828       -2.08857486394981        0.57192579963789
O           -4.85762450067860       -3.35751926870591        0.50201693798365
C           -4.49283528405345       -4.26944949282494        1.51297194649074
C           -3.60152914981542       -1.56089525272639        1.55785008385106
C           -3.20824546028664       -0.23120453269742        1.52136191298506
C           -2.39020684122275        2.27610800891425       -0.92974108123095
C           -1.45286508833868        1.13343941768140       -1.33543343321059
C           -0.31797060956795        0.86917201051450       -0.33893523400350
N            0.62114621952565       -0.10103436473649       -0.85053945723529
C            1.98201794737374       -0.01029770438453       -0.37662817243268
C            2.98447226229294       -0.36452063077029       -1.49333056248453
C            4.39262946496862       -0.15810078717907       -1.02051466031410
C            5.03300495608545        1.06097720572138       -1.20813492212872
C            6.32623274027019        1.26499479974958       -0.75757436655119
C            7.01407910688462        0.25175797253597       -0.10000624058337
O            8.26589203345507        0.33241811558796        0.37658769964034
C            9.00067000925201        1.52279947572529        0.20240995898427
C            6.36559341989217       -1.00236259717383        0.10256106194188
O            7.10364293083075       -1.92668854656225        0.74020139720834
C            6.56806272772438       -3.20873819824431        0.97098427050097
C            5.06857902392527       -1.17953841214127       -0.35852371630237
C            0.09175613392367       -1.44130421872550       -0.92935978197678
C           -4.42696187180547        2.97940434081540        0.46607248052814
C           -5.19422026398283        2.67867027111515        1.74272045072775
C           -4.07169122966755        4.46358338082706        0.39282650327874
H           -4.77496733860802        0.72833068215863       -1.30251105739019
H           -6.84379155704063       -0.20025325018485       -1.98724202929433
H           -6.91369873469205       -1.69918427026918       -2.94481131823088
H           -5.49674786415740       -0.63160538321601       -3.08262505463857
H           -4.85306560259328       -3.94511977011388        2.49359052480031
H           -4.97093510220354       -5.20940955343661        1.24474789497404
H           -3.40824528348421       -4.41161036416575        1.55041836968352
H           -3.26502383787774       -2.17903846499898        2.37441986160944
H           -2.59522789843597        0.14187726016173        2.32614587903452
H           -3.10571708898295        2.41081792092101       -1.74308312052687
H           -1.81403013646450        3.20056553847766       -0.85561582085625
H           -2.03585551823424        0.22213630345515       -1.46822644513251
H           -1.00485696593777        1.38819510212670       -2.29870282094752
H           -0.74789422765190        0.51328123183765        0.61104871292030
H            0.22175261095528        1.80196365514555       -0.15943591675758
H            2.15296475909983       -0.67332949569363        0.48507220152305
H            2.18158221821311        1.01367459956031       -0.05325765806212
H            2.77891874783149        0.27568829981988       -2.35160861542286
H            2.84487073289250       -1.40160452006133       -1.79902084917248
H            4.52193546711622        1.86048884064289       -1.72207295146308
H            6.79791895778839        2.21924952207680       -0.92630962559765
H            8.51813597621927        2.36764904904385        0.70279933346237
H            9.13837874964272        1.75501048925894       -0.85777438371647
H            9.97018352411895        1.33712623637760        0.66105606539130
H            7.35694302275353       -3.76923313890097        1.46934500502931
H            5.68932010658477       -3.16346661352833        1.62182493598215
H            6.30555714814182       -3.70808322268324        0.03339154932050
H            4.57280820415936       -2.12685335520663       -0.21510738689545
H           -0.62903957295873       -1.50944124039723       -1.74192585144365
H           -0.41254973915586       -1.73153351157998        0.00426239286229
H            0.89341644969749       -2.14865869653100       -1.12611952788508
H           -5.06386960886011        2.74146684878862       -0.39318574476636
H           -4.46443496393798        2.68475344384933        2.57630360882485
H           -5.65938710546801        1.69614597317044        1.71542598124639
H           -5.94717982433647        3.43529970444316        1.94157490403818
H           -3.45282258725218        4.75304394943664        1.23858485627721
H           -3.54921334327999        4.70729542528606       -0.52840609288843
H           -4.98259442273498        5.05587895399089        0.42569056954051
H           -1.46317270278499        2.60571236401811        1.34951169970898

 Bond Distances (Angstroems)
 ---------------------------
N1-C2=1.2286         C2-N1=1.2286         C2-C3=1.5633         C2-H72=0.8421        C3-C2=1.5633         C3-C4=1.5176         
C3-C14=1.5448        C3-C31=1.5543        C4-C3=1.5176         C4-C5=1.3976         C4-C13=1.3881        C5-C4=1.3976         
C5-C6=1.3855         C5-H34=1.0778        C6-C5=1.3855         C6-O7=1.3454         C6-C9=1.4247         O7-C6=1.3454         
O7-C8=1.4086         C8-O7=1.4086         C8-H35=1.0940        C8-H36=1.0883        C8-H37=1.0948        C9-C6=1.4247         
C9-O10=1.3435        C9-C12=1.3869        O10-C9=1.3435        O10-C11=1.4095       C11-O10=1.4095       C11-H38=1.0939       
C11-H39=1.0881       C11-H40=1.0945       C12-C9=1.3869        C12-C13=1.3871       C12-H41=1.0780       C13-C4=1.3881        
C13-C12=1.3871       C13-H42=1.0783       C14-C3=1.5448        C14-C15=1.5326       C14-H43=1.0916       C14-H44=1.0918       
C15-C14=1.5326       C15-C16=1.5332       C15-H45=1.0899       C15-H46=1.0925       C16-C15=1.5332       C16-N17=1.4439       
C16-H47=1.1018       C16-H48=1.0925       N17-C16=1.4439       N17-C18=1.4439       N17-C30=1.4432       C18-N17=1.4439       
C18-C19=1.5419       C18-H49=1.1006       C18-H50=1.0922       C19-C18=1.5419       C19-C20=1.4997       C19-H51=1.0903       
C19-H52=1.0902       C20-C19=1.4997       C20-C21=1.3898       C20-C29=1.3923       C21-C20=1.3898       C21-C22=1.3846       
C21-H53=1.0791       C22-C21=1.3846       C22-C23=1.3900       C22-H54=1.0778       C23-C22=1.3900       C23-O24=1.3419       
C23-C26=1.4263       O24-C23=1.3419       O24-C25=1.4097       C25-O24=1.4097       C25-H55=1.0941       C25-H56=1.0940       
C25-H57=1.0885       C26-C23=1.4263       C26-O27=1.3438       C26-C29=1.3879       O27-C26=1.3438       O27-C28=1.4085       
C28-O27=1.4085       C28-H58=1.0885       C28-H59=1.0945       C28-H60=1.0942       C29-C20=1.3923       C29-C26=1.3879       
C29-H61=1.0788       C30-N17=1.4432       C30-H62=1.0883       C30-H63=1.1001       C30-H64=1.0871       C31-C3=1.5543        
C31-C32=1.5195       C31-C33=1.5279       C31-H65=1.0957       C32-C31=1.5195       C32-H66=1.1079       C32-H67=1.0874       
C32-H68=1.0858       C33-C31=1.5279       C33-H69=1.0872       C33-H70=1.0868       C33-H71=1.0870       H34-C5=1.0778        
H35-C8=1.0940        H36-C8=1.0883        H37-C8=1.0948        H38-C11=1.0939       H39-C11=1.0881       H40-C11=1.0945       
H41-C12=1.0780       H42-C13=1.0783       H43-C14=1.0916       H44-C14=1.0918       H45-C15=1.0899       H46-C15=1.0925       
H47-C16=1.1018       H48-C16=1.0925       H49-C18=1.1006       H50-C18=1.0922       H51-C19=1.0903       H52-C19=1.0902       
H53-C21=1.0791       H54-C22=1.0778       H55-C25=1.0941       H56-C25=1.0940       H57-C25=1.0885       H58-C28=1.0885       
H59-C28=1.0945       H60-C28=1.0942       H61-C29=1.0788       H62-C30=1.0883       H63-C30=1.1001       H64-C30=1.0871       
H65-C31=1.0957       H66-C32=1.1079       H67-C32=1.0874       H68-C32=1.0858       H69-C33=1.0872       H70-C33=1.0868       
H71-C33=1.0870       H72-C2=0.8421        
 C  H  Rav=1.0837 sigma=0.0398  Rmin=0.8421  Rmax=1.1079    39
 C  C  Rav=1.4580 sigma=0.0707  Rmin=1.3846  Rmax=1.5633    22
 N  C  Rav=1.3899 sigma=0.0931  Rmin=1.2286  Rmax=1.4439     4
 O  C  Rav=1.3763 sigma=0.0327  Rmin=1.3419  Rmax=1.4097     8

 selected bond angles (degree)
 --------------------
C3-C2-N1=123.13                H72-C2-N1=124.13               H72-C2-C3=112.74               C4-C3-C2=110.95                
C14-C3-C2=108.49               C14-C3-C4=110.03               C31-C3-C2=106.15               C31-C3-C4=109.29               
C31-C3-C14=111.88              C5-C4-C3=118.35                C13-C4-C3=123.37               C13-C4-C5=118.27               
C6-C5-C4=121.58                H34-C5-C4=119.38               H34-C5-C6=119.03               O7-C6-C5=125.44                
C9-C6-C5=119.47                C9-C6-O7=115.09                C8-O7-C6=119.74                H35-C8-O7=111.48               
H36-C8-O7=105.50               H36-C8-H35=109.31              H37-C8-O7=111.60               H37-C8-H35=109.64              
H37-C8-H36=109.20              O10-C9-C6=115.43               C12-C9-C6=118.54               C12-C9-O10=126.03              
C11-O10-C9=119.33              

 selected dihedral angles (degree)
 ---------------------------------
C4-C3-C2-N1=290.95            C4-C3-C2-H72=111.56           C14-C3-C2-N1=169.97           C14-C3-C2-H72=350.57          
C31-C3-C2-N1= 49.58           C31-C3-C2-H72=230.18          C5-C4-C3-C2=179.67            C5-C4-C3-C14=299.74           
C5-C4-C3-C31= 62.96           C13-C4-C3-C2=358.62           C13-C4-C3-C14=118.69          C13-C4-C3-C31=241.91          
C6-C5-C4-C3=178.91            C6-C5-C4-C13=359.90           H34-C5-C4-C3=358.68           H34-C5-C4-C13=179.68          
O7-C6-C5-C4=179.13            O7-C6-C5-H34=359.36           C9-C6-C5-C4=358.91            C9-C6-C5-H34=179.14           
C8-O7-C6-C5=355.07            C8-O7-C6-C9=175.28            H35-C8-O7-C6=302.40           H36-C8-O7-C6=183.85           
H37-C8-O7-C6= 65.37           O10-C9-C6-C5=181.21           O10-C9-C6-O7=  1.02           C12-C9-C6-C5=  1.45           
C12-C9-C6-O7=181.25           C11-O10-C9-C6=181.43          C11-O10-C9-C12=  1.17         
           -------------------------------------------------
          |                Final Singlepoint                |
           -------------------------------------------------

          ...................................................
          :                      SETUP                      :
          :.................................................:
          :  # basis functions                 171          :
          :  # atomic orbitals                 171          :
          :  # shells                          105          :
          :  # electrons                       180          :
          :  max. iterations                   250          :
          :  Hamiltonian                  GFN2-xTB          :
          :  restarted?                      false          :
          :  GBSA solvation                  false          :
          :  PC potential                    false          :
          :  electronic temp.         5000.0000000     K    :
          :  accuracy                    1.0000000          :
          :  -> integral cutoff          0.2500000E+02      :
          :  -> integral neglect         0.1000000E-07      :
          :  -> SCF convergence          0.1000000E-05 Eh   :
          :  -> wf. convergence          0.1000000E-03 e    :
          :  Broyden damping             0.4000000          :
          ...................................................

 iter      E             dE          RMSdq      gap      omega  full diag
   1   -100.7546728 -0.100755E+03  0.487E-05    0.80       0.0  T
   2   -100.7546728 -0.134008E-10  0.307E-05    0.80     383.7  T
   3   -100.7546728  0.531486E-11  0.241E-05    0.80     489.4  T

[...]
         ::.................................................::
         :: SCC energy              -100.754672839946 Eh    ::
         :: -> isotropic ES            0.103486078242 Eh    ::
         :: -> anisotropic ES          0.005844005333 Eh    ::
         :: -> anisotropic XC          0.045050248468 Eh    ::
         :: -> dispersion             -0.073627031293 Eh    ::
         :: repulsion energy           1.441378883137 Eh    ::
         :: add. restraining          -0.625225990774 Eh    ::
         :: total charge               1.000000000000 e     ::
         :::::::::::::::::::::::::::::::::::::::::::::::::::::

           -------------------------------------------------
          |                Property Printout                |
           -------------------------------------------------

    * Orbital Energies and Occupations

         #    Occupation            Energy/Eh            Energy/eV
      -------------------------------------------------------------
         1        2.0000           -0.8190910             -22.2886
       ...           ...                  ...                  ...
        78        1.9968           -0.5363394             -14.5945
        79        1.9960           -0.5326680             -14.4946
        80        1.9955           -0.5306677             -14.4402
        81        1.9944           -0.5271368             -14.3441
        82        1.9935           -0.5250093             -14.2862
        83        1.9924           -0.5225180             -14.2184
        84        1.9902           -0.5184146             -14.1068
        85        1.9720           -0.5016166             -13.6497
        86        1.9624           -0.4968532             -13.5201
        87        1.9583           -0.4951876             -13.4747
        88        1.8034           -0.4693336             -12.7712
        89        1.7610           -0.4658617             -12.6767
        90        1.6847           -0.4607757             -12.5383 (HOMO)
        91        0.9130           -0.4314776             -11.7411 (LUMO)
        92        0.0022           -0.3264166              -8.8822
        93        0.0019           -0.3237372              -8.8093
        94        0.0015           -0.3198709              -8.7041
        95        0.0014           -0.3190476              -8.6817
        96        0.0012           -0.3171476              -8.6300
        97        0.0000           -0.1983011              -5.3960
        98        0.0000           -0.1948612              -5.3024
        99                         -0.1099826              -2.9928
       100                         -0.0729866              -1.9861
       101                         -0.0683000              -1.8585
       ...                                ...                  ...
       171                          0.8693667              23.6567
      -------------------------------------------------------------
                  HL-Gap            0.0292980 Eh            0.7972 eV
             Fermi-level           -0.4342385 Eh          -11.8162 eV

     #   Z          covCN         q      C6AA      α(0)
     1   7 N        0.913    -0.264    26.821     7.489
     2   6 C        2.821     0.072    26.374     8.415
     3   6 C        3.904     0.013    20.309     6.406
     4   6 C        2.970     0.012    27.733     8.638
     5   6 C        2.920    -0.075    29.869     8.962
     6   6 C        2.861     0.134    25.072     8.207
     7   8 O        1.706    -0.220    17.647     5.672
     8   6 C        3.644     0.025    20.493     6.507
     9   6 C        2.864     0.134    25.060     8.206
    10   8 O        1.706    -0.216    17.594     5.663
    11   6 C        3.645     0.024    20.511     6.509
    12   6 C        2.913    -0.068    29.691     8.935
    13   6 C        2.920    -0.043    29.080     8.843
    14   6 C        3.805    -0.067    21.778     6.644
    15   6 C        3.800    -0.069    21.825     6.651
    16   6 C        3.750    -0.001    20.658     6.482
    17   7 N        2.728    -0.105    23.306     7.170
    18   6 C        3.750     0.002    20.615     6.475
    19   6 C        3.808    -0.073    21.880     6.659
    20   6 C        2.967     0.013    27.732     8.638
    21   6 C        2.922    -0.042    29.042     8.837
    22   6 C        2.912    -0.064    29.588     8.920
    23   6 C        2.864     0.137    25.001     8.196
    24   8 O        1.706    -0.209    17.482     5.645
    25   6 C        3.645     0.022    20.546     6.515
    26   6 C        2.861     0.137    24.998     8.195
    27   8 O        1.706    -0.213    17.537     5.654
    28   6 C        3.644     0.024    20.513     6.510
    29   6 C        2.919    -0.075    29.865     8.962
    30   6 C        3.704    -0.049    21.615     6.647
    31   6 C        3.856    -0.007    20.671     6.466
    32   6 C        3.754    -0.120    22.847     6.816
    33   6 C        3.755    -0.115    22.760     6.803
    34   1 H        0.926     0.055     2.257     2.349
    35   1 H        0.924     0.057     2.238     2.339
    36   1 H        0.925     0.085     1.926     2.170
    37   1 H        0.924     0.054     2.275     2.359
    38   1 H        0.924     0.061     2.190     2.315
    39   1 H        0.925     0.085     1.927     2.171
    40   1 H        0.924     0.054     2.266     2.354
    41   1 H        0.926     0.060     2.204     2.322
    42   1 H        0.926     0.058     2.220     2.330
    43   1 H        0.924     0.053     2.287     2.365
    44   1 H        0.924     0.049     2.337     2.391
    45   1 H        0.925     0.046     2.372     2.409
    46   1 H        0.924     0.056     2.241     2.341
    47   1 H        0.923     0.035     2.516     2.480
    48   1 H        0.924     0.047     2.359     2.402
    49   1 H        0.923     0.041     2.434     2.440
    50   1 H        0.924     0.051     2.302     2.372
    51   1 H        0.924     0.065     2.144     2.290
    52   1 H        0.925     0.056     2.243     2.342
    53   1 H        0.926     0.057     2.234     2.337
    54   1 H        0.926     0.064     2.153     2.294
    55   1 H        0.924     0.060     2.193     2.316
    56   1 H        0.924     0.062     2.179     2.308
    57   1 H        0.925     0.087     1.909     2.160
    58   1 H        0.925     0.086     1.917     2.165
    59   1 H        0.924     0.056     2.247     2.344
    60   1 H        0.924     0.058     2.219     2.330
    61   1 H        0.926     0.055     2.255     2.348
    62   1 H        0.925     0.060     2.194     2.316
    63   1 H        0.923     0.040     2.455     2.450
    64   1 H        0.925     0.061     2.183     2.311
    65   1 H        0.924     0.053     2.277     2.360
    66   1 H        0.922     0.113     1.672     2.022
    67   1 H        0.925     0.047     2.359     2.402
    68   1 H        0.925     0.066     2.132     2.283
    69   1 H        0.925     0.052     2.293     2.368
    70   1 H        0.925     0.043     2.410     2.428
    71   1 H        0.925     0.056     2.244     2.343
    72   1 H        0.930     0.101     1.776     2.084

 Mol. C6AA /au·bohr⁶  :      47071.129541
 Mol. C8AA /au·bohr⁸  :    1072150.277299
 Mol. α(0) /au        :        331.846836


Wiberg/Mayer (AO) data.
largest (>0.10) Wiberg bond orders for each atom

 ---------------------------------------------------------------------------
     #   Z sym  total        # sym  WBO       # sym  WBO       # sym  WBO
 ---------------------------------------------------------------------------
     1   7 N    2.344 --     2 C    2.116
     2   6 C    3.947 --     1 N    2.116    72 H    0.918     3 C    0.857
     3   6 C    3.857 --     4 C    0.980    14 C    0.974    31 C    0.939
                             2 C    0.857
     4   6 C    3.921 --    13 C    1.400     5 C    1.364     3 C    0.980
     5   6 C    3.944 --     6 C    1.394     4 C    1.364    34 H    0.957
     6   6 C    3.882 --     5 C    1.394     9 C    1.205     7 O    1.111
     7   8 O    2.249 --     6 C    1.111     8 C    0.976
     8   6 C    3.926 --    36 H    0.976     7 O    0.976    35 H    0.972
                            37 H    0.971
     9   6 C    3.877 --    12 C    1.380     6 C    1.205    10 O    1.116
    10   8 O    2.250 --     9 C    1.116    11 C    0.975
    11   6 C    3.925 --    39 H    0.976    10 O    0.975    40 H    0.972
                            38 H    0.971
    12   6 C    3.949 --    13 C    1.414     9 C    1.380    41 H    0.962
    13   6 C    3.929 --    12 C    1.414     4 C    1.400    42 H    0.960
    14   6 C    3.981 --    15 C    1.006     3 C    0.974    44 H    0.971
                            43 H    0.966
    15   6 C    3.979 --    14 C    1.006    16 C    0.994    46 H    0.973
                            45 H    0.969
    16   6 C    3.967 --    17 N    1.006    15 C    0.994    48 H    0.968
                            47 H    0.947
    17   7 N    3.093 --    30 C    1.017    18 C    1.009    16 C    1.006
    18   6 C    3.960 --    17 N    1.009    50 H    0.970    19 C    0.968
                            49 H    0.956
    19   6 C    3.974 --    20 C    1.016    51 H    0.969    18 C    0.968
                            52 H    0.966
    20   6 C    3.917 --    29 C    1.387    21 C    1.383    19 C    1.016
    21   6 C    3.918 --    22 C    1.429    20 C    1.383    53 H    0.966
    22   6 C    3.943 --    21 C    1.429    23 C    1.367    54 H    0.962
    23   6 C    3.863 --    22 C    1.367    26 C    1.202    24 O    1.124
    24   8 O    2.248 --    23 C    1.124    25 C    0.973
    25   6 C    3.921 --    57 H    0.976    24 O    0.973    56 H    0.970
                            55 H    0.970
    26   6 C    3.871 --    29 C    1.383    23 C    1.202    27 O    1.118
    27   8 O    2.249 --    26 C    1.118    28 C    0.975
    28   6 C    3.925 --    58 H    0.976    27 O    0.975    59 H    0.971
                            60 H    0.971
    29   6 C    3.945 --    20 C    1.387    26 C    1.383    61 H    0.961
    30   6 C    3.967 --    17 N    1.017    64 H    0.978    62 H    0.972
                            63 H    0.963
    31   6 C    3.969 --    32 C    1.018    33 C    1.006     3 C    0.939
                            65 H    0.937
    32   6 C    3.901 --    31 C    1.018    67 H    0.978    68 H    0.973
                            66 H    0.861
    33   6 C    3.982 --    31 C    1.006    70 H    0.982    69 H    0.980
                            71 H    0.980
    34   1 H    0.995 --     5 C    0.957
    35   1 H    0.991 --     8 C    0.972
    36   1 H    0.992 --     8 C    0.976
    37   1 H    0.990 --     8 C    0.971
    38   1 H    0.989 --    11 C    0.971
    39   1 H    0.992 --    11 C    0.976
    40   1 H    0.990 --    11 C    0.972
    41   1 H    0.994 --    12 C    0.962
    42   1 H    0.995 --    13 C    0.960
    43   1 H    0.990 --    14 C    0.966
    44   1 H    0.995 --    14 C    0.971
    45   1 H    0.996 --    15 C    0.969
    46   1 H    0.994 --    15 C    0.973
    47   1 H    0.974 --    16 C    0.947
    48   1 H    0.997 --    16 C    0.968
    49   1 H    0.975 --    18 C    0.956
    50   1 H    0.997 --    18 C    0.970
    51   1 H    0.992 --    19 C    0.969
    52   1 H    0.994 --    19 C    0.966
    53   1 H    0.995 --    21 C    0.966
    54   1 H    0.994 --    22 C    0.962
    55   1 H    0.987 --    25 C    0.970
    56   1 H    0.987 --    25 C    0.970
    57   1 H    0.991 --    25 C    0.976
    58   1 H    0.992 --    28 C    0.976
    59   1 H    0.989 --    28 C    0.971
    60   1 H    0.989 --    28 C    0.971
    61   1 H    0.995 --    29 C    0.961
    62   1 H    0.987 --    30 C    0.972
    63   1 H    0.976 --    30 C    0.963
    64   1 H    0.996 --    30 C    0.978
    65   1 H    0.974 --    31 C    0.937
    66   1 H    0.972 --    32 C    0.861
    67   1 H    0.994 --    32 C    0.978
    68   1 H    0.989 --    32 C    0.973
    69   1 H    0.994 --    33 C    0.980
    70   1 H    0.996 --    33 C    0.982
    71   1 H    0.994 --    33 C    0.980
    72   1 H    0.941 --     2 C    0.918
 ---------------------------------------------------------------------------

Topologies differ in total number of bonds
Writing topology from bond orders to xtbtopo.mol

molecular dipole:
                 x           y           z       tot (Debye)
 q only:        0.810      -0.274      -0.821
   full:        0.873      -0.266      -1.018       3.474
molecular quadrupole (traceless):
                xx          xy          yy          xz          yz          zz
 q only:       81.338       2.163     -23.653       5.156     -13.719     -57.685
  q+dip:       77.906       4.142     -20.112       8.374     -18.415     -57.794
   full:       78.352       3.136     -20.234       6.557     -17.730     -58.118

           -------------------------------------------------
          |                Geometry Summary                 |
           -------------------------------------------------

      molecular mass/u    :      455.6105846
   center of mass at/Å    :       -0.0119448       0.0183289       0.0413020
  moments of inertia/u·Å² :        0.2489000E+04   0.1142332E+05   0.1269038E+05
rotational constants/cm⁻¹ :        0.6772853E-02   0.1475721E-02   0.1328378E-02

 * 67 selected distances

     #   Z          #   Z                                           value/Å
     1   7 N        2   6 C                                       1.2285555
     4   6 C        5   6 C                                       1.3975843
     5   6 C        6   6 C                                       1.3854893
     6   6 C        7   8 O                                       1.3454162
     7   8 O        8   6 C                                       1.4085774
     6   6 C        9   6 C                                       1.4246532
     9   6 C       10   8 O                                       1.3434673
    10   8 O       11   6 C                                       1.4095100
     9   6 C       12   6 C                                       1.3869434
     4   6 C       13   6 C                                       1.3881391
    12   6 C       13   6 C                                       1.3871125
    14   6 C       15   6 C                                       1.5326082
    15   6 C       16   6 C                                       1.5332423 (max)
    16   6 C       17   7 N                                       1.4439460
    17   7 N       18   6 C                                       1.4438827
    20   6 C       21   6 C                                       1.3897603
    21   6 C       22   6 C                                       1.3845817
    22   6 C       23   6 C                                       1.3900279
    23   6 C       24   8 O                                       1.3418956
    24   8 O       25   6 C                                       1.4096967
    23   6 C       26   6 C                                       1.4263190
    26   6 C       27   8 O                                       1.3437563
    27   8 O       28   6 C                                       1.4084596
    20   6 C       29   6 C                                       1.3922913
    26   6 C       29   6 C                                       1.3878895
    17   7 N       30   6 C                                       1.4431875
    31   6 C       32   6 C                                       1.5195252
    31   6 C       33   6 C                                       1.5278645
     5   6 C       34   1 H                                       1.0778471
     8   6 C       35   1 H                                       1.0940122
     8   6 C       36   1 H                                       1.0882675
     8   6 C       37   1 H                                       1.0948018
    11   6 C       38   1 H                                       1.0938778
    11   6 C       39   1 H                                       1.0881400
    11   6 C       40   1 H                                       1.0945079
    12   6 C       41   1 H                                       1.0780182
    13   6 C       42   1 H                                       1.0782662
    14   6 C       43   1 H                                       1.0916168
    14   6 C       44   1 H                                       1.0918315
    15   6 C       45   1 H                                       1.0899474
    15   6 C       46   1 H                                       1.0924742
    16   6 C       47   1 H                                       1.1017996
    16   6 C       48   1 H                                       1.0925299
    18   6 C       49   1 H                                       1.1006188
    18   6 C       50   1 H                                       1.0922060
    19   6 C       51   1 H                                       1.0903032
    19   6 C       52   1 H                                       1.0901735
    21   6 C       53   1 H                                       1.0791401
    22   6 C       54   1 H                                       1.0777577
    25   6 C       55   1 H                                       1.0940748
    25   6 C       56   1 H                                       1.0940186
    25   6 C       57   1 H                                       1.0884794
    28   6 C       58   1 H                                       1.0885083
    28   6 C       59   1 H                                       1.0944551
    28   6 C       60   1 H                                       1.0942280
    29   6 C       61   1 H                                       1.0787784
    30   6 C       62   1 H                                       1.0883258
    30   6 C       63   1 H                                       1.1000946
    30   6 C       64   1 H                                       1.0870714
    31   6 C       65   1 H                                       1.0957147
    32   6 C       66   1 H                                       1.1079191
    32   6 C       67   1 H                                       1.0874187
    32   6 C       68   1 H                                       1.0858082
    33   6 C       69   1 H                                       1.0872411
    33   6 C       70   1 H                                       1.0867605
    33   6 C       71   1 H                                       1.0870322
     2   6 C       72   1 H                                       0.8420676 (min)

 * 4 distinct bonds (by element types)

   Z      Z             #   av. dist./Å        max./Å        min./Å
   1 H    6 C          39     1.0837470     1.1079191     0.8420676
   6 C    6 C          16     1.4283770     1.5332423     1.3845817
   6 C    7 N           4     1.3898929     1.4439460     1.2285555
   6 C    8 O           8     1.3763474     1.4096967     1.3418956


optimized geometry written to: xtbopt.xyz


           -------------------------------------------------
          | TOTAL ENERGY              -99.937320969516 Eh   |
          | GRADIENT NORM               0.003582467742 Eh/α |
          | HOMO-LUMO GAP               0.797239905412 eV   |
           -------------------------------------------------

------------------------------------------------------------------------
 * finished run on 2024/04/06 at 11:15:38.771     
------------------------------------------------------------------------
 total:
 * wall-time:     0 d,  0 h,  0 min,  7.244 sec
 *  cpu-time:     0 d,  0 h,  0 min,  7.226 sec
 * ratio c/w:     0.998 speedup
 SCF:
 * wall-time:     0 d,  0 h,  0 min,  0.190 sec
 *  cpu-time:     0 d,  0 h,  0 min,  0.190 sec
 * ratio c/w:     1.000 speedup
 ANC optimizer:
 * wall-time:     0 d,  0 h,  0 min,  7.014 sec
 *  cpu-time:     0 d,  0 h,  0 min,  7.011 sec
 * ratio c/w:     1.000 speedup

