72
 energy: -103.311796252840 gnorm: 0.095846942100 xtb: 6.6.1 (8d0f1dd)
N           -1.48474791861266        2.76366811625242        2.22879229014295
C           -1.56177221813478        2.16340588257635        1.14546508359694
C           -2.74807279047874        2.05571491406904        0.24564159701209
C           -3.31305130196707        0.64211350828306        0.33439286151955
C           -4.29139884442018        0.23575404293972       -0.57494754877851
C           -4.84383953832486       -1.02860110776525       -0.52883536864475
O           -5.80109363804745       -1.49152459779127       -1.35502804288193
C           -6.35869788000318       -0.60978647571382       -2.30846419106091
C           -4.39868503888355       -1.94841378558060        0.45386706996405
O           -4.98808745283749       -3.16683016443634        0.42245499321190
C           -4.66646289656270       -4.10184599923165        1.42563743678384
C           -3.42608695519409       -1.54364781516133        1.34920967101782
C           -2.88981891673451       -0.26068615215982        1.28845788779070
C           -2.19611030113629        2.30231152366284       -1.18078256557909
C           -1.26743326997831        1.17519937023547       -1.65765491404253
C            0.00799755950163        1.10759615714208       -0.89700296628665
N            0.62196947555069       -0.02681158011600       -0.57699042532777
C            2.00267636402842       -0.02773628540159       -0.16103650682613
C            2.92932707723202       -0.53732783759944       -1.28246645290138
C            4.35863624929596       -0.43102211396920       -0.83625548604191
C            5.07501827664427        0.73250180314354       -1.04208624893565
C            6.38767695570054        0.84098324396567       -0.60421297536465
C            6.99955043179331       -0.21130510236391        0.05453663116921
O            8.27001457891445       -0.21485157282038        0.52356840978252
C            9.07029760247053        0.92444002234824        0.31992919551643
C            6.26911136498027       -1.40613006616840        0.27422263364985
O            6.94811659510910       -2.38610493416918        0.92118438441776
C            6.31269001148755       -3.62000856780895        1.14283831202482
C            4.96354008855516       -1.49454364556804       -0.16769928680837
C           -0.05283107695213       -1.30275487385442       -0.62736310452256
C           -3.87592056020841        3.07351739525098        0.58484604428249
C           -4.50238427269062        2.77004797245556        1.94397432392404
C           -3.40777624082206        4.52408251514693        0.54477355563408
H           -4.64358511389994        0.93216587688735       -1.32019796921666
H           -6.76341244689481        0.31395665052765       -1.84528241727388
H           -7.13939024282181       -1.18596333090744       -2.79669107811914
H           -5.62358128809073       -0.28643515418512       -3.04976920382127
H           -4.89148794030547       -3.71410403838718        2.42431649247537
H           -5.29295616542206       -4.96906387968228        1.22593983309389
H           -3.61340505238860       -4.39858834936130        1.37793230657551
H           -3.08007769263707       -2.21430610306222        2.12023319921019
H           -2.15688259004892        0.02696120969539        2.02766944285455
H           -3.02687910378185        2.38677322406456       -1.87967591938474
H           -1.65280804628808        3.24846561165317       -1.19617457193230
H           -1.81013787983268        0.23287304344322       -1.62347543547533
H           -1.00457144527713        1.37945559436250       -2.70407551187718
H           -0.68278250400472        1.64897410343013        0.64508582088722
H            0.63564937133371        1.98829995058757       -0.93054740390114
H            2.11469199511281       -0.66198976831860        0.72033009298525
H            2.30332692752737        0.98819851035533        0.10661978630242
H            2.76755490274014        0.07238751744831       -2.17499993898674
H            2.68001264494242       -1.57158635455035       -1.51976990340859
H            4.62347916452969        1.56498675997140       -1.56151801473166
H            6.92532453463843        1.75676451619877       -0.78928601503454
H            8.65253412022137        1.80423029416017        0.81972630523508
H            9.20278052464519        1.13780016525364       -0.74524470499109
H           10.03552911467011        0.68348182911000        0.76186633198075
H            7.05203326132971       -4.24209849569675        1.64412668138642
H            5.43505174034068       -3.51232889884956        1.78979436335940
H            6.01765267102039       -4.09660904223611        0.20244965256583
H            4.39976077439732       -2.40174422260180       -0.01384806752037
H           -0.22190472331463       -1.61771763746444       -1.66019811363877
H           -1.01762469073903       -1.24241557303026       -0.11612778036045
H            0.56012036334202       -2.04984125983126       -0.13172051624055
H           -4.64974219723713        2.94290037276620       -0.18189422962484
H           -3.77250349642146        2.90542225195841        2.73286841552612
H           -4.87825676316162        1.75012693423588        1.98332823785856
H           -5.33335297716165        3.44832538282918        2.12137863949983
H           -2.61736653947023        4.69016130164401        1.26882043642857
H           -3.05666947587859        4.81062629744891       -0.44309035716766
H           -4.24212629544504        5.17338988279895        0.80041459870982
H           -0.61310199581967        2.79660911207910        2.73945370530798
72
 energy: -103.315132028866 gnorm: 0.034095226661 xtb: 6.6.1 (8d0f1dd)
N           -1.50174774570291        2.79793029757617        2.24247255412349
C           -1.56748548435098        2.15783441547964        1.16770487069895
C           -2.74900662195807        2.05922835176807        0.25307308478283
C           -3.31557112202229        0.64761361652399        0.33786624339451
C           -4.29333439919859        0.23970356930610       -0.57106098158354
C           -4.84337592482338       -1.02641610784060       -0.52648752726098
O           -5.80665168081571       -1.48870506252804       -1.36018741080146
C           -6.35599362285297       -0.60744298338072       -2.31138196291619
C           -4.39904889857992       -1.94546679091994        0.45465740331108
O           -4.99074055780821       -3.16883863904210        0.42187344976109
C           -4.66614243186735       -4.10078759145851        1.42445006209161
C           -3.42946639990806       -1.54023605344761        1.35171925325028
C           -2.89516189496663       -0.25637896867977        1.29359419762599
C           -2.19718481098318        2.29935458741389       -1.17722860814366
C           -1.26336378192571        1.18514682271482       -1.67707216535391
C            0.00925210771468        1.12518463368371       -0.90298868902169
N            0.63243684516463       -0.04277307574335       -0.56764535997813
C            2.00743085182682       -0.03932943770951       -0.16291299116855
C            2.93765889389814       -0.54107644360778       -1.28590342031794
C            4.36495361325900       -0.43533615320606       -0.84767927590265
C            5.08005660492458        0.73046621316394       -1.04639117220213
C            6.38978280099178        0.84078217396367       -0.60256675894874
C            7.00123403594633       -0.21186945680590        0.05615558616151
O            8.27711385202012       -0.21647368583483        0.52661805019209
C            9.07180415797071        0.92442990962412        0.32061309477169
C            6.27208426143382       -1.40523442553519        0.27498716774152
O            6.95255440516864       -2.38791790720401        0.92460576169629
C            6.31316124784584       -3.61950158771342        1.14350018848472
C            4.96883359332044       -1.49622090943852       -0.17241268502275
C           -0.04935051139877       -1.30893177744225       -0.62514163529072
C           -3.88216833590597        3.07186858657878        0.58265096086756
C           -4.50667276181332        2.77173743014579        1.94344230640737
C           -3.41164300808046        4.52314111226096        0.54494738039171
H           -4.63880525956976        0.93395958722024       -1.31965609463875
H           -6.77517116109074        0.29373944248866       -1.83968350142040
H           -7.14499170755042       -1.17372748579443       -2.79863013351633
H           -5.61444092309863       -0.29542255336777       -3.05466200065506
H           -4.89013817349340       -3.71239164189036        2.42329109206031
H           -5.29146908763267       -4.96979546249645        1.22686581227433
H           -3.61234811275219       -4.39555568389571        1.37715748497963
H           -3.07895168741687       -2.21391692266741        2.11800771716213
H           -2.15568551049341        0.02910021368990        2.02581325563490
H           -3.03034172223399        2.39008117540877       -1.87528487886408
H           -1.65128461299094        3.24392386451437       -1.19104083582610
H           -1.79879751344072        0.23821413805876       -1.62989456345737
H           -1.03203540515460        1.38854909271370       -2.73348360822674
H           -0.69211722962905        1.64335925077724        0.68007541085869
H            0.65031282235926        1.99316542573919       -0.96668222144656
H            2.12724660398721       -0.67079493710974        0.72212458136184
H            2.29898168348748        0.97941866085904        0.10377089604498
H            2.76664310716977        0.07137793798412       -2.17330373252650
H            2.68368852462103       -1.57449633028400       -1.52296495444800
H            4.62544922567045        1.56367193014798       -1.56152361225799
H            6.92733754060621        1.75733998181383       -0.78580436579556
H            8.65191043946828        1.80445649491862        0.81919222489238
H            9.20205954706364        1.13836551143093       -0.74535995100842
H           10.03848057261049        0.68725450794392        0.76163154055899
H            7.05024039413926       -4.24448418688536        1.64511113755846
H            5.43407141939974       -3.51087858618935        1.78827647786122
H            6.01685279762650       -4.09481745763603        0.20233209801687
H            4.40238359835309       -2.40131925045039       -0.01518125095867
H           -0.22132263851814       -1.62460531908560       -1.65957976711048
H           -1.01498036216915       -1.24460072225043       -0.11554360305227
H            0.55877261052786       -2.06009651620187       -0.12828466621549
H           -4.65658981502110        2.94556219518847       -0.18393283101684
H           -3.76761456562261        2.90486408101862        2.72643362174881
H           -4.87965163936188        1.75095186007597        1.98249486179004
H           -5.33785515928132        3.45010105085888        2.12449226545549
H           -2.61770018840807        4.68170182936539        1.26823249813345
H           -3.05668761459895        4.80729526554628       -0.44253167757053
H           -4.24331732942984        5.17663373040336        0.80103906894298
H           -0.62313378093166        2.79827923991056        2.75054871980945
72
 energy: -103.315700953559 gnorm: 0.020348650655 xtb: 6.6.1 (8d0f1dd)
N           -1.48799154255599        2.78724350011090        2.23149662084298
C           -1.55197229330430        2.14834297504215        1.14986257554742
C           -2.74605308286881        2.05786639905149        0.24726708443563
C           -3.30831443516507        0.64448896841160        0.33008229494594
C           -4.29008779246234        0.23671942463785       -0.57402065112522
C           -4.83826236357764       -1.02949868515412       -0.52628229583510
O           -5.81033881669063       -1.48791768193635       -1.36108721930776
C           -6.35481373569861       -0.60346082403086       -2.30778165353042
C           -4.39460929125659       -1.94769894277717        0.45287152702589
O           -4.99146025697731       -3.17290225116177        0.42231994009966
C           -4.66740177064241       -4.10249961098417        1.42502624542310
C           -3.42493051346943       -1.54338427816601        1.34889005916320
C           -2.88894469309961       -0.26073651165021        1.28760973063450
C           -2.19960248033713        2.30201023049207       -1.18385283246034
C           -1.26628308027491        1.18172476244470       -1.66854737687368
C           -0.00028107293712        1.13559669885132       -0.88828611408636
N            0.63278879105983       -0.04861505299765       -0.55386938524967
C            2.00218684730058       -0.03158924566800       -0.15766564845995
C            2.93311275305157       -0.53495032927418       -1.28043086461913
C            4.35633366239903       -0.43021554302183       -0.84018328640875
C            5.07340329428421        0.73400240904014       -1.04143457633028
C            6.38451295783361        0.84217858948313       -0.60336275519759
C            6.99468269202852       -0.21111727722530        0.05414075240601
O            8.27454556350995       -0.21767365802589        0.52437459748934
C            9.06863340453943        0.92229795919273        0.31972133782293
C            6.26586027093286       -1.40220492905147        0.27541099476502
O            6.95033969608151       -2.38755034618190        0.92256484197417
C            6.31276891691861       -3.61906368665184        1.14261309699683
C            4.96089521466503       -1.49214645967028       -0.16654062262714
C           -0.05146949282080       -1.30611766764502       -0.62712769679186
C           -3.87469209584737        3.06985745738438        0.58449687094358
C           -4.50270484090328        2.77000317747522        1.94453449089569
C           -3.40894473497941        4.52468127029236        0.54535506322546
H           -4.64036098109894        0.93102339257749       -1.31949846418069
H           -6.76897364070387        0.29671741980161       -1.84155022307908
H           -7.14526674616672       -1.17089111524344       -2.79525836993830
H           -5.61477319331045       -0.29603549708184       -3.05425334138589
H           -4.89134551301504       -3.71428267966059        2.42426325827927
H           -5.29404538774788       -4.97077745334860        1.22753124098847
H           -3.61407409693232       -4.39986260662955        1.37881909461015
H           -3.07854933932145       -2.21512293426063        2.11882705811006
H           -2.15462324940764        0.02684610074641        2.02341411854516
H           -3.03165335182587        2.38977956997705       -1.88449713641127
H           -1.65230355745417        3.24650924129771       -1.19903527267264
H           -1.80156145968889        0.23247418942740       -1.61907042158701
H           -1.02012327741019        1.37871308137409       -2.72014176329926
H           -0.68468707451613        1.65003937104405        0.65416494207262
H            0.63974752635005        2.00034913326672       -0.93227185366401
H            2.12302779877191       -0.66112036628374        0.72961930884930
H            2.29248713008376        0.98883144259963        0.10820180169888
H            2.76290820206958        0.07537740710011       -2.16888179471863
H            2.67582783202339       -1.56839886164313       -1.51578054899240
H            4.61900882278888        1.56533916125367       -1.55949393191399
H            6.92389588920852        1.75704359226791       -0.79053940819220
H            8.65099864137869        1.80336253026153        0.81913449067696
H            9.20116999163695        1.13788541114294       -0.74604894310394
H           10.03450959301767        0.68284097080839        0.76129795874815
H            7.05251720933191       -4.24207534854832        1.64300782074507
H            5.43492055387307       -3.51282128002577        1.78948143659611
H            6.01582090082061       -4.09649473772825        0.20232620556337
H            4.39457405561881       -2.39784061335647       -0.01113358480865
H           -0.22310980019747       -1.61670172509084       -1.66452094538073
H           -1.01817778085178       -1.24536442079555       -0.11835133363378
H            0.55815002615968       -2.05758343172356       -0.13280169124206
H           -4.64883272767275        2.94384809833125       -0.18148020902294
H           -3.76790384515826        2.90457306646404        2.73200631497607
H           -4.87553733507617        1.74918921886442        1.98311003872770
H           -5.33483061338019        3.44810334892653        2.12062311657278
H           -2.61522839884696        4.68883415356673        1.26826892459153
H           -3.05541675181072        4.81000160404597       -0.44260273881305
H           -4.24354083484415        5.17430989005240        0.80066312133169
H           -0.59230393170822        2.77565891012362        2.71602006559717
72
 energy: -103.316225694098 gnorm: 0.011205558439 xtb: 6.6.1 (8d0f1dd)
N           -1.51147296052920        2.78436193459144        2.24094803308298
C           -1.55833364047249        2.15597973200565        1.15357748013558
C           -2.74969546546557        2.05835584156405        0.24876261610236
C           -3.31331795165056        0.64572629471680        0.33370249567429
C           -4.29325749399994        0.23817804635513       -0.57254387933992
C           -4.83996554236224       -1.02815146055032       -0.52436119301355
O           -5.80866561036577       -1.48885069900150       -1.36073182551783
C           -6.35708870824519       -0.60532909608648       -2.30678107240290
C           -4.39716932446921       -1.94536806519010        0.45494913688667
O           -4.99142632267469       -3.17106596453532        0.42275879341308
C           -4.66586587006070       -4.10063498618399        1.42453057542186
C           -3.42804164078579       -1.54177324433171        1.35192968296563
C           -2.89353989405268       -0.25902375316587        1.29166044451781
C           -2.19695975854340        2.30273134687020       -1.17917552600393
C           -1.26708496795787        1.17899436422170       -1.66309486414067
C            0.00202843108859        1.12999611658380       -0.89390207041970
N            0.63434671870119       -0.04881010465429       -0.56559226745401
C            2.00410285795957       -0.03231030602574       -0.16835732688421
C            2.93819400028567       -0.53947004512659       -1.28754141312126
C            4.36085267739244       -0.43342228920030       -0.84196222160528
C            5.07851934524734        0.73068656082351       -1.04369495368649
C            6.38929257827906        0.84022876670553       -0.60432418033209
C            6.99870085066487       -0.21230668779112        0.05404400958421
O            8.27725117378562       -0.21610808883010        0.52621318101243
C            9.07089517247955        0.92405503425911        0.32111806192254
C            6.27089704964636       -1.40435245076713        0.27316948836523
O            6.95301733630145       -2.38893037037005        0.92298980926144
C            6.31364067406738       -3.61934813126104        1.14335230750963
C            4.96651403493166       -1.49574852608546       -0.17035115531284
C           -0.05194276657662       -1.30444105356505       -0.62822758319696
C           -3.87755839148606        3.07113706345701        0.58439968920031
C           -4.50573498097246        2.77094589634837        1.94431680529371
C           -3.40981761011902        4.52505024705693        0.54467639453176
H           -4.64364397946942        0.93235812340038       -1.31869925315914
H           -6.76923877179825        0.30186695615660       -1.84622774508229
H           -7.13977648924899       -1.18198191941485       -2.79817155691854
H           -5.62066225540305       -0.28951480550292       -3.05175834753825
H           -4.89078506859674       -3.71402450249122        2.42427935121148
H           -5.29116072692080       -4.96954452864836        1.22590406968703
H           -3.61210436584520       -4.39661988472019        1.37783062426700
H           -3.08151813699786       -2.21365432416157        2.12162416676486
H           -2.16025723034862        0.02888951285829        2.02891525313188
H           -3.02824773600726        2.39004540889166       -1.87935745700899
H           -1.65085184821767        3.24801350912533       -1.19275374820745
H           -1.80660595160846        0.23213037844464       -1.62220731302382
H           -1.01160803476845        1.38052102613350       -2.71031118518630
H           -0.68890183707564        1.65397418876475        0.66078101164210
H            0.64583615751142        1.99017305165907       -0.94121874875903
H            2.12197165771994       -0.66456994370367        0.71741968729657
H            2.30192597698234        0.98528616597507        0.10063092558763
H            2.77169630817099        0.06948933631615       -2.17804971355201
H            2.68288054769900       -1.57348267606419       -1.52364191316242
H            4.62531347383231        1.56186754871061       -1.56324433527425
H            6.92741587602745        1.75643255584575       -0.78824805961320
H            8.65307159652007        1.80544937755529        0.81972843547467
H            9.20419592076610        1.13865182629209       -0.74470875192147
H           10.03701094866525        0.68570939504534        0.76295561952484
H            7.05149567958578       -4.24292296207976        1.64573929417395
H            5.43483999668714       -3.51146993565906        1.78877785626296
H            6.01837483417741       -4.09720267816676        0.20280874796579
H            4.40245724178971       -2.40324932742551       -0.01756858566981
H           -0.22505197591439       -1.62307634047895       -1.66222632787701
H           -1.01680979195723       -1.24105375582929       -0.11614133712219
H            0.55940035471061       -2.05228754238740       -0.13035461608369
H           -4.65110659289605        2.94385538676703       -0.18216818728597
H           -3.77220877762308        2.90534024912162        2.73230672405622
H           -4.88069925529122        1.75089182398466        1.98343415247775
H           -5.33612884361342        3.45016190126249        2.12127889024036
H           -2.61731427420022        4.68887228295687        1.26855808086216
H           -3.05657817676726        4.81015035851083       -0.44336042068361
H           -4.24375645093629        5.17473951371467        0.80003769285005
H           -0.62093703565805        2.78875140094137        2.73268303417633
72
 energy: -103.316270271180 gnorm: 0.009967544882 xtb: 6.6.1 (8d0f1dd)
N           -1.49922399221309        2.78947925660373        2.23927175274655
C           -1.55280639971756        2.15783408906361        1.15601970973370
C           -2.74626529420462        2.05800728050932        0.25154804061244
C           -3.31303678787550        0.64621438363740        0.33585508108729
C           -4.29161613529906        0.23884239283253       -0.57252721475698
C           -4.83942370925990       -1.02752370410022       -0.52488369745578
O           -5.80675062260228       -1.48921773196564       -1.36098518686485
C           -6.35638078775154       -0.60606241878108       -2.30708623417214
C           -4.39681220760829       -1.94509448836562        0.45403372250246
O           -4.99088515652462       -3.17012811785825        0.42207460736793
C           -4.66679273797510       -4.10012237789354        1.42416740213744
C           -3.42581777062635       -1.54244689367115        1.35008469564778
C           -2.89128389536212       -0.25966925020214        1.29107146778413
C           -2.19740415671102        2.29950726156219       -1.17928408326299
C           -1.26634637151434        1.18039744643113       -1.67288751178795
C            0.00382668939576        1.12748073381644       -0.90469379046710
N            0.63196449890654       -0.04545552361716       -0.56836935546076
C            2.00027153949630       -0.03193181812280       -0.16037347609229
C            2.93391427827182       -0.53722333814746       -1.28073488208025
C            4.35887207275605       -0.43180005223392       -0.83987303281106
C            5.07649258017345        0.73231379483224       -1.04227241043025
C            6.38742487825502        0.84184453271239       -0.60255569460391
C            6.99682247141708       -0.21122085786684        0.05531000587783
O            8.27513633691013       -0.21576060560498        0.52565688839118
C            9.06941494062012        0.92362710167024        0.31940360612132
C            6.26885948385214       -1.40317399708472        0.27474849203325
O            6.95033920187581       -2.38779214202353        0.92390898986283
C            6.31158895950836       -3.61876866372976        1.14280735450469
C            4.96433639614007       -1.49407071754619       -0.16853721431823
C           -0.05112414836431       -1.30420806967894       -0.62711831433703
C           -3.87669772757419        3.07037730226389        0.58384118153601
C           -4.50340986031707        2.76988131299106        1.94388701743719
C           -3.40886817130926        4.52344003944482        0.54509707563302
H           -4.63897780067161        0.93292809673057       -1.32047987916126
H           -6.76723289171798        0.30200269736231       -1.84260458561585
H           -7.14272611867846       -1.17867932994362       -2.79683066691589
H           -5.61951155189608       -0.29163327567268       -3.05312004238562
H           -4.89082881703147       -3.71256526462354        2.42372129535281
H           -5.29320270740599       -4.96865042377952        1.22682352992992
H           -3.61347680192378       -4.39761797435241        1.37757970056019
H           -3.07642591901428       -2.21586602667693        2.11693551739835
H           -2.15267053101244        0.02611304249635        2.02423201960464
H           -3.03130688694709        2.38733852193903       -1.87595173431160
H           -1.65289723102548        3.24517356396423       -1.19488627593833
H           -1.80470458001000        0.23447567920636       -1.63124221079402
H           -1.02217559512810        1.38529878764811       -2.72359455489751
H           -0.68826869350346        1.64049093656588        0.66642858645686
H            0.64848427379650        1.98765683276969       -0.95680952364422
H            2.11898789811128       -0.66595049560493        0.72495178958376
H            2.29827160029278        0.98460557813015        0.11035907671051
H            2.76369571459593        0.07375537300132       -2.16948975489867
H            2.67896827038206       -1.57104314228815       -1.51794519708517
H            4.62232496394524        1.56520205043781       -1.55871125445893
H            6.92534312958303        1.75809141990647       -0.78624558881890
H            8.65188848101752        1.80456603434553        0.81878549471082
H            9.20051102296437        1.13811520704144       -0.74663261441492
H           10.03636809434545        0.68524601853871        0.75967621287533
H            7.04992082312643       -4.24349405904451        1.64317106060978
H            5.43343744501880       -3.51190181211523        1.78922286741496
H            6.01529612629552       -4.09453079688560        0.20163969502524
H            4.39858525732836       -2.39963919466361       -0.01140124899313
H           -0.21998037496317       -1.62376156939178       -1.66089086788897
H           -1.01760971200933       -1.24377374820632       -0.11807178596294
H            0.55824897965961       -2.05407705384670       -0.12825315001591
H           -4.65134145375655        2.94334381174085       -0.18233651213860
H           -3.76769039809751        2.90452925797495        2.72925035896322
H           -4.87680172014428        1.74931221234962        1.98293763103610
H           -5.33418482432884        3.44809464923493        2.12345661192353
H           -2.61613450768434        4.68430011004590        1.26895001636127
H           -3.05571503937540        4.80821841517494       -0.44282060035088
H           -4.24174867605133        5.17413100148504        0.80155101299948
H           -0.60979067913112        2.79256678366574        2.73377406603320
72
 energy: -103.316436830848 gnorm: 0.004929853493 xtb: 6.6.1 (8d0f1dd)
N           -1.50015318511304        2.78793556345830        2.23928104841991
C           -1.55558303742508        2.15459236678543        1.15686485784216
C           -2.74866638991833        2.05873045967512        0.25058055765235
C           -3.31370234872546        0.64609511037282        0.33365759873595
C           -4.29267021808633        0.23793893141257       -0.57375182544073
C           -4.84046322659029       -1.02859341272686       -0.52532053563834
O           -5.80867310627461       -1.48990420904635       -1.36170490763565
C           -6.35599786571603       -0.60649533976933       -2.30818217251369
C           -4.39764275286951       -1.94582479139313        0.45377597047976
O           -4.99119158720953       -3.17166012412637        0.42237402562581
C           -4.66656582664756       -4.10137532478032        1.42445625133900
C           -3.42793617193962       -1.54162629695995        1.35068264706147
C           -2.89320958902333       -0.25883831877552        1.29044223246876
C           -2.19804486029894        2.30123124447942       -1.17975270724975
C           -1.26468625034009        1.18167245339103       -1.66791703284491
C            0.00379623851247        1.12987762158858       -0.89621595080080
N            0.63361343559123       -0.04585317276343       -0.56275926384661
C            2.00332413813437       -0.03300541712577       -0.16160681263001
C            2.93555375433463       -0.53801661012641       -1.28406060416539