      -----------------------------------------------------------      
     |                   =====================                   |     
     |                           x T B                           |     
     |                   =====================                   |     
     |                         S. Grimme                         |     
     |          Mulliken Center for Theoretical Chemistry        |     
     |                    University of Bonn                     |     
      -----------------------------------------------------------      

   * xtb version 6.6.1 (8d0f1dd) compiled by 'conda@1efc2f54142f' on 2023-08-01

   xtb is free software: you can redistribute it and/or modify it under
   the terms of the GNU Lesser General Public License as published by
   the Free Software Foundation, either version 3 of the License, or
   (at your option) any later version.
   
   xtb is distributed in the hope that it will be useful,
   but WITHOUT ANY WARRANTY; without even the implied warranty of
   MERCHANTABILITY or FITNESS FOR A PARTICULAR PURPOSE.  See the
   GNU Lesser General Public License for more details.
   
   Cite this work as:
   * C. Bannwarth, E. Caldeweyher, S. Ehlert, A. Hansen, P. Pracht,
     J. Seibert, S. Spicher, S. Grimme, WIREs Comput. Mol. Sci., 2020, 11,
     e01493. DOI: 10.1002/wcms.1493
   
   for GFN2-xTB:
   * C. Bannwarth, S. Ehlert and S. Grimme., J. Chem. Theory Comput., 2019,
     15, 1652-1671. DOI: 10.1021/acs.jctc.8b01176
   for GFN1-xTB:
   * S. Grimme, C. Bannwarth, P. Shushkov, J. Chem. Theory Comput., 2017,
     13, 1989-2009. DOI: 10.1021/acs.jctc.7b00118
   for GFN0-xTB:
   * P. Pracht, E. Caldeweyher, S. Ehlert, S. Grimme, ChemRxiv, 2019, preprint.
     DOI: 10.26434/chemrxiv.8326202.v1
   for GFN-FF:
   * S. Spicher and S. Grimme, Angew. Chem. Int. Ed., 2020, 59, 15665-15673.
     DOI: 10.1002/anie.202004239
   
   for ALPB and GBSA implicit solvation:
   * S. Ehlert, M. Stahn, S. Spicher, S. Grimme, J. Chem. Theory Comput.,
     2021, 17, 4250-4261. DOI: 10.1021/acs.jctc.1c00471
   
   for DFT-D4:
   * E. Caldeweyher, C. Bannwarth and S. Grimme, J. Chem. Phys., 2017,
     147, 034112. DOI: 10.1063/1.4993215
   * E. Caldeweyher, S. Ehlert, A. Hansen, H. Neugebauer, S. Spicher,
     C. Bannwarth and S. Grimme, J. Chem. Phys., 2019, 150, 154122.
     DOI: 10.1063/1.5090222
   * E. Caldeweyher, J.-M. Mewes, S. Ehlert and S. Grimme, Phys. Chem. Chem. Phys.
     2020, 22, 8499-8512. DOI: 10.1039/D0CP00502A
   
   for sTDA-xTB:
   * S. Grimme and C. Bannwarth, J. Chem. Phys., 2016, 145, 054103.
     DOI: 10.1063/1.4959605
   
   in the mass-spec context:
   * V. Asgeirsson, C. Bauer and S. Grimme, Chem. Sci., 2017, 8, 4879.
     DOI: 10.1039/c7sc00601b
   * J. Koopman and S. Grimme, ACS Omega 2019, 4, 12, 15120-15133.
     DOI: 10.1021/acsomega.9b02011
   
   for metadynamics refer to:
   * S. Grimme, J. Chem. Theory Comput., 2019, 155, 2847-2862
     DOI: 10.1021/acs.jctc.9b00143
   
   for SPH calculations refer to:
   * S. Spicher and S. Grimme, J. Chem. Theory Comput., 2021, 17, 1701-1714
     DOI: 10.1021/acs.jctc.0c01306
   
   with help from (in alphabetical order)
   P. Atkinson, C. Bannwarth, F. Bohle, G. Brandenburg, E. Caldeweyher
   M. Checinski, S. Dohm, S. Ehlert, S. Ehrlich, I. Gerasimov, C. Hölzer
   A. Katbashev, J. Koopman, C. Lavigne, S. Lehtola, F. März, M. Müller,
   F. Musil, H. Neugebauer, J. Pisarek, C. Plett, P. Pracht, F. Pultar,
   J. Seibert, P. Shushkov, S. Spicher, M. Stahn, M. Steiner, T. Strunk,
   J. Stückrath, T. Rose, and J. Unsleber
   
 * started run on 2024/06/05 at 19:58:00.076     

           -------------------------------------------------
          |                Calculation Setup                |
           -------------------------------------------------

          program call               : xtb struc.xyz --opt loose --input .xc1 --gfn2
          hostname                   : n-62-30-26
          coordinate file            : struc.xyz
          omp threads                :                     1

   ID    Z sym.   atoms
    1    6 C      1, 3, 5-7, 10, 11, 14
    2    7 N      2, 4, 9, 13
    3    8 O      8, 12
    4    1 H      15-25
constraining bond 10 13 to    5.9200000 Å, actual value:    3.6911810 Å

           -------------------------------------------------
          |                 G F N 2 - x T B                 |
           -------------------------------------------------

        Reference                      10.1021/acs.jctc.8b01176
      * Hamiltonian:
        H0-scaling (s, p, d)           1.850000    2.230000    2.230000
        zeta-weighting                 0.500000
      * Dispersion:
        s8                             2.700000
        a1                             0.520000
        a2                             5.000000
        s9                             5.000000
      * Repulsion:
        kExp                           1.500000    1.000000
        rExp                           1.000000
      * Coulomb:
        alpha                          2.000000
        third order                    shell-resolved
        anisotropic                    true
        a3                             3.000000
        a5                             4.000000
        cn-shift                       1.200000
        cn-exp                         4.000000
        max-rad                        5.000000


          ...................................................
          :                      SETUP                      :
          :.................................................:
          :  # basis functions                  67          :
          :  # atomic orbitals                  67          :
          :  # shells                           39          :
          :  # electrons                        74          :
          :  max. iterations                   250          :
          :  Hamiltonian                  GFN2-xTB          :
          :  restarted?                      false          :
          :  GBSA solvation                  false          :
          :  PC potential                    false          :
          :  electronic temp.         5000.0000000     K    :
          :  accuracy                    1.0000000          :
          :  -> integral cutoff          0.2500000E+02      :
          :  -> integral neglect         0.1000000E-07      :
          :  -> SCF convergence          0.1000000E-05 Eh   :
          :  -> wf. convergence          0.1000000E-03 e    :
          :  Broyden damping             0.4000000          :
          ...................................................

 iter      E             dE          RMSdq      gap      omega  full diag
   1    -42.5894031 -0.425894E+02  0.445E+00    3.52       0.0  T
   2    -42.7683054 -0.178902E+00  0.251E+00    3.36       1.0  T
   3    -42.7759211 -0.761567E-02  0.147E+00    3.35       1.0  T
   4    -42.7728404  0.308066E-02  0.553E-01    3.33       1.0  T
   5    -42.7789548 -0.611444E-02  0.112E-01    3.35       1.0  T
   6    -42.7790473 -0.924914E-04  0.614E-02    3.33       1.0  T
   7    -42.7790721 -0.247928E-04  0.258E-02    3.34       1.0  T
   8    -42.7790772 -0.508996E-05  0.938E-03    3.34       2.1  T
   9    -42.7790779 -0.669422E-06  0.448E-03    3.34       4.5  T
  10    -42.7790780 -0.821510E-07  0.115E-03    3.34      17.4  T
  11    -42.7790780 -0.322663E-08  0.553E-04    3.34      36.2  T
  12    -42.7790780 -0.287051E-08  0.180E-04    3.34     111.1  T

   *** convergence criteria satisfied after 12 iterations ***

         #    Occupation            Energy/Eh            Energy/eV
      -------------------------------------------------------------
         1        2.0000           -0.9185990             -24.9964
       ...           ...                  ...                  ...
        31        1.9996           -0.6230278             -16.9534
        32        1.9995           -0.6194601             -16.8564
        33        1.9979           -0.5974976             -16.2587
        34        1.9932           -0.5789629             -15.7544
        35        1.9817           -0.5631863             -15.3251
        36        1.9779           -0.5602245             -15.2445
        37        1.9748           -0.5581234             -15.1873 (HOMO)
        38        0.0652           -0.4353579             -11.8467 (LUMO)
        39        0.0099           -0.4050467             -11.0219
        40        0.0013           -0.3732218             -10.1559
        41        0.0000           -0.2886859              -7.8555
        42                         -0.2065804              -5.6213
       ...                                ...                  ...
        67                          0.5625656              15.3082
      -------------------------------------------------------------
                  HL-Gap            0.1227656 Eh            3.3406 eV
             Fermi-level           -0.4890455 Eh          -13.3076 eV

 SCC (total)                   0 d,  0 h,  0 min,  0.036 sec
 SCC setup                      ...        0 min,  0.000 sec (  0.754%)
 Dispersion                     ...        0 min,  0.000 sec (  0.909%)
 classical contributions        ...        0 min,  0.000 sec (  0.246%)
 integral evaluation            ...        0 min,  0.006 sec ( 16.112%)
 iterations                     ...        0 min,  0.017 sec ( 46.519%)
 molecular gradient             ...        0 min,  0.013 sec ( 35.036%)
 printout                       ...        0 min,  0.000 sec (  0.392%)

         :::::::::::::::::::::::::::::::::::::::::::::::::::::
         ::                     SUMMARY                     ::
         :::::::::::::::::::::::::::::::::::::::::::::::::::::
         :: total energy             -33.377988415702 Eh    ::
         :: gradient norm              5.955239929756 Eh/a0 ::
         :: HOMO-LUMO gap              3.340621582928 eV    ::
         ::.................................................::
         :: SCC energy               -42.779077977399 Eh    ::
         :: -> isotropic ES            0.141123876439 Eh    ::
         :: -> anisotropic ES         -0.005230418907 Eh    ::
         :: -> anisotropic XC          0.011966818540 Eh    ::
         :: -> dispersion             -0.022657731803 Eh    ::
         :: repulsion energy           0.531105277918 Eh    ::
         :: add. restraining           8.869870124770 Eh    ::
         :: total charge               1.000000000002 e     ::
         :::::::::::::::::::::::::::::::::::::::::::::::::::::

      ----------------------------------------------------------- 
     |                   =====================                   |
     |                        A N C O P T                        |
     |                   =====================                   |
     |               Approximate Normal Coordinate               |
     |                Rational Function Optimizer                |
      ----------------------------------------------------------- 

          ...................................................
          :                      SETUP                      :
          :.................................................:
          :   optimization level             loose          :
          :   max. optcycles                   200          :
          :   ANC micro-cycles                  20          :
          :   degrees of freedom                69          :
          :.................................................:
          :   RF solver                   davidson          :
          :   write xtbopt.log                true          :
          :   linear?                        false          :
          :   energy convergence         0.5000000E-04 Eh   :
          :   grad. convergence          0.4000000E-02 Eh/α :
          :   maxmium RF displ.          1.0000000          :
          :   Hlow (freq-cutoff)         0.1000000E-01      :
          :   Hmax (freq-cutoff)         5.0000000          :
          :   S6 in model hess.         20.0000000          :
          ...................................................

generating ANC from model Hessian ...
Using Lindh-Hessian (1995)
 Shifting diagonal of input Hessian by   0.76369146650767783     
 Lowest  eigenvalues of input Hessian
    0.010000    0.292078    0.000000    0.000000    0.000000    0.000000
    0.000000    0.000000    0.766710    0.768846    0.773442    0.774493
    0.774872    0.775917    0.779828    0.783245    0.783971    0.791964
 Highest eigenvalues
    2.906012    2.954803    3.031490    3.132489    3.274785    4.004546


........................................................................
.............................. CYCLE    1 ..............................
........................................................................

 iter      E             dE          RMSdq      gap      omega  full diag
   1    -42.7790780 -0.427791E+02  0.626E-05    3.34       0.0  T
   2    -42.7790780 -0.124416E-10  0.329E-05    3.34     607.4  T
   3    -42.7790780  0.127898E-12  0.193E-05    3.34    1034.2  T
     SCC iter.                  ...        0 min,  0.005 sec
     gradient                   ...        0 min,  0.012 sec
 * total energy  :   -33.3779884 Eh     change       -0.6650680E-10 Eh
   gradient norm :     5.9552398 Eh/α   predicted     0.0000000E+00 (-100.00%)
   displ. norm   :     0.7409585 α      lambda       -0.4388670E+01
   maximum displ.:     0.6558077 α      in ANC's #69, #60, #40, ...

........................................................................
.............................. CYCLE    2 ..............................
........................................................................

 iter      E             dE          RMSdq      gap      omega  full diag
   1    -42.7060842 -0.427061E+02  0.112E+00    2.86       0.0  T
   2    -42.7130782 -0.699405E-02  0.679E-01    2.99       1.0  T
   3    -42.7150809 -0.200273E-02  0.365E-01    2.97       1.0  T
   4    -42.7153891 -0.308215E-03  0.951E-02    2.96       1.0  T
   5    -42.7155588 -0.169667E-03  0.313E-02    2.97       1.0  T
   6    -42.7155678 -0.903480E-05  0.155E-02    2.97       1.3  T
   7    -42.7155686 -0.762536E-06  0.346E-03    2.97       5.8  T
   8    -42.7155687 -0.131562E-06  0.150E-03    2.97      13.4  T
   9    -42.7155687 -0.515622E-08  0.677E-04    2.97      29.5  T
  10    -42.7155687 -0.975717E-09  0.283E-04    2.97      70.6  T
     SCC iter.                  ...        0 min,  0.013 sec
     gradient                   ...        0 min,  0.013 sec
 * total energy  :   -37.1225517 Eh     change       -0.3744563E+01 Eh
   gradient norm :     4.2204575 Eh/α   predicted    -0.3400207E+01 (  -9.20%)
   displ. norm   :     0.7680823 α      lambda       -0.3224148E+01
   maximum displ.:     0.6805785 α      in ANC's #69, #60, #40, ...

........................................................................
.............................. CYCLE    3 ..............................
........................................................................

 iter      E             dE          RMSdq      gap      omega  full diag
   1    -42.5382724 -0.425383E+02  0.104E+00    1.97       0.0  T
   2    -42.5434424 -0.516995E-02  0.782E-01    2.11       1.0  T
   3    -42.5533611 -0.991870E-02  0.394E-01    2.10       1.0  T
   4    -42.5534892 -0.128114E-03  0.155E-01    2.02       1.0  T
   5    -42.5540114 -0.522236E-03  0.644E-02    2.12       1.0  T
   6    -42.5540787 -0.672257E-04  0.248E-02    2.08       1.0  T
   7    -42.5540823 -0.358358E-05  0.175E-02    2.09       1.1  T
   8    -42.5540888 -0.649946E-05  0.457E-03    2.08       4.4  T
   9    -42.5540890 -0.222746E-06  0.216E-03    2.08       9.3  T
  10    -42.5540890 -0.566068E-07  0.868E-04    2.08      23.1  T
  11    -42.5540890 -0.336650E-08  0.344E-04    2.08      58.2  T
     SCC iter.                  ...        0 min,  0.014 sec
     gradient                   ...        0 min,  0.013 sec
 * total energy  :   -39.7462823 Eh     change       -0.2623731E+01 Eh
   gradient norm :     2.6739040 Eh/α   predicted    -0.2563118E+01 (  -2.31%)
   displ. norm   :     0.7389070 α      lambda       -0.1931663E+01
   maximum displ.:     0.6071255 α      in ANC's #69, #2, #40, ...

........................................................................
.............................. CYCLE    4 ..............................
........................................................................

 iter      E             dE          RMSdq      gap      omega  full diag
   1    -42.4000126 -0.424000E+02  0.909E-01    0.77       0.0  T
   2    -42.3596306  0.403819E-01  0.127E+00    1.55       1.0  T
   3    -42.4082816 -0.486510E-01  0.469E-01    0.89       1.0  T
   4    -42.4036664  0.461516E-02  0.550E-01    1.23       1.0  T
   5    -42.4126357 -0.896921E-02  0.126E-01    1.04       1.0  T
   6    -42.4130247 -0.389041E-03  0.541E-02    1.05       1.0  T
   7    -42.4130672 -0.424913E-04  0.262E-02    1.05       1.0  T
   8    -42.4130850 -0.177738E-04  0.834E-03    1.04       2.4  T
   9    -42.4130862 -0.120483E-05  0.266E-03    1.04       7.5  T
  10    -42.4130862 -0.196670E-08  0.130E-03    1.04      15.4  T
  11    -42.4130862 -0.483145E-07  0.534E-04    1.04      37.4  T
  12    -42.4130862 -0.371580E-08  0.217E-04    1.04      92.2  T
     SCC iter.                  ...        0 min,  0.016 sec
     gradient                   ...        0 min,  0.013 sec
 * total energy  :   -41.2289459 Eh     change       -0.1482664E+01 Eh
   gradient norm :     1.4065075 Eh/α   predicted    -0.1493166E+01 (   0.71%)
   displ. norm   :     0.5785828 α      lambda       -0.7976163E+00
   maximum displ.:     0.4850307 α      in ANC's #69, #2, #16, ...

........................................................................
.............................. CYCLE    5 ..............................
........................................................................

 iter      E             dE          RMSdq      gap      omega  full diag
   1    -42.3230080 -0.423230E+02  0.936E-01    0.56       0.0  T
   2    -42.3206671  0.234086E-02  0.718E-01    0.56       1.0  T
   3    -42.3294221 -0.875499E-02  0.411E-01    0.60       1.0  T
   4    -42.3259020  0.352010E-02  0.350E-01    0.45       1.0  T
   5    -42.3275859 -0.168388E-02  0.292E-01    0.72       1.0  T
   6    -42.3322435 -0.465763E-02  0.325E-02    0.59       1.0  T
   7    -42.3322529 -0.934027E-05  0.205E-02    0.59       1.0  T
   8    -42.3322492  0.363889E-05  0.164E-02    0.59       1.2  T
   9    -42.3322575 -0.828269E-05  0.804E-03    0.59       2.5  T
  10    -42.3322600 -0.253500E-05  0.126E-03    0.59      15.9  T
  11    -42.3322601 -0.416073E-07  0.453E-04    0.59      44.2  T
  12    -42.3322601 -0.781057E-09  0.188E-04    0.59     106.4  T
     SCC iter.                  ...        0 min,  0.016 sec
     gradient                   ...        0 min,  0.011 sec
 * total energy  :   -41.7453084 Eh     change       -0.5163626E+00 Eh
   gradient norm :     0.4250373 Eh/α   predicted    -0.5323174E+00 (   3.09%)
   displ. norm   :     0.3170331 α      lambda       -0.1258153E+00
   maximum displ.:     0.1928120 α      in ANC's #69, #16, #19, ...

........................................................................
.............................. CYCLE    6 ..............................
........................................................................

 iter      E             dE          RMSdq      gap      omega  full diag
   1    -42.3452123 -0.423452E+02  0.423E-01    0.54       0.0  T
   2    -42.3416037  0.360855E-02  0.471E-01    0.39       1.0  T
   3    -42.3405143  0.108947E-02  0.381E-01    0.69       1.0  T
   4    -42.3406793 -0.165078E-03  0.417E-01    0.33       1.0  T
   5    -42.3486124 -0.793309E-02  0.723E-02    0.52       1.0  T
   6    -42.3487608 -0.148323E-03  0.215E-02    0.52       1.0  T
   7    -42.3487739 -0.131654E-04  0.104E-02    0.52       1.9  T
   8    -42.3487737  0.178948E-06  0.578E-03    0.52       3.5  T
   9    -42.3487747 -0.968288E-06  0.226E-03    0.52       8.9  T
  10    -42.3487749 -0.174594E-06  0.523E-04    0.52      38.3  T
  11    -42.3487749 -0.578650E-08  0.232E-04    0.52      86.3  T
     SCC iter.                  ...        0 min,  0.014 sec
     gradient                   ...        0 min,  0.013 sec
 * total energy  :   -41.8281556 Eh     change       -0.8284712E-01 Eh
   gradient norm :     0.2231286 Eh/α   predicted    -0.6923126E-01 ( -16.43%)
   displ. norm   :     0.3231944 α      lambda       -0.5973986E-01
   maximum displ.:     0.1723180 α      in ANC's #16, #19, #6, ...

........................................................................
.............................. CYCLE    7 ..............................
........................................................................

 iter      E             dE          RMSdq      gap      omega  full diag
   1    -42.4107284 -0.424107E+02  0.363E-01    0.56       0.0  T
   2    -42.4113178 -0.589389E-03  0.258E-01    0.57       1.0  T
   3    -42.4118407 -0.522907E-03  0.155E-01    0.57       1.0  T
   4    -42.4098313  0.200939E-02  0.212E-01    0.47       1.0  T
   5    -42.4110508 -0.121955E-02  0.149E-01    0.64       1.0  T
   6    -42.4121591 -0.110826E-02  0.188E-02    0.57       1.1  T
   7    -42.4121646 -0.553938E-05  0.944E-03    0.56       2.1  T
   8    -42.4121663 -0.167973E-05  0.314E-03    0.56       6.4  T
   9    -42.4121664 -0.953393E-07  0.151E-03    0.56      13.2  T
  10    -42.4121664 -0.529269E-07  0.370E-04    0.56      54.1  T
  11    -42.4121665 -0.190785E-08  0.140E-04    0.56     143.3  T
     SCC iter.                  ...        0 min,  0.014 sec
     gradient                   ...        0 min,  0.011 sec
 * total energy  :   -41.8778580 Eh     change       -0.4970240E-01 Eh
   gradient norm :     0.2470333 Eh/α   predicted    -0.3299002E-01 ( -33.62%)
   displ. norm   :     0.5927408 α      lambda       -0.9371058E-01
   maximum displ.:     0.3282483 α      in ANC's #16, #19, #60, ...

........................................................................
.............................. CYCLE    8 ..............................
........................................................................

 iter      E             dE          RMSdq      gap      omega  full diag
   1    -42.5331443 -0.425331E+02  0.653E-01    0.68       0.0  T
   2    -42.5330335  0.110787E-03  0.418E-01    0.59       1.0  T
   3    -42.5135013  0.195322E-01  0.703E-01    1.01       1.0  T
   4    -42.5290684 -0.155671E-01  0.376E-01    0.47       1.0  T
   5    -42.5346365 -0.556813E-02  0.684E-02    0.67       1.0  T
   6    -42.5347894 -0.152828E-03  0.218E-02    0.65       1.0  T
   7    -42.5347916 -0.223940E-05  0.131E-02    0.65       1.5  T
   8    -42.5347965 -0.491367E-05  0.363E-03    0.65       5.5  T
   9    -42.5347968 -0.247681E-06  0.104E-03    0.65      19.2  T
  10    -42.5347968 -0.474032E-08  0.310E-04    0.65      64.6  T
  11    -42.5347968 -0.204216E-08  0.169E-04    0.65     118.4  T
     SCC iter.                  ...        0 min,  0.015 sec
     gradient                   ...        0 min,  0.012 sec
 * total energy  :   -41.9485519 Eh     change       -0.7069392E-01 Eh
   gradient norm :     0.2278231 Eh/α   predicted    -0.6331757E-01 ( -10.43%)
   displ. norm   :     0.4887235 α      lambda       -0.5572863E-01
   maximum displ.:     0.2774374 α      in ANC's #16, #19, #6, ...

........................................................................
.............................. CYCLE    9 ..............................
........................................................................

 iter      E             dE          RMSdq      gap      omega  full diag
   1    -42.6034695 -0.426035E+02  0.542E-01    0.77       0.0  T
   2    -42.6017227  0.174680E-02  0.390E-01    0.59       1.0  T
   3    -42.5812855  0.204372E-01  0.756E-01    1.12       1.0  T
   4    -42.6023689 -0.210834E-01  0.209E-01    0.65       1.0  T
   5    -42.6040361 -0.166723E-02  0.544E-02    0.71       1.0  T
   6    -42.6041358 -0.997024E-04  0.122E-02    0.71       1.6  T
   7    -42.6041337  0.212060E-05  0.100E-02    0.71       2.0  T
   8    -42.6041361 -0.239588E-05  0.310E-03    0.71       6.5  T
   9    -42.6041364 -0.289326E-06  0.580E-04    0.71      34.5  T
  10    -42.6041364 -0.100368E-08  0.243E-04    0.71      82.4  T
     SCC iter.                  ...        0 min,  0.013 sec
     gradient                   ...        0 min,  0.012 sec
 * total energy  :   -41.9868397 Eh     change       -0.3828781E-01 Eh
   gradient norm :     0.1442870 Eh/α   predicted    -0.3451978E-01 (  -9.84%)
   displ. norm   :     0.3340174 α      lambda       -0.2751972E-01
   maximum displ.:     0.1819320 α      in ANC's #16, #19, #6, ...

........................................................................
.............................. CYCLE   10 ..............................
........................................................................

 iter      E             dE          RMSdq      gap      omega  full diag
   1    -42.6209366 -0.426209E+02  0.382E-01    0.82       0.0  T
   2    -42.6191744  0.176217E-02  0.313E-01    0.64       1.0  T
   3    -42.6113632  0.781118E-02  0.531E-01    1.03       1.0  T
   4    -42.6208343 -0.947107E-02  0.145E-01    0.74       1.0  T
   5    -42.6214912 -0.656868E-03  0.541E-02    0.77       1.0  T
   6    -42.6215924 -0.101248E-03  0.118E-02    0.77       1.7  T
   7    -42.6215944 -0.194882E-05  0.568E-03    0.76       3.5  T
   8    -42.6215946 -0.191620E-06  0.177E-03    0.76      11.3  T
   9    -42.6215947 -0.990979E-07  0.470E-04    0.76      42.5  T
  10    -42.6215946  0.187096E-08  0.325E-04    0.76      61.6  T
     SCC iter.                  ...        0 min,  0.013 sec
     gradient                   ...        0 min,  0.011 sec
 * total energy  :   -42.0087892 Eh     change       -0.2194946E-01 Eh
   gradient norm :     0.1189519 Eh/α   predicted    -0.1529516E-01 ( -30.32%)
   displ. norm   :     0.4901467 α      lambda       -0.3437528E-01
   maximum displ.:     0.2526205 α      in ANC's #16, #19, #44, ...

........................................................................
.............................. CYCLE   11 ..............................
........................................................................

 iter      E             dE          RMSdq      gap      omega  full diag
   1    -42.6202622 -0.426203E+02  0.526E-01    0.93       0.0  T
   2    -42.6085093  0.117529E-01  0.593E-01    0.58       1.0  T
   3    -42.6020204  0.648893E-02  0.754E-01    1.20       1.0  T
   4    -42.6209952 -0.189749E-01  0.130E-01    0.88       1.0  T
   5    -42.6212822 -0.286980E-03  0.545E-02    0.86       1.0  T
   6    -42.6213749 -0.926738E-04  0.227E-02    0.85       1.0  T
   7    -42.6213841 -0.925535E-05  0.896E-03    0.85       2.2  T
   8    -42.6213853 -0.120710E-05  0.194E-03    0.85      10.3  T
   9    -42.6213853 -0.315428E-08  0.152E-03    0.85      13.2  T
  10    -42.6213854 -0.679670E-07  0.327E-04    0.85      61.1  T
  11    -42.6213854 -0.215202E-09  0.183E-04    0.85     109.6  T
     SCC iter.                  ...        0 min,  0.015 sec
     gradient                   ...        0 min,  0.011 sec
 * total energy  :   -42.0332388 Eh     change       -0.2444964E-01 Eh
   gradient norm :     0.1177529 Eh/α   predicted    -0.2131687E-01 ( -12.81%)
   displ. norm   :     0.6861766 α      lambda       -0.2918458E-01
   maximum displ.:     0.4699399 α      in ANC's #1, #16, #19, ...

........................................................................
.............................. CYCLE   12 ..............................
........................................................................

 iter      E             dE          RMSdq      gap      omega  full diag
   1    -42.5975664 -0.425976E+02  0.643E-01    0.96       0.0  T
   2    -42.5588144  0.387520E-01  0.102E+00    0.41       1.0  T
   3    -42.5808367 -0.220223E-01  0.767E-01    1.23       1.0  T
   4    -42.5990983 -0.182616E-01  0.146E-01    0.93       1.0  T
   5    -42.5996361 -0.537731E-03  0.585E-02    0.90       1.0  T
   6    -42.5997089 -0.728278E-04  0.271E-02    0.89       1.0  T
   7    -42.5997248 -0.159444E-04  0.115E-02    0.87       1.7  T
   8    -42.5997303 -0.544659E-05  0.262E-03    0.88       7.6  T
   9    -42.5997301  0.127439E-06  0.251E-03    0.88       8.0  T
  10    -42.5997303 -0.188726E-06  0.444E-04    0.88      45.1  T
  11    -42.5997303  0.104089E-08  0.280E-04    0.88      71.4  T
     SCC iter.                  ...        0 min,  0.015 sec
     gradient                   ...        0 min,  0.012 sec
 * total energy  :   -42.0369129 Eh     change       -0.3674137E-02 Eh
   gradient norm :     0.1602895 Eh/α   predicted    -0.2146294E-01 ( 484.16%)
   displ. norm   :     0.5176948 α      lambda       -0.3205954E-01
   maximum displ.:     0.4206050 α      in ANC's #1, #16, #44, ...

........................................................................
.............................. CYCLE   13 ..............................
........................................................................

 iter      E             dE          RMSdq      gap      omega  full diag
   1    -42.6079210 -0.426079E+02  0.412E-01    0.88       0.0  T
   2    -42.6079962 -0.752306E-04  0.244E-01    0.88       1.0  T
   3    -42.6066254  0.137079E-02  0.220E-01    0.95       1.0  T
   4    -42.6053931  0.123235E-02  0.251E-01    0.76       1.0  T
   5    -42.6080738 -0.268073E-02  0.359E-02    0.90       1.0  T
   6    -42.6081125 -0.386764E-04  0.135E-02    0.89       1.5  T
   7    -42.6081150 -0.253178E-05  0.687E-03    0.89       2.9  T
   8    -42.6081162 -0.119289E-05  0.215E-03    0.88       9.3  T
   9    -42.6081163 -0.749944E-07  0.832E-04    0.88      24.0  T
  10    -42.6081163 -0.139680E-07  0.233E-04    0.88      85.9  T
     SCC iter.                  ...        0 min,  0.014 sec
     gradient                   ...        0 min,  0.012 sec
 * total energy  :   -42.0523570 Eh     change       -0.1544411E-01 Eh
   gradient norm :     0.0830673 Eh/α   predicted    -0.2032591E-01 (  31.61%)
   displ. norm   :     0.1329035 α      lambda       -0.7135464E-02
   maximum displ.:     0.0629611 α      in ANC's #1, #44, #48, ...

........................................................................
.............................. CYCLE   14 ..............................
........................................................................

 iter      E             dE          RMSdq      gap      omega  full diag
   1    -42.6320965 -0.426321E+02  0.154E-01    0.90       0.0  T
   2    -42.6321632 -0.667415E-04  0.944E-02    0.90       1.0  T
   3    -42.6321245  0.387125E-04  0.678E-02    0.88       1.0  T
   4    -42.6315455  0.579022E-03  0.125E-01    0.96       1.0  T
   5    -42.6321745 -0.629061E-03  0.253E-02    0.89       1.0  T
   6    -42.6321954 -0.208825E-04  0.711E-03    0.90       2.8  T
   7    -42.6321952  0.243811E-06  0.612E-03    0.89       3.3  T
   8    -42.6321962 -0.105923E-05  0.194E-03    0.90      10.3  T
   9    -42.6321963 -0.103598E-06  0.479E-04    0.90      41.7  T
  10    -42.6321963 -0.318213E-08  0.120E-04    0.90     166.8  T
     SCC iter.                  ...        0 min,  0.013 sec
     gradient                   ...        0 min,  0.012 sec
 * total energy  :   -42.0568633 Eh     change       -0.4506235E-02 Eh
   gradient norm :     0.0536550 Eh/α   predicted    -0.3630778E-02 ( -19.43%)
   displ. norm   :     0.1449120 α      lambda       -0.5060474E-02
   maximum displ.:     0.0845649 α      in ANC's #16, #17, #19, ...

........................................................................
.............................. CYCLE   15 ..............................
........................................................................

 iter      E             dE          RMSdq      gap      omega  full diag
   1    -42.6471106 -0.426471E+02  0.109E-01    0.90       0.0  T
   2    -42.6470213  0.893654E-04  0.781E-02    0.93       1.0  T
   3    -42.6458453  0.117596E-02  0.189E-01    0.82       1.0  T
   4    -42.6471418 -0.129653E-02  0.310E-02    0.90       1.0  T
   5    -42.6471523 -0.104811E-04  0.128E-02    0.90       1.6  T
   6    -42.6471558 -0.345396E-05  0.570E-03    0.90       3.5  T
   7    -42.6471562 -0.470004E-06  0.373E-03    0.90       5.4  T
   8    -42.6471566 -0.339430E-06  0.117E-03    0.90      17.0  T
   9    -42.6471566 -0.417521E-07  0.198E-04    0.90     100.8  T
  10    -42.6471566 -0.242238E-09  0.792E-05    0.90     252.5  T
     SCC iter.                  ...        0 min,  0.014 sec
     gradient                   ...        0 min,  0.012 sec
 * total energy  :   -42.0609733 Eh     change       -0.4110045E-02 Eh
   gradient norm :     0.0496258 Eh/α   predicted    -0.2583360E-02 ( -37.15%)
   displ. norm   :     0.3321883 α      lambda       -0.8055403E-02
   maximum displ.:     0.1972690 α      in ANC's #16, #17, #19, ...

........................................................................
.............................. CYCLE   16 ..............................
........................................................................

 iter      E             dE          RMSdq      gap      omega  full diag
   1    -42.6626887 -0.426627E+02  0.225E-01    0.90       0.0  T
   2    -42.6621842  0.504470E-03  0.172E-01    0.97       1.0  T
   3    -42.6565481  0.563610E-02  0.409E-01    0.72       1.0  T
   4    -42.6626785 -0.613031E-02  0.744E-02    0.91       1.0  T
   5    -42.6628135 -0.135014E-03  0.199E-02    0.91       1.0  T
   6    -42.6628241 -0.106724E-04  0.520E-03    0.91       3.8  T
   7    -42.6628237  0.436699E-06  0.474E-03    0.91       4.2  T
   8    -42.6628243 -0.565927E-06  0.147E-03    0.91      13.6  T
   9    -42.6628243 -0.571051E-07  0.406E-04    0.91      49.2  T
  10    -42.6628243 -0.279364E-08  0.232E-04    0.91      86.1  T
     SCC iter.                  ...        0 min,  0.013 sec
     gradient                   ...        0 min,  0.011 sec
 * total energy  :   -42.0665068 Eh     change       -0.5533436E-02 Eh
   gradient norm :     0.0540897 Eh/α   predicted    -0.4472107E-02 ( -19.18%)
   displ. norm   :     0.2673177 α      lambda       -0.4071060E-02
   maximum displ.:     0.1593756 α      in ANC's #16, #17, #19, ...

........................................................................
.............................. CYCLE   17 ..............................
........................................................................

 iter      E             dE          RMSdq      gap      omega  full diag
   1    -42.6640832 -0.426641E+02  0.167E-01    0.89       0.0  T
   2    -42.6633314  0.751814E-03  0.170E-01    0.99       1.0  T
   3    -42.6620900  0.124142E-02  0.242E-01    0.80       1.0  T
   4    -42.6640735 -0.198347E-02  0.569E-02    0.90       1.0  T
   5    -42.6641738 -0.100357E-03  0.109E-02    0.91       1.8  T
   6    -42.6641760 -0.222352E-05  0.486E-03    0.91       4.1  T
   7    -42.6641764 -0.330053E-06  0.214E-03    0.91       9.4  T
   8    -42.6641764 -0.537906E-07  0.873E-04    0.91      22.9  T
   9    -42.6641764 -0.175889E-07  0.309E-04    0.91      64.7  T
     SCC iter.                  ...        0 min,  0.012 sec
     gradient                   ...        0 min,  0.011 sec
 * total energy  :   -42.0695646 Eh     change       -0.3057794E-02 Eh
   gradient norm :     0.0497817 Eh/α   predicted    -0.2181032E-02 ( -28.67%)
   displ. norm   :     0.2519310 α      lambda       -0.3783400E-02
   maximum displ.:     0.1387646 α      in ANC's #17, #16, #19, ...

........................................................................
.............................. CYCLE   18 ..............................
........................................................................

 iter      E             dE          RMSdq      gap      omega  full diag
   1    -42.6625134 -0.426625E+02  0.161E-01    0.88       0.0  T
   2    -42.6605050  0.200850E-02  0.249E-01    1.03       1.0  T
   3    -42.6619788 -0.147382E-02  0.159E-01    0.84       1.0  T
   4    -42.6626457 -0.666887E-03  0.573E-02    0.90       1.0  T
   5    -42.6627237 -0.780256E-04  0.171E-02    0.91       1.2  T
   6    -42.6627314 -0.773984E-05  0.625E-03    0.91       3.2  T
   7    -42.6627321 -0.661481E-06  0.244E-03    0.91       8.2  T
   8    -42.6627321 -0.121861E-07  0.106E-03    0.91      18.9  T
   9    -42.6627321 -0.279476E-07  0.268E-04    0.91      74.5  T
  10    -42.6627321 -0.924729E-09  0.129E-04    0.91     155.0  T
     SCC iter.                  ...        0 min,  0.013 sec
     gradient                   ...        0 min,  0.012 sec
 * total energy  :   -42.0722962 Eh     change       -0.2731607E-02 Eh
   gradient norm :     0.0398722 Eh/α   predicted    -0.2011771E-02 ( -26.35%)
   displ. norm   :     0.1874477 α      lambda       -0.2772189E-02
   maximum displ.:     0.1141131 α      in ANC's #17, #16, #11, ...

........................................................................
.............................. CYCLE   19 ..............................
........................................................................

 iter      E             dE          RMSdq      gap      omega  full diag
   1    -42.6609425 -0.426609E+02  0.128E-01    0.88       0.0  T
   2    -42.6599700  0.972443E-03  0.183E-01    1.00       1.0  T
   3    -42.6605047 -0.534685E-03  0.136E-01    0.85       1.0  T
   4    -42.6610584 -0.553713E-03  0.461E-02    0.91       1.0  T
   5    -42.6610885 -0.300449E-04  0.191E-02    0.91       1.0  T
   6    -42.6611001 -0.116243E-04  0.538E-03    0.91       3.7  T
   7    -42.6611005 -0.438484E-06  0.232E-03    0.91       8.6  T
   8    -42.6611006 -0.537641E-07  0.562E-04    0.91      35.6  T
   9    -42.6611006 -0.350968E-08  0.215E-04    0.91      93.1  T
     SCC iter.                  ...        0 min,  0.012 sec
     gradient                   ...        0 min,  0.012 sec
 * total energy  :   -42.0742847 Eh     change       -0.1988584E-02 Eh
   gradient norm :     0.0356425 Eh/α   predicted    -0.1434868E-02 ( -27.84%)
   displ. norm   :     0.1396808 α      lambda       -0.2089266E-02
   maximum displ.:     0.0830843 α      in ANC's #17, #11, #25, ...

........................................................................
.............................. CYCLE   20 ..............................
........................................................................

 iter      E             dE          RMSdq      gap      omega  full diag
   1    -42.6609027 -0.426609E+02  0.115E-01    0.90       0.0  T
   2    -42.6609051 -0.244953E-05  0.791E-02    0.93       1.0  T
   3    -42.6603491  0.556003E-03  0.127E-01    0.85       1.0  T
   4    -42.6607321 -0.382992E-03  0.836E-02    0.95       1.0  T
   5    -42.6609618 -0.229743E-03  0.147E-02    0.92       1.4  T
   6    -42.6609688 -0.693805E-05  0.467E-03    0.91       4.3  T
   7    -42.6609691 -0.296670E-06  0.239E-03    0.91       8.4  T
   8    -42.6609692 -0.110231E-06  0.385E-04    0.91      51.9  T
   9    -42.6609692 -0.821387E-09  0.214E-04    0.91      93.7  T
     SCC iter.                  ...        0 min,  0.012 sec
     gradient                   ...        0 min,  0.012 sec
 * total energy  :   -42.0757743 Eh     change       -0.1489557E-02 Eh
   gradient norm :     0.0341455 Eh/α   predicted    -0.1065055E-02 ( -28.50%)
   displ. norm   :     0.1070954 α      lambda       -0.1559830E-02
   maximum displ.:     0.0530273 α      in ANC's #17, #11, #15, ...
 * RMSD in coord.:     1.0175051 α      energy gain  -0.8697786E+01 Eh

generating ANC from model Hessian ...
Using Lindh-Hessian (1995)
 Shifting diagonal of input Hessian by    1.0223092540264730E-002
 Lowest  eigenvalues of input Hessian
    0.010000    0.000000    0.000000    0.000000    0.000000    0.000000
    0.000000    0.010366    0.010738    0.010849    0.011376    0.011983
    0.012018    0.012541    0.012661    0.014138    0.015747    0.020530
 Highest eigenvalues
    2.105103    2.189479    2.213024    2.311908    2.697816    3.135697


........................................................................
.............................. CYCLE   21 ..............................
........................................................................

 iter      E             dE          RMSdq      gap      omega  full diag
   1    -42.6617251 -0.426617E+02  0.112E-01    0.93       0.0  T
   2    -42.6612632  0.461925E-03  0.123E-01    0.86       1.0  T
   3    -42.6608292  0.434020E-03  0.167E-01    1.00       1.0  T
   4    -42.6617656 -0.936406E-03  0.217E-02    0.92       1.0  T
   5    -42.6617719 -0.627567E-05  0.615E-03    0.92       3.3  T
   6    -42.6617726 -0.693654E-06  0.286E-03    0.92       7.0  T
   7    -42.6617726 -0.932381E-09  0.201E-03    0.92      10.0  T
   8    -42.6617727 -0.121261E-06  0.642E-04    0.92      31.1  T
   9    -42.6617727 -0.925418E-08  0.137E-04    0.92     145.9  T
     SCC iter.                  ...        0 min,  0.012 sec
     gradient                   ...        0 min,  0.012 sec
 * total energy  :   -42.0768758 Eh     change       -0.1101472E-02 Eh
   gradient norm :     0.0293817 Eh/α   predicted     0.0000000E+00 (-100.00%)
   displ. norm   :     0.2080735 α      lambda       -0.2773285E-02
   maximum displ.:     0.1005885 α      in ANC's #2, #21, #18, ...

........................................................................
.............................. CYCLE   22 ..............................
........................................................................

 iter      E             dE          RMSdq      gap      omega  full diag
   1    -42.6676924 -0.426677E+02  0.180E-01    0.94       0.0  T
   2    -42.6658287  0.186362E-02  0.235E-01    0.80       1.0  T
   3    -42.6659667 -0.138005E-03  0.241E-01    1.02       1.0  T
   4    -42.6677556 -0.178889E-02  0.451E-02    0.92       1.0  T
   5    -42.6678252 -0.695912E-04  0.882E-03    0.91       2.3  T
   6    -42.6678261 -0.886750E-06  0.545E-03    0.92       3.7  T
   7    -42.6678267 -0.641488E-06  0.221E-03    0.91       9.1  T
   8    -42.6678268 -0.621333E-07  0.632E-04    0.91      31.6  T
   9    -42.6678268 -0.452071E-08  0.277E-04    0.91      72.3  T
     SCC iter.                  ...        0 min,  0.012 sec
     gradient                   ...        0 min,  0.012 sec
 * total energy  :   -42.0789166 Eh     change       -0.2040833E-02 Eh
   gradient norm :     0.0183680 Eh/α   predicted    -0.1446822E-02 ( -29.11%)
   displ. norm   :     0.3733461 α      lambda       -0.2560084E-02
   maximum displ.:     0.2044855 α      in ANC's #2, #17, #18, ...

........................................................................
.............................. CYCLE   23 ..............................
........................................................................

 iter      E             dE          RMSdq      gap      omega  full diag
   1    -42.6726161 -0.426726E+02  0.265E-01    0.93       0.0  T
   2    -42.6706160  0.200002E-02  0.268E-01    0.78       1.0  T
   3    -42.6672734  0.334266E-02  0.404E-01    1.10       1.0  T
   4    -42.6726132 -0.533981E-02  0.726E-02    0.91       1.0  T
   5    -42.6727956 -0.182369E-03  0.118E-02    0.90       1.7  T
   6    -42.6727980 -0.247453E-05  0.570E-03    0.90       3.5  T
   7    -42.6727985 -0.477003E-06  0.226E-03    0.90       8.9  T
   8    -42.6727985 -0.224650E-07  0.844E-04    0.90      23.7  T
   9    -42.6727985 -0.660889E-08  0.504E-04    0.90      39.7  T
     SCC iter.                  ...        0 min,  0.013 sec
     gradient                   ...        0 min,  0.012 sec
 * total energy  :   -42.0807228 Eh     change       -0.1806203E-02 Eh
   gradient norm :     0.0224181 Eh/α   predicted    -0.1458464E-02 ( -19.25%)
   displ. norm   :     0.4548329 α      lambda       -0.2431747E-02
   maximum displ.:     0.2501338 α      in ANC's #2, #17, #18, ...

........................................................................
.............................. CYCLE   24 ..............................
........................................................................

 iter      E             dE          RMSdq      gap      omega  full diag
   1    -42.6703152 -0.426703E+02  0.386E-01    0.95       0.0  T
   2    -42.6516096  0.187056E-01  0.721E-01    0.54       1.0  T
   3    -42.6655630 -0.139534E-01  0.448E-01    1.07       1.0  T
   4    -42.6707830 -0.521997E-02  0.126E-01    0.92       1.0  T
   5    -42.6713567 -0.573738E-03  0.223E-02    0.89       1.0  T
   6    -42.6713648 -0.812725E-05  0.100E-02    0.88       2.0  T
   7    -42.6713665 -0.163388E-05  0.347E-03    0.88       5.8  T
   8    -42.6713667 -0.242506E-06  0.100E-03    0.88      19.9  T
   9    -42.6713667 -0.105874E-07  0.606E-04    0.88      33.0  T
  10    -42.6713667 -0.740041E-08  0.168E-04    0.88     119.1  T
     SCC iter.                  ...        0 min,  0.014 sec
     gradient                   ...        0 min,  0.012 sec
 * total energy  :   -42.0824837 Eh     change       -0.1760933E-02 Eh
   gradient norm :     0.0367013 Eh/α   predicted    -0.1467405E-02 ( -16.67%)
   displ. norm   :     0.6500763 α      lambda       -0.4093159E-02
   maximum displ.:     0.3140896 α      in ANC's #2, #5, #17, ...

........................................................................
.............................. CYCLE   25 ..............................
........................................................................

 iter      E             dE          RMSdq      gap      omega  full diag
   1    -42.6558721 -0.426559E+02  0.599E-01    0.97       0.0  T
   2    -42.5598116  0.960605E-01  0.165E+00    0.12       1.0  T
   3    -42.6550633 -0.952517E-01  0.485E-01    1.01       1.0  T
   4    -42.6590823 -0.401904E-02  0.214E-01    0.88       1.0  T
   5    -42.6606619 -0.157957E-02  0.351E-02    0.84       1.0  T
   6    -42.6606830 -0.211212E-04  0.137E-02    0.83       1.5  T
   7    -42.6606845 -0.146012E-05  0.572E-03    0.83       3.5  T
   8    -42.6606850 -0.525730E-06  0.181E-03    0.83      11.1  T
   9    -42.6606851 -0.716409E-07  0.701E-04    0.83      28.5  T
  10    -42.6606851 -0.268489E-08  0.211E-04    0.83      95.0  T
     SCC iter.                  ...        0 min,  0.014 sec
     gradient                   ...        0 min,  0.012 sec
 * total energy  :   -42.0840325 Eh     change       -0.1548719E-02 Eh
   gradient norm :     0.0576157 Eh/α   predicted    -0.2911464E-02 (  87.99%)
   displ. norm   :     0.3288303 α      lambda       -0.5810340E-02
   maximum displ.:     0.2363228 α      in ANC's #9, #2, #4, ...

........................................................................
.............................. CYCLE   26 ..............................
........................................................................

 iter      E             dE          RMSdq      gap      omega  full diag
   1    -42.6774158 -0.426774E+02  0.203E-01    0.83       0.0  T
   2    -42.6760815  0.133434E-02  0.236E-01    0.72       1.0  T
   3    -42.6755256  0.555860E-03  0.245E-01    0.92       1.0  T
   4    -42.6775321 -0.200647E-02  0.529E-02    0.80       1.0  T
   5    -42.6775722 -0.401203E-04  0.151E-02    0.81       1.3  T
   6    -42.6775768 -0.461717E-05  0.605E-03    0.81       3.3  T
   7    -42.6775767  0.101083E-06  0.411E-03    0.81       4.9  T
   8    -42.6775772 -0.512789E-06  0.797E-04    0.81      25.1  T
   9    -42.6775772 -0.873294E-08  0.381E-04    0.81      52.5  T
     SCC iter.                  ...        0 min,  0.012 sec
     gradient                   ...        0 min,  0.012 sec
 * total energy  :   -42.0879518 Eh     change       -0.3919299E-02 Eh
   gradient norm :     0.0328647 Eh/α   predicted    -0.3219305E-02 ( -17.86%)
   displ. norm   :     0.3621388 α      lambda       -0.4483937E-02
   maximum displ.:     0.1480052 α      in ANC's #9, #18, #6, ...

........................................................................
.............................. CYCLE   27 ..............................
........................................................................

 iter      E             dE          RMSdq      gap      omega  full diag
   1    -42.6905335 -0.426905E+02  0.226E-01    0.82       0.0  T
   2    -42.6898397  0.693832E-03  0.177E-01    0.73       1.0  T
   3    -42.6847911  0.504861E-02  0.420E-01    1.00       1.0  T
   4    -42.6905989 -0.580782E-02  0.562E-02    0.82       1.0  T
   5    -42.6906608 -0.618970E-04  0.170E-02    0.81       1.2  T
   6    -42.6906674 -0.657873E-05  0.452E-03    0.81       4.4  T
   7    -42.6906673  0.629554E-07  0.240E-03    0.81       8.3  T
   8    -42.6906675 -0.160968E-06  0.626E-04    0.81      31.9  T
   9    -42.6906675 -0.687681E-08  0.289E-04    0.81      69.2  T
     SCC iter.                  ...        0 min,  0.012 sec
     gradient                   ...        0 min,  0.011 sec
 * total energy  :   -42.0912258 Eh     change       -0.3274020E-02 Eh
   gradient norm :     0.0310640 Eh/α   predicted    -0.2535990E-02 ( -22.54%)
   displ. norm   :     0.6509784 α      lambda       -0.4741805E-02
   maximum displ.:     0.3343575 α      in ANC's #9, #18, #12, ...

........................................................................
.............................. CYCLE   28 ..............................
........................................................................

 iter      E             dE          RMSdq      gap      omega  full diag
   1    -42.6825419 -0.426825E+02  0.387E-01    0.87       0.0  T
   2    -42.6344367  0.481052E-01  0.119E+00    0.27       1.0  T
   3    -42.6845815 -0.501447E-01  0.221E-01    0.84       1.0  T
   4    -42.6848850 -0.303543E-03  0.122E-01    0.77       1.0  T
   5    -42.6853380 -0.452997E-03  0.179E-02    0.77       1.1  T
   6    -42.6853402 -0.215911E-05  0.946E-03    0.77       2.1  T
   7    -42.6853415 -0.135607E-05  0.314E-03    0.77       6.4  T
   8    -42.6853417 -0.149397E-06  0.880E-04    0.77      22.7  T
   9    -42.6853417 -0.962890E-08  0.428E-04    0.77      46.7  T
     SCC iter.                  ...        0 min,  0.013 sec
     gradient                   ...        0 min,  0.012 sec
 * total energy  :   -42.0942390 Eh     change       -0.3013210E-02 Eh
   gradient norm :     0.0395410 Eh/α   predicted    -0.3375635E-02 (  12.03%)
   displ. norm   :     0.5307410 α      lambda       -0.5743540E-02
   maximum displ.:     0.2164626 α      in ANC's #12, #17, #14, ...

........................................................................
.............................. CYCLE   29 ..............................
........................................................................

 iter      E             dE          RMSdq      gap      omega  full diag
   1    -42.6899314 -0.426899E+02  0.332E-01    0.73       0.0  T
   2    -42.6798474  0.100840E-01  0.581E-01    1.03       1.0  T
   3    -42.6893929 -0.954542E-02  0.259E-01    0.68       1.0  T
   4    -42.6905351 -0.114220E-02  0.112E-01    0.81       1.0  T
   5    -42.6908952 -0.360139E-03  0.240E-02    0.78       1.0  T
   6    -42.6909081 -0.128597E-04  0.957E-03    0.77       2.1  T
   7    -42.6909091 -0.102360E-05  0.372E-03    0.77       5.4  T
   8    -42.6909092 -0.124131E-06  0.789E-04    0.78      25.4  T
   9    -42.6909092 -0.761219E-08  0.359E-04    0.78      55.7  T
     SCC iter.                  ...        0 min,  0.012 sec
     gradient                   ...        0 min,  0.010 sec
 * total energy  :   -42.0972410 Eh     change       -0.3002022E-02 Eh
   gradient norm :     0.0462663 Eh/α   predicted    -0.3680713E-02 (  22.61%)
   displ. norm   :     0.3646903 α      lambda       -0.3271181E-02
   maximum displ.:     0.1606957 α      in ANC's #12, #18, #14, ...

........................................................................
.............................. CYCLE   30 ..............................
........................................................................

 iter      E             dE          RMSdq      gap      omega  full diag
   1    -42.6852391 -0.426852E+02  0.304E-01    0.83       0.0  T
   2    -42.6692846  0.159545E-01  0.684E-01    0.48       1.0  T
   3    -42.6838772 -0.145926E-01  0.304E-01    0.90       1.0  T
   4    -42.6858712 -0.199401E-02  0.111E-01    0.79       1.0  T
   5    -42.6862260 -0.354801E-03  0.217E-02    0.78       1.0  T
   6    -42.6862370 -0.110282E-04  0.818E-03    0.77       2.4  T
   7    -42.6862386 -0.160176E-05  0.283E-03    0.77       7.1  T
   8    -42.6862387 -0.856315E-07  0.983E-04    0.77      20.4  T
   9    -42.6862387 -0.222928E-07  0.311E-04    0.77      64.3  T
     SCC iter.                  ...        0 min,  0.013 sec
     gradient                   ...        0 min,  0.012 sec
 * total energy  :   -42.0996391 Eh     change       -0.2398079E-02 Eh
   gradient norm :     0.0324011 Eh/α   predicted    -0.1853124E-02 ( -22.72%)
   displ. norm   :     0.3652499 α      lambda       -0.3633771E-02
   maximum displ.:     0.1736335 α      in ANC's #12, #14, #9, ...

........................................................................
.............................. CYCLE   31 ..............................
........................................................................

 iter      E             dE          RMSdq      gap      omega  full diag
   1    -42.6849373 -0.426849E+02  0.268E-01    0.79       0.0  T
   2    -42.6834935  0.144383E-02  0.261E-01    0.69       1.0  T
   3    -42.6803282  0.316532E-02  0.386E-01    0.96       1.0  T
   4    -42.6850362 -0.470802E-02  0.715E-02    0.76       1.0  T
   5    -42.6851508 -0.114581E-03  0.150E-02    0.78       1.3  T
   6    -42.6851570 -0.623418E-05  0.608E-03    0.78       3.3  T
   7    -42.6851576 -0.633505E-06  0.273E-03    0.78       7.3  T
   8    -42.6851577 -0.518307E-07  0.968E-04    0.78      20.7  T
   9    -42.6851577 -0.193214E-07  0.298E-04    0.78      67.2  T
     SCC iter.                  ...        0 min,  0.012 sec
     gradient                   ...        0 min,  0.012 sec
 * total energy  :   -42.1016455 Eh     change       -0.2006385E-02 Eh
   gradient norm :     0.0279394 Eh/α   predicted    -0.2059274E-02 (   2.64%)
   displ. norm   :     0.3682606 α      lambda       -0.1581274E-02
   maximum displ.:     0.2146336 α      in ANC's #12, #14, #9, ...

........................................................................
.............................. CYCLE   32 ..............................
........................................................................

 iter      E             dE          RMSdq      gap      omega  full diag
   1    -42.6806747 -0.426807E+02  0.243E-01    0.82       0.0  T
   2    -42.6707282  0.994654E-02  0.553E-01    0.53       1.0  T
   3    -42.6804855 -0.975729E-02  0.190E-01    0.85       1.0  T
   4    -42.6811779 -0.692384E-03  0.604E-02    0.77       1.0  T
   5    -42.6812783 -0.100449E-03  0.133E-02    0.77       1.5  T
   6    -42.6812834 -0.505849E-05  0.396E-03    0.77       5.1  T
   7    -42.6812834 -0.804190E-07  0.202E-03    0.77       9.9  T
   8    -42.6812835 -0.639780E-07  0.812E-04    0.77      24.6  T
   9    -42.6812835 -0.166359E-07  0.264E-04    0.77      75.7  T
     SCC iter.                  ...        0 min,  0.012 sec
     gradient                   ...        0 min,  0.012 sec
 * total energy  :   -42.1025432 Eh     change       -0.8977279E-03 Eh
   gradient norm :     0.0271543 Eh/α   predicted    -0.8978600E-03 (   0.01%)
   displ. norm   :     0.2116219 α      lambda       -0.1642379E-02
   maximum displ.:     0.1005572 α      in ANC's #12, #14, #6, ...

........................................................................
.............................. CYCLE   33 ..............................
........................................................................

 iter      E             dE          RMSdq      gap      omega  full diag
   1    -42.6863847 -0.426864E+02  0.204E-01    0.80       0.0  T
   2    -42.6857946  0.590190E-03  0.168E-01    0.72       1.0  T
   3    -42.6830156  0.277894E-02  0.339E-01    0.94       1.0  T
   4    -42.6864292 -0.341354E-02  0.516E-02    0.78       1.0  T
   5    -42.6864918 -0.626465E-04  0.210E-02    0.79       1.0  T
   6    -42.6865063 -0.144679E-04  0.554E-03    0.78       3.6  T
   7    -42.6865069 -0.621142E-06  0.135E-03    0.78      14.8  T
   8    -42.6865069 -0.812262E-08  0.505E-04    0.78      39.6  T
   9    -42.6865069 -0.475334E-08  0.207E-04    0.78      96.4  T
     SCC iter.                  ...        0 min,  0.013 sec
     gradient                   ...        0 min,  0.012 sec
 * total energy  :   -42.1035350 Eh     change       -0.9918127E-03 Eh
   gradient norm :     0.0224662 Eh/α   predicted    -0.8579697E-03 ( -13.49%)
   displ. norm   :     0.2382157 α      lambda       -0.1083479E-02
   maximum displ.:     0.1120699 α      in ANC's #12, #9, #18, ...

........................................................................
.............................. CYCLE   34 ..............................
........................................................................

 iter      E             dE          RMSdq      gap      omega  full diag
   1    -42.6895716 -0.426896E+02  0.119E-01    0.79       0.0  T
   2    -42.6888671  0.704492E-03  0.168E-01    0.71       1.0  T
   3    -42.6893810 -0.513897E-03  0.983E-02    0.82       1.0  T
   4    -42.6896268 -0.245776E-03  0.212E-02    0.77       1.0  T
   5    -42.6896324 -0.562369E-05  0.575E-03    0.78       3.5  T
   6    -42.6896328 -0.416431E-06  0.321E-03    0.78       6.2  T
   7    -42.6896329 -0.104310E-06  0.150E-03    0.78      13.3  T
   8    -42.6896330 -0.715100E-07  0.270E-04    0.78      74.1  T
   9    -42.6896330 -0.338908E-09  0.134E-04    0.78     149.7  T
     SCC iter.                  ...        0 min,  0.012 sec
     gradient                   ...        0 min,  0.012 sec
 * total energy  :   -42.1041558 Eh     change       -0.6207354E-03 Eh
   gradient norm :     0.0194367 Eh/α   predicted    -0.5724848E-03 (  -7.77%)
   displ. norm   :     0.1945297 α      lambda       -0.7360227E-03
   maximum displ.:     0.0863645 α      in ANC's #12, #2, #18, ...

........................................................................
.............................. CYCLE   35 ..............................
........................................................................

 iter      E             dE          RMSdq      gap      omega  full diag
   1    -42.6866522 -0.426867E+02  0.158E-01    0.79       0.0  T
   2    -42.6862660  0.386196E-03  0.128E-01    0.73       1.0  T
   3    -42.6843671  0.189896E-02  0.279E-01    0.91       1.0  T
   4    -42.6866632 -0.229614E-02  0.328E-02    0.79       1.0  T
   5    -42.6866926 -0.293571E-04  0.106E-02    0.78       1.9  T
   6    -42.6866962 -0.365455E-05  0.214E-03    0.78       9.3  T
   7    -42.6866963 -0.245709E-07  0.109E-03    0.78      18.3  T
   8    -42.6866963 -0.154366E-07  0.422E-04    0.78      47.4  T
   9    -42.6866963 -0.294313E-08  0.126E-04    0.78     159.3  T
     SCC iter.                  ...        0 min,  0.012 sec
     gradient                   ...        0 min,  0.012 sec
 * total energy  :   -42.1046205 Eh     change       -0.4647024E-03 Eh
   gradient norm :     0.0134693 Eh/α   predicted    -0.3819386E-03 ( -17.81%)
   displ. norm   :     0.1872474 α      lambda       -0.5357942E-03
   maximum displ.:     0.1286556 α      in ANC's #2, #18, #6, ...

........................................................................
.............................. CYCLE   36 ..............................
........................................................................

 iter      E             dE          RMSdq      gap      omega  full diag
   1    -42.6871923 -0.426872E+02  0.141E-01    0.81       0.0  T
   2    -42.6848211  0.237120E-02  0.267E-01    0.66       1.0  T
   3    -42.6867195 -0.189834E-02  0.157E-01    0.85       1.0  T
   4    -42.6873204 -0.600968E-03  0.283E-02    0.79       1.0  T
   5    -42.6873441 -0.236633E-04  0.611E-03    0.79       3.3  T
   6    -42.6873450 -0.881127E-06  0.217E-03    0.78       9.2  T
   7    -42.6873450 -0.848878E-07  0.103E-03    0.78      19.5  T
   8    -42.6873451 -0.831226E-08  0.380E-04    0.78      52.7  T
   9    -42.6873451 -0.215196E-08  0.112E-04    0.78     179.0  T
     SCC iter.                  ...        0 min,  0.012 sec
     gradient                   ...        0 min,  0.011 sec
 * total energy  :   -42.1049909 Eh     change       -0.3704840E-03 Eh
   gradient norm :     0.0134316 Eh/α   predicted    -0.2772940E-03 ( -25.15%)
   displ. norm   :     0.1925676 α      lambda       -0.4478498E-03
   maximum displ.:     0.1407699 α      in ANC's #2, #12, #1, ...

........................................................................
.............................. CYCLE   37 ..............................
........................................................................

 iter      E             dE          RMSdq      gap      omega  full diag
   1    -42.6853204 -0.426853E+02  0.128E-01    0.82       0.0  T
   2    -42.6836307  0.168970E-02  0.231E-01    0.69       1.0  T
   3    -42.6849719 -0.134123E-02  0.134E-01    0.85       1.0  T
   4    -42.6854237 -0.451791E-03  0.200E-02    0.79       1.0  T
   5    -42.6854332 -0.951766E-05  0.519E-03    0.79       3.9  T
   6    -42.6854339 -0.707127E-06  0.206E-03    0.79       9.7  T
   7    -42.6854340 -0.463535E-07  0.838E-04    0.79      23.9  T
   8    -42.6854340 -0.125021E-08  0.332E-04    0.79      60.3  T
     SCC iter.                  ...        0 min,  0.011 sec
     gradient                   ...        0 min,  0.012 sec
 * total energy  :   -42.1052998 Eh     change       -0.3088706E-03 Eh
   gradient norm :     0.0105310 Eh/α   predicted    -0.2322309E-03 ( -24.81%)
   displ. norm   :     0.1852872 α      lambda       -0.3294106E-03
   maximum displ.:     0.1442610 α      in ANC's #2, #1, #13, ...

........................................................................
.............................. CYCLE   38 ..............................
........................................................................

 iter      E             dE          RMSdq      gap      omega  full diag
   1    -42.6844304 -0.426844E+02  0.122E-01    0.82       0.0  T
   2    -42.6833719  0.105845E-02  0.183E-01    0.72       1.0  T
   3    -42.6838881 -0.516179E-03  0.152E-01    0.87       1.0  T
   4    -42.6844973 -0.609197E-03  0.169E-02    0.80       1.2  T
   5    -42.6845043 -0.704486E-05  0.551E-03    0.80       3.6  T
   6    -42.6845052 -0.913013E-06  0.210E-03    0.80       9.5  T
   7    -42.6845053 -0.512211E-07  0.814E-04    0.80      24.6  T
   8    -42.6845053 -0.144498E-08  0.317E-04    0.80      63.1  T
     SCC iter.                  ...        0 min,  0.011 sec
     gradient                   ...        0 min,  0.013 sec
 * total energy  :   -42.1055322 Eh     change       -0.2323428E-03 Eh
   gradient norm :     0.0080030 Eh/α   predicted    -0.1703616E-03 ( -26.68%)
   displ. norm   :     0.2594758 α      lambda       -0.3241416E-03
   maximum displ.:     0.1930199 α      in ANC's #2, #13, #1, ...

........................................................................
.............................. CYCLE   39 ..............................
........................................................................

 iter      E             dE          RMSdq      gap      omega  full diag
   1    -42.6805544 -0.426806E+02  0.175E-01    0.85       0.0  T
   2    -42.6785471  0.200729E-02  0.260E-01    0.70       1.0  T
   3    -42.6795578 -0.101061E-02  0.208E-01    0.91       1.0  T
   4    -42.6806837 -0.112593E-02  0.343E-02    0.82       1.0  T
   5    -42.6807175 -0.337868E-04  0.894E-03    0.82       2.2  T
   6    -42.6807201 -0.262362E-05  0.324E-03    0.82       6.2  T
   7    -42.6807202 -0.951077E-07  0.149E-03    0.82      13.4  T
   8    -42.6807202 -0.162203E-07  0.555E-04    0.82      36.0  T
   9    -42.6807202 -0.488398E-08  0.236E-04    0.82      84.6  T
     SCC iter.                  ...        0 min,  0.012 sec
     gradient                   ...        0 min,  0.011 sec
 * total energy  :   -42.1057667 Eh     change       -0.2345638E-03 Eh
   gradient norm :     0.0111573 Eh/α   predicted    -0.1729862E-03 ( -26.25%)
   displ. norm   :     0.4189301 α      lambda       -0.4711856E-03
   maximum displ.:     0.2992833 α      in ANC's #2, #13, #1, ...

........................................................................
.............................. CYCLE   40 ..............................
........................................................................

 iter      E             dE          RMSdq      gap      omega  full diag
   1    -42.6769450 -0.426769E+02  0.239E-01    0.88       0.0  T
   2    -42.6758133  0.113166E-02  0.226E-01    0.76       1.0  T
   3    -42.6737477  0.206564E-02  0.348E-01    1.02       1.0  T
   4    -42.6771121 -0.336444E-02  0.559E-02    0.85       1.0  T
   5    -42.6771843 -0.722484E-04  0.206E-02    0.86       1.0  T
   6    -42.6771980 -0.136128E-04  0.563E-03    0.85       3.6  T
   7    -42.6771983 -0.345531E-06  0.302E-03    0.85       6.6  T
   8    -42.6771984 -0.116829E-06  0.878E-04    0.85      22.8  T
   9    -42.6771984 -0.542321E-08  0.468E-04    0.85      42.7  T
     SCC iter.                  ...        0 min,  0.012 sec
     gradient                   ...        0 min,  0.011 sec
 * total energy  :   -42.1062003 Eh     change       -0.4335940E-03 Eh
   gradient norm :     0.0184699 Eh/α   predicted    -0.2769450E-03 ( -36.13%)
   displ. norm   :     0.8748189 α      lambda       -0.1137869E-02
   maximum displ.:     0.5984197 α      in ANC's #2, #13, #1, ...

........................................................................
.............................. CYCLE   41 ..............................
........................................................................

 iter      E             dE          RMSdq      gap      omega  full diag
   1    -42.6615936 -0.426616E+02  0.582E-01    1.00       0.0  T
   2    -42.6591849  0.240870E-02  0.472E-01    0.84       1.0  T
   3    -42.6503483  0.883663E-02  0.713E-01    1.33       1.0  T
   4    -42.6635201 -0.131718E-01  0.156E-01    0.94       1.0  T
   5    -42.6638818 -0.361668E-03  0.786E-02    1.01       1.0  T
   6    -42.6640719 -0.190042E-03  0.152E-02    0.98       1.3  T
   7    -42.6640745 -0.262040E-05  0.788E-03    0.98       2.5  T
   8    -42.6640750 -0.512162E-06  0.219E-03    0.98       9.1  T
   9    -42.6640751 -0.640966E-07  0.108E-03    0.98      18.5  T
  10    -42.6640751 -0.130277E-07  0.506E-04    0.98      39.5  T
  11    -42.6640751 -0.138797E-09  0.228E-04    0.98      87.7  T
     SCC iter.                  ...        0 min,  0.015 sec
     gradient                   ...        0 min,  0.012 sec
 * total energy  :   -42.1077086 Eh     change       -0.1508271E-02 Eh
   gradient norm :     0.0401935 Eh/α   predicted    -0.1004350E-02 ( -33.41%)
   displ. norm   :     0.7492931 α      lambda       -0.2497938E-02
   maximum displ.:     0.5043387 α      in ANC's #2, #13, #1, ...

........................................................................
.............................. CYCLE   42 ..............................
........................................................................

 iter      E             dE          RMSdq      gap      omega  full diag
   1    -42.6481150 -0.426481E+02  0.596E-01    1.14       0.0  T
   2    -42.6494054 -0.129043E-02  0.447E-01    1.01       1.0  T
   3    -42.6463357  0.306971E-02  0.496E-01    1.36       1.0  T
   4    -42.6495057 -0.316993E-02  0.298E-01    1.02       1.0  T
   5    -42.6518052 -0.229958E-02  0.111E-01    1.16       1.0  T
   6    -42.6521380 -0.332810E-03  0.183E-02    1.14       1.1  T
   7    -42.6521422 -0.412309E-05  0.964E-03    1.14       2.1  T
   8    -42.6521428 -0.654426E-06  0.304E-03    1.14       6.6  T
   9    -42.6521429 -0.131656E-06  0.122E-03    1.14      16.4  T
  10    -42.6521430 -0.139392E-07  0.673E-04    1.14      29.7  T
  11    -42.6521430 -0.283206E-08  0.252E-04    1.14      79.4  T
     SCC iter.                  ...        0 min,  0.015 sec
     gradient                   ...        0 min,  0.012 sec
 * total energy  :   -42.1110659 Eh     change       -0.3357319E-02 Eh
   gradient norm :     0.0627338 Eh/α   predicted    -0.1950192E-02 ( -41.91%)
   displ. norm   :     0.5081846 α      lambda       -0.4696252E-02
   maximum displ.:     0.3225669 α      in ANC's #2, #13, #5, ...
 * RMSD in coord.:     1.1501036 α      energy gain  -0.3529160E-01 Eh

generating ANC from model Hessian ...
Using Lindh-Hessian (1995)
 Shifting diagonal of input Hessian by    9.8610666392915606E-003
 Lowest  eigenvalues of input Hessian
    0.000000    0.000000    0.000000    0.000000    0.000000    0.000000
    0.010000    0.010379    0.010535    0.010633    0.010852    0.012945
    0.014589    0.015896    0.019622    0.021307    0.021609    0.026699
 Highest eigenvalues
    2.121872    2.149030    2.289760    2.352517    2.573414    2.966015


........................................................................
.............................. CYCLE   43 ..............................
........................................................................

 iter      E             dE          RMSdq      gap      omega  full diag
   1    -42.6427217 -0.426427E+02  0.485E-01    1.11       0.0  T
   2    -42.6449242 -0.220246E-02  0.318E-01    1.04       1.0  T
   3    -42.6442117  0.712529E-03  0.272E-01    1.19       1.0  T
   4    -42.6408615  0.335019E-02  0.392E-01    0.91       1.0  T
   5    -42.6454138 -0.455235E-02  0.650E-02    1.10       1.0  T
   6    -42.6455241 -0.110263E-03  0.136E-02    1.09       1.5  T
   7    -42.6455269 -0.277283E-05  0.685E-03    1.08       2.9  T
   8    -42.6455273 -0.435168E-06  0.232E-03    1.09       8.6  T
   9    -42.6455274 -0.610870E-07  0.105E-03    1.09      19.0  T
  10    -42.6455274 -0.122593E-07  0.497E-04    1.09      40.2  T
  11    -42.6455274 -0.502759E-09  0.140E-04    1.09     143.1  T
     SCC iter.                  ...        0 min,  0.015 sec
     gradient                   ...        0 min,  0.011 sec
 * total energy  :   -42.1143585 Eh     change       -0.3292612E-02 Eh
   gradient norm :     0.0593190 Eh/α   predicted     0.0000000E+00 (-100.00%)
   displ. norm   :     0.1906326 α      lambda       -0.4728133E-02
   maximum displ.:     0.0967395 α      in ANC's #7, #10, #40, ...

........................................................................
.............................. CYCLE   44 ..............................
........................................................................

 iter      E             dE          RMSdq      gap      omega  full diag
   1    -42.6494130 -0.426494E+02  0.171E-01    1.11       0.0  T
   2    -42.6491754  0.237576E-03  0.143E-01    1.06       1.0  T
   3    -42.6482900  0.885434E-03  0.216E-01    1.20       1.0  T
   4    -42.6495090 -0.121903E-02  0.524E-02    1.08       1.0  T
   5    -42.6495632 -0.541879E-04  0.116E-02    1.10       1.7  T
   6    -42.6495660 -0.284715E-05  0.514E-03    1.10       3.9  T
   7    -42.6495663 -0.273210E-06  0.258E-03    1.10       7.8  T
   8    -42.6495664 -0.586806E-07  0.590E-04    1.10      33.9  T
   9    -42.6495664 -0.570963E-08  0.249E-04    1.10      80.3  T
     SCC iter.                  ...        0 min,  0.012 sec
     gradient                   ...        0 min,  0.012 sec
 * total energy  :   -42.1176359 Eh     change       -0.3277354E-02 Eh
   gradient norm :     0.0293470 Eh/α   predicted    -0.2451268E-02 ( -25.21%)
   displ. norm   :     0.2378696 α      lambda       -0.2465515E-02
   maximum displ.:     0.1143771 α      in ANC's #4, #2, #10, ...

........................................................................
.............................. CYCLE   45 ..............................
........................................................................

 iter      E             dE          RMSdq      gap      omega  full diag
   1    -42.6522519 -0.426523E+02  0.224E-01    1.13       0.0  T
   2    -42.6521375  0.114363E-03  0.152E-01    1.09       1.0  T
   3    -42.6497189  0.241866E-02  0.298E-01    1.26       1.0  T
   4    -42.6522485 -0.252958E-02  0.675E-02    1.09       1.0  T
   5    -42.6523625 -0.114052E-03  0.101E-02    1.12       2.0  T
   6    -42.6523644 -0.185206E-05  0.469E-03    1.12       4.3  T
   7    -42.6523646 -0.218521E-06  0.238E-03    1.12       8.4  T
   8    -42.6523646 -0.440388E-07  0.531E-04    1.12      37.7  T
   9    -42.6523646 -0.306238E-08  0.294E-04    1.12      68.0  T
     SCC iter.                  ...        0 min,  0.012 sec
     gradient                   ...        0 min,  0.010 sec
 * total energy  :   -42.1189760 Eh     change       -0.1340102E-02 Eh
   gradient norm :     0.0151915 Eh/α   predicted    -0.1302510E-02 (  -2.81%)
   displ. norm   :     0.1617148 α      lambda       -0.6030761E-03
   maximum displ.:     0.0965114 α      in ANC's #7, #10, #2, ...

........................................................................
.............................. CYCLE   46 ..............................
........................................................................

 iter      E             dE          RMSdq      gap      omega  full diag
   1    -42.6510850 -0.426511E+02  0.111E-01    1.12       0.0  T
   2    -42.6510850 -0.672925E-07  0.681E-02    1.11       1.0  T
   3    -42.6506777  0.407307E-03  0.116E-01    1.17       1.0  T
   4    -42.6510806 -0.402851E-03  0.226E-02    1.11       1.0  T
   5    -42.6510936 -0.130432E-04  0.525E-03    1.12       3.8  T
   6    -42.6510940 -0.355960E-06  0.238E-03    1.12       8.4  T
   7    -42.6510940 -0.284389E-07  0.795E-04    1.12      25.1  T
   8    -42.6510940 -0.114020E-07  0.257E-04    1.12      77.8  T
     SCC iter.                  ...        0 min,  0.011 sec
     gradient                   ...        0 min,  0.012 sec
 * total energy  :   -42.1192699 Eh     change       -0.2938988E-03 Eh
   gradient norm :     0.0122329 Eh/α   predicted    -0.3094244E-03 (   5.28%)
   displ. norm   :     0.1328544 α      lambda       -0.3728990E-03
   maximum displ.:     0.0670283 α      in ANC's #2, #4, #1, ...

........................................................................
.............................. CYCLE   47 ..............................
........................................................................

 iter      E             dE          RMSdq      gap      omega  full diag
   1    -42.6505805 -0.426506E+02  0.901E-02    1.11       0.0  T
   2    -42.6505683  0.121600E-04  0.566E-02    1.13       1.0  T
   3    -42.6500791  0.489253E-03  0.132E-01    1.06       1.0  T
   4    -42.6505781 -0.499052E-03  0.197E-02    1.12       1.0  T
   5    -42.6505893 -0.111485E-04  0.392E-03    1.11       5.1  T
   6    -42.6505896 -0.290066E-06  0.163E-03    1.12      12.3  T
   7    -42.6505896  0.572863E-08  0.848E-04    1.12      23.6  T
   8    -42.6505896 -0.163291E-07  0.188E-04    1.12     106.2  T
     SCC iter.                  ...        0 min,  0.011 sec
     gradient                   ...        0 min,  0.012 sec
 * total energy  :   -42.1195203 Eh     change       -0.2504788E-03 Eh
   gradient norm :     0.0079007 Eh/α   predicted    -0.1897466E-03 ( -24.25%)
   displ. norm   :     0.1253148 α      lambda       -0.1751808E-03
   maximum displ.:     0.0652073 α      in ANC's #2, #4, #1, ...

........................................................................
.............................. CYCLE   48 ..............................
........................................................................

 iter      E             dE          RMSdq      gap      omega  full diag
   1    -42.6503814 -0.426504E+02  0.102E-01    1.11       0.0  T
   2    -42.6503590  0.224003E-04  0.645E-02    1.12       1.0  T
   3    -42.6497287  0.630255E-03  0.151E-01    1.04       1.0  T
   4    -42.6503714 -0.642644E-03  0.261E-02    1.12       1.0  T
   5    -42.6503915 -0.201192E-04  0.341E-03    1.11       5.9  T
   6    -42.6503917 -0.196068E-06  0.163E-03    1.11      12.3  T
   7    -42.6503917 -0.490217E-07  0.502E-04    1.11      39.8  T
   8    -42.6503917 -0.216464E-08  0.191E-04    1.11     104.6  T
     SCC iter.                  ...        0 min,  0.011 sec
     gradient                   ...        0 min,  0.012 sec
 * total energy  :   -42.1196392 Eh     change       -0.1188321E-03 Eh
   gradient norm :     0.0042960 Eh/α   predicted    -0.8896679E-04 ( -25.13%)
   displ. norm   :     0.1069331 α      lambda       -0.8662863E-04
   maximum displ.:     0.0531126 α      in ANC's #2, #7, #1, ...

........................................................................
.............................. CYCLE   49 ..............................
........................................................................

 iter      E             dE          RMSdq      gap      omega  full diag
   1    -42.6506408 -0.426506E+02  0.947E-02    1.10       0.0  T
   2    -42.6506328  0.804575E-05  0.560E-02    1.12       1.0  T
   3    -42.6501991  0.433668E-03  0.123E-01    1.05       1.0  T
   4    -42.6506281 -0.429008E-03  0.235E-02    1.12       1.0  T
   5    -42.6506459 -0.178123E-04  0.254E-03    1.11       7.9  T
   6    -42.6506460 -0.106862E-06  0.127E-03    1.11      15.8  T
   7    -42.6506460 -0.308988E-07  0.326E-04    1.11      61.4  T
   8    -42.6506460 -0.610989E-09  0.122E-04    1.11     163.4  T
     SCC iter.                  ...        0 min,  0.011 sec
     gradient                   ...        0 min,  0.012 sec
 * total energy  :   -42.1196998 Eh     change       -0.6057851E-04 Eh
   gradient norm :     0.0032520 Eh/α   predicted    -0.4381130E-04 ( -27.68%)
   displ. norm   :     0.0925476 α      lambda       -0.5164857E-04
   maximum displ.:     0.0511165 α      in ANC's #7, #2, #1, ...

........................................................................
.............................. CYCLE   50 ..............................
........................................................................

 iter      E             dE          RMSdq      gap      omega  full diag
   1    -42.6510797 -0.426511E+02  0.855E-02    1.10       0.0  T
   2    -42.6510791  0.546284E-06  0.489E-02    1.11       1.0  T
   3    -42.6509443  0.134847E-03  0.688E-02    1.07       1.0  T
   4    -42.6510645 -0.120198E-03  0.230E-02    1.12       1.0  T
   5    -42.6510824 -0.178723E-04  0.176E-03    1.11      11.4  T
   6    -42.6510824 -0.570319E-07  0.865E-04    1.11      23.1  T
   7    -42.6510824 -0.109962E-07  0.273E-04    1.11      73.4  T
     SCC iter.                  ...        0 min,  0.010 sec
     gradient                   ...        0 min,  0.012 sec
 * total energy  :   -42.1197354 Eh     change       -0.3561772E-04 Eh
   gradient norm :     0.0029922 Eh/α   predicted    -0.2604671E-04 ( -26.87%)
   displ. norm   :     0.0747167 α      lambda       -0.3061683E-04
   maximum displ.:     0.0436945 α      in ANC's #7, #1, #4, ...

   *** GEOMETRY OPTIMIZATION CONVERGED AFTER 50 ITERATIONS ***

[...]
O            0.05730661853003        2.18081249483298       -0.04718718009437
N           -1.46375528308201        0.49638301730661       -0.00236206508045
C           -2.34948543383984        3.91149064185618        0.03719317665865
C           -1.87876635177627       -0.76487730346789        0.00572317314213
O           -3.02309757244263       -1.12628251484703        0.01723231386652
N           -0.84402185878524       -1.81332964454087       -0.00515282667344
C           -1.24389721751624       -3.19789884299860       -0.00809753221680
H            3.22681747601126        1.43700595317207        1.03268676970475
H            3.85190603436534        1.06126875711718       -0.58612807463198
H            2.34046945451481        1.99836777100770       -0.38889263301777
H            3.65300230858044       -1.55674701369184       -0.02633089811586
H           -1.28357311822400        4.04828406639166        0.05404301083667
H           -2.87043535692916        3.84459604083778       -0.89861138105209
H           -2.89444041310159        3.78347560709727        0.95312523650081
H           -0.87785951803687       -3.71084928462890        0.88312196023290
H           -0.88255134180795       -3.70473021591238       -0.90497886357384
H           -2.33421668946663       -3.21473757288634       -0.00571828629178
H            1.65741449722948       -3.13985968326491       -0.01956499865687

 Bond Distances (Angstroems)
 ---------------------------
C1-N2=1.4384         C1-H15=1.0917        C1-H16=1.0881        C1-H17=1.0903        N2-C1=1.4384         N2-C3=1.3233         
N2-C6=1.3686         C3-N2=1.3233         C3-N4=1.3510         C3-H18=1.0724        N4-C3=1.3510         N4-C5=1.3701         
N4-H25=1.0102        C5-N4=1.3701         C5-C6=1.3900         C5-N13=1.3308        C6-N2=1.3686         C6-C5=1.3900         
C6-C7=1.4753         C7-C6=1.4753         C7-O8=1.2187         C7-N9=1.3370         O8-C7=1.2187         N9-C7=1.3370         
N9-C11=1.3278        C10-H19=1.0748       C10-H20=1.0731       C10-H21=1.0735       C11-N9=1.3278        C11-O12=1.2001       
C11-N13=1.4731       O12-C11=1.2001       N13-C5=1.3308        N13-C11=1.4731       N13-C14=1.4412       C14-N13=1.4412       
C14-H22=1.0915       C14-H23=1.0917       C14-H24=1.0905       H15-C1=1.0917        H16-C1=1.0881        H17-C1=1.0903        
H18-C3=1.0724        H19-C10=1.0748       H20-C10=1.0731       H21-C10=1.0735       H22-C14=1.0915       H23-C14=1.0917       
H24-C14=1.0905       H25-N4=1.0102        
 C  H  Rav=1.0838 sigma=0.0085  Rmin=1.0724  Rmax=1.0917    10
 C  C  Rav=1.4327 sigma=0.0426  Rmin=1.3900  Rmax=1.4753     2
 N  H  Rav=1.0102 sigma=0.0000  Rmin=1.0102  Rmax=1.0102     1
 N  C  Rav=1.3761 sigma=0.0519  Rmin=1.3233  Rmax=1.4731    10
 O  C  Rav=1.2094 sigma=0.0093  Rmin=1.2001  Rmax=1.2187     2

 selected bond angles (degree)
 --------------------
H15-C1-N2=110.14               H16-C1-N2=110.36               H16-C1-H15=109.08              H17-C1-N2=108.65               
H17-C1-H15=108.14              H17-C1-H16=110.45              C3-N2-C1=127.19                C6-N2-C1=124.63                
C6-N2-C3=108.17                N4-C3-N2=109.85                H18-C3-N2=125.62               H18-C3-N4=124.52               
C5-N4-C3=108.07                H25-N4-C3=125.58               H25-N4-C5=126.35               C6-C5-N4=106.32                
N13-C5-N4=129.98               N13-C5-C6=123.70               C5-C6-N2=107.59                C7-C6-N2=132.15                
C7-C6-C5=120.24                O8-C7-C6=122.72                N9-C7-C6=112.04                N9-C7-O8=125.24                
C11-N9-C7=130.12               H20-C10-H19=120.20             H21-C10-H19=120.35             H21-C10-H20=119.35             

 selected dihedral angles (degree)
 ---------------------------------
C3-N2-C1-H15=275.60           C3-N2-C1-H16= 36.09           C3-N2-C1-H17=157.33           C6-N2-C1-H15= 94.43           
C6-N2-C1-H16=214.92           C6-N2-C1-H17=336.15           N4-C3-N2-C1=179.07            N4-C3-N2-C6=  0.09            
H18-C3-N2-C1=358.99           H18-C3-N2-C6=180.00           C5-N4-C3-N2=359.97            C5-N4-C3-H18=180.05           
H25-N4-C3-N2=179.95           H25-N4-C3-H18=  0.04          C6-C5-N4-C3=359.96            C6-C5-N4-H25=179.98           
N13-C5-N4-C3=179.62           N13-C5-N4-H25=359.63          C5-C6-N2-C1=180.88            C5-C6-N2-C3=359.89            
C7-C6-N2-C1=  2.42            C7-C6-N2-C3=181.44            N2-C6-C5-N4=  0.09            N2-C6-C5-N13=180.41           
C7-C6-C5-N4=178.76            C7-C6-C5-N13=359.08           O8-C7-C6-N2=  0.10            O8-C7-C6-C5=181.80            
N9-C7-C6-N2=179.82            N9-C7-C6-C5=  1.52            C11-N9-C7-C6=358.95           C11-N9-C7-O8=178.66           
           -------------------------------------------------
          |                Final Singlepoint                |
           -------------------------------------------------

          ...................................................
          :                      SETUP                      :
          :.................................................:
          :  # basis functions                  67          :
          :  # atomic orbitals                  67          :
          :  # shells                           39          :
          :  # electrons                        74          :
          :  max. iterations                   250          :
          :  Hamiltonian                  GFN2-xTB          :
          :  restarted?                      false          :
          :  GBSA solvation                  false          :
          :  PC potential                    false          :
          :  electronic temp.         5000.0000000     K    :
          :  accuracy                    1.0000000          :
          :  -> integral cutoff          0.2500000E+02      :
          :  -> integral neglect         0.1000000E-07      :
          :  -> SCF convergence          0.1000000E-05 Eh   :
          :  -> wf. convergence          0.1000000E-03 e    :
          :  Broyden damping             0.4000000          :
          ...................................................

 iter      E             dE          RMSdq      gap      omega  full diag
   1    -42.6510824 -0.426511E+02  0.115E-04    1.11       0.0  T
   2    -42.6510824  0.201204E-08  0.268E-04    1.11      74.6  T
   3    -42.6510824 -0.215154E-08  0.739E-05    1.11     270.5  T

   *** convergence criteria satisfied after 3 iterations ***

         #    Occupation            Energy/Eh            Energy/eV
      -------------------------------------------------------------
         1        2.0000           -0.9110041             -24.7897
       ...           ...                  ...                  ...
        31        1.9980           -0.6131487             -16.6846
        32        1.9978           -0.6112559             -16.6331
        33        1.9709           -0.5702875             -15.5183
        34        1.9119           -0.5522720             -15.0281
        35        1.9054           -0.5511034             -14.9963
        36        1.8636           -0.5449439             -14.8287
        37        1.7122           -0.5317865             -14.4706 (HOMO)
        38        0.6268           -0.4911294             -13.3643 (LUMO)
        39        0.0176           -0.4287319             -11.6664
        40        0.0014           -0.3883535             -10.5676
        41        0.0002           -0.3580660              -9.7435
        42        0.0000           -0.2620555              -7.1309
       ...           ...                  ...                  ...
        67                          0.5701627              15.5149
      -------------------------------------------------------------
                  HL-Gap            0.0406570 Eh            1.1063 eV
             Fermi-level           -0.5035489 Eh          -13.7023 eV

 SCC (total)                   0 d,  0 h,  0 min,  0.021 sec
 SCC setup                      ...        0 min,  0.000 sec (  0.754%)
 Dispersion                     ...        0 min,  0.000 sec (  0.653%)
 classical contributions        ...        0 min,  0.000 sec (  0.270%)
 integral evaluation            ...        0 min,  0.003 sec ( 16.709%)
 iterations                     ...        0 min,  0.005 sec ( 23.005%)
 molecular gradient             ...        0 min,  0.012 sec ( 58.043%)
 printout                       ...        0 min,  0.000 sec (  0.521%)

         :::::::::::::::::::::::::::::::::::::::::::::::::::::
         ::                     SUMMARY                     ::
         :::::::::::::::::::::::::::::::::::::::::::::::::::::
         :: total energy             -42.119735376643 Eh    ::
         :: gradient norm              0.002990622985 Eh/a0 ::
         :: HOMO-LUMO gap              1.106333642427 eV    ::
         ::.................................................::
         :: SCC energy               -42.651082426370 Eh    ::
         :: -> isotropic ES            0.142438624955 Eh    ::
         :: -> anisotropic ES         -0.008708529722 Eh    ::
         :: -> anisotropic XC          0.019136253039 Eh    ::
         :: -> dispersion             -0.021218908377 Eh    ::
         :: repulsion energy           0.531296962961 Eh    ::
         :: add. restraining           0.000000270989 Eh    ::
         :: total charge               1.000000000000 e     ::
         :::::::::::::::::::::::::::::::::::::::::::::::::::::

           -------------------------------------------------
          |                Property Printout                |
           -------------------------------------------------

    * Orbital Energies and Occupations

         #    Occupation            Energy/Eh            Energy/eV
      -------------------------------------------------------------
         1        2.0000           -0.9110041             -24.7897
       ...           ...                  ...                  ...
        25        1.9998           -0.6534079             -17.7801
        26        1.9998           -0.6474385             -17.6177
        27        1.9995           -0.6360710             -17.3084
        28        1.9986           -0.6187054             -16.8358
        29        1.9984           -0.6163118             -16.7707
        30        1.9983           -0.6154716             -16.7478
        31        1.9980           -0.6131487             -16.6846
        32        1.9978           -0.6112559             -16.6331
        33        1.9709           -0.5702875             -15.5183
        34        1.9119           -0.5522720             -15.0281
        35        1.9054           -0.5511034             -14.9963
        36        1.8636           -0.5449439             -14.8287
        37        1.7122           -0.5317865             -14.4706 (HOMO)
        38        0.6268           -0.4911294             -13.3643 (LUMO)
        39        0.0176           -0.4287319             -11.6664
        40        0.0014           -0.3883535             -10.5676
        41        0.0002           -0.3580660              -9.7435
        42        0.0000           -0.2620555              -7.1309
        43                         -0.1965868              -5.3494
        44                         -0.1748235              -4.7572
        45                         -0.1395534              -3.7974
        46                         -0.0833557              -2.2682
        47                         -0.0576046              -1.5675
        48                         -0.0354117              -0.9636
       ...                                ...                  ...
        67                          0.5701627              15.5149
      -------------------------------------------------------------
                  HL-Gap            0.0406570 Eh            1.1063 eV
             Fermi-level           -0.5035489 Eh          -13.7023 eV

     #   Z          covCN         q      C6AA      α(0)
     1   6 C        3.692    -0.091    22.428     6.776
     2   7 N        2.834     0.088    19.710     6.594
     3   6 C        3.058     0.057    26.671     8.469
     4   7 N        2.798    -0.065    22.490     7.043
     5   6 C        3.030     0.123    25.265     8.245
     6   6 C        3.132    -0.018    28.251     8.701
     7   6 C        2.762     0.296    21.978     7.677
     8   8 O        0.858    -0.372    21.130     6.163
     9   7 N        1.843    -0.250    27.368     7.753
    10   6 C        2.779    -0.063    29.556     8.904
    11   6 C        2.708     0.338    21.249     7.545
    12   8 O        0.860    -0.326    20.258     6.035
    13   7 N        2.735    -0.070    22.589     7.059
    14   6 C        3.693    -0.067    21.971     6.707
    15   1 H        0.924     0.113     1.671     2.021
    16   1 H        0.925     0.104     1.753     2.070
    17   1 H        0.924     0.135     1.495     1.912
    18   1 H        0.926     0.125     1.575     1.962
    19   1 H        0.926     0.152     1.376     1.834
    20   1 H        0.926     0.135     1.499     1.915
    21   1 H        0.926     0.134     1.501     1.916
    22   1 H        0.924     0.081     1.966     2.193
    23   1 H        0.924     0.081     1.966     2.193
    24   1 H        0.924     0.129     1.546     1.945
    25   1 H        0.860     0.229     0.967     1.541

 Mol. C6AA /au·bohr⁶  :       6641.854661
 Mol. C8AA /au·bohr⁸  :     153027.824995
 Mol. α(0) /au        :        125.173008


Wiberg/Mayer (AO) data.
largest (>0.10) Wiberg bond orders for each atom

 ---------------------------------------------------------------------------
     #   Z sym  total        # sym  WBO       # sym  WBO       # sym  WBO
 ---------------------------------------------------------------------------
     1   6 C    3.913 --     2 N    0.985    16 H    0.969    17 H    0.958
                            15 H    0.952
     2   7 N    3.716 --     3 C    1.407     6 C    1.178     1 C    0.985
     3   6 C    3.885 --     2 N    1.407     4 N    1.283    18 H    0.952
     4   7 N    3.589 --     3 C    1.283     5 C    1.170    25 H    0.919
     5   6 C    3.951 --     6 C    1.333    13 N    1.272     4 N    1.170
     6   6 C    3.814 --     5 C    1.333     2 N    1.178     7 C    1.001
     7   6 C    3.948 --     8 O    1.610     9 N    1.253     6 C    1.001
     8   8 O    1.921 --     7 C    1.610     9 N    0.135
     9   7 N    2.871 --    11 C    1.270     7 C    1.253     8 O    0.135
                            12 O    0.112
    10   6 C    2.948 --    21 H    0.979    20 H    0.979    19 H    0.968
    11   6 C    3.946 --    12 O    1.689     9 N    1.270    13 N    0.907
    12   8 O    1.987 --    11 C    1.689     9 N    0.112
    13   7 N    3.464 --     5 C    1.272    14 C    0.987    11 C    0.907
    14   6 C    3.916 --    13 N    0.987    22 H    0.963    23 H    0.963
                            24 H    0.959
    15   1 H    0.985 --     1 C    0.952
    16   1 H    0.988 --     1 C    0.969
    17   1 H    0.980 --     1 C    0.958
    18   1 H    0.983 --     3 C    0.952
    19   1 H    0.974 --    10 C    0.968
    20   1 H    0.980 --    10 C    0.979
    21   1 H    0.980 --    10 C    0.979
    22   1 H    0.981 --    14 C    0.963
    23   1 H    0.981 --    14 C    0.963
    24   1 H    0.981 --    14 C    0.959
    25   1 H    0.947 --     4 N    0.919
 ---------------------------------------------------------------------------

Topologies differ in total number of bonds
Writing topology from bond orders to xtbtopo.mol

molecular dipole:
                 x           y           z       tot (Debye)
 q only:        2.700      -0.756       0.026
   full:        3.215      -1.410       0.036       8.923
molecular quadrupole (traceless):
                xx          xy          yy          xz          yz          zz
 q only:        3.550     -17.625      22.795      -0.088       0.559     -26.345
  q+dip:        2.044     -21.150      21.376       0.024       0.624     -23.420
   full:        0.358     -20.959      21.663       0.025       0.691     -22.021

           -------------------------------------------------
          |                Geometry Summary                 |
           -------------------------------------------------

      molecular mass/u    :      195.1988581
   center of mass at/Å    :       -0.0535414      -0.1959005      -0.0042610
  moments of inertia/u·Å² :        0.6456133E+03   0.7393632E+03   0.1375032E+04
rotational constants/cm⁻¹ :        0.2611104E-01   0.2280020E-01   0.1225981E-01

 * 23 selected distances

     #   Z          #   Z                                           value/Å
     1   6 C        2   7 N                                       1.4383806
     2   7 N        3   6 C                                       1.3233211
     3   6 C        4   7 N                                       1.3509654
     4   7 N        5   6 C                                       1.3700624
     2   7 N        6   6 C                                       1.3686011
     5   6 C        6   6 C                                       1.3900406
     7   6 C        8   8 O                                       1.2187460
     7   6 C        9   7 N                                       1.3369632
     9   7 N       11   6 C                                       1.3278093
    11   6 C       12   8 O                                       1.2001002
     5   6 C       13   7 N                                       1.3308089
    13   7 N       14   6 C                                       1.4411597 (max)
     1   6 C       15   1 H                                       1.0917430
     1   6 C       16   1 H                                       1.0881015
     1   6 C       17   1 H                                       1.0902766
     3   6 C       18   1 H                                       1.0724477
    10   6 C       19   1 H                                       1.0747863
    10   6 C       20   1 H                                       1.0731235
    10   6 C       21   1 H                                       1.0734503
    14   6 C       22   1 H                                       1.0915009
    14   6 C       23   1 H                                       1.0917166
    14   6 C       24   1 H                                       1.0904522
     4   7 N       25   1 H                                       1.0101723 (min)

 * 5 distinct bonds (by element types)

   Z      Z             #   av. dist./Å        max./Å        min./Å
   1 H    6 C          10     1.0837599     1.0917430     1.0724477
   6 C    6 C           1     1.3900406     1.3900406     1.3900406
   1 H    7 N           1     1.0101723     1.0101723     1.0101723
   6 C    7 N           9     1.3653413     1.4411597     1.3233211
   6 C    8 O           2     1.2094231     1.2187460     1.2001002


optimized geometry written to: xtbopt.xyz


           -------------------------------------------------
          | TOTAL ENERGY              -42.119735376643 Eh   |
          | GRADIENT NORM               0.002990622985 Eh/α |
          | HOMO-LUMO GAP               1.106333642427 eV   |
           -------------------------------------------------

------------------------------------------------------------------------
 * finished run on 2024/06/05 at 19:58:01.624     
------------------------------------------------------------------------
 total:
 * wall-time:     0 d,  0 h,  0 min,  1.548 sec
 *  cpu-time:     0 d,  0 h,  0 min,  1.532 sec
 * ratio c/w:     0.990 speedup
 SCF:
 * wall-time:     0 d,  0 h,  0 min,  0.036 sec
 *  cpu-time:     0 d,  0 h,  0 min,  0.036 sec
 * ratio c/w:     1.000 speedup
 ANC optimizer:
 * wall-time:     0 d,  0 h,  0 min,  1.489 sec
 *  cpu-time:     0 d,  0 h,  0 min,  1.486 sec
 * ratio c/w:     0.998 speedup

