72
 energy: -99.691341593559 xtb: 6.6.1 (8d0f1dd)
N           -1.56443622968158        2.97135453985044        2.25574747652715
C           -1.52650122696133        2.27617872527837        1.20716672787520
C           -2.68373846544341        2.12223402593529        0.25634571375617
C           -3.22103549760844        0.70173955047756        0.33880614158303
C           -4.14747938698734        0.25644481551094       -0.60704650911176
C           -4.69039430904721       -1.01236098234926       -0.54418871435181
O           -5.60206328053011       -1.52164444375984       -1.42163022023358
C           -6.11460910961890       -0.68539674371923       -2.42680388609465
C           -4.30569952924197       -1.88638403008198        0.49702194501755
O           -4.90136282838221       -3.11302919821058        0.48100670792662
C           -4.64553786093848       -3.99835163050812        1.54024577085754
C           -3.38823123060800       -1.44589332125661        1.43184467543569
C           -2.85311140922716       -0.16440820773796        1.35174766261617
C           -2.12900889931070        2.40333377437533       -1.16630081017273
C           -1.27874162560040        1.27173875200721       -1.77790398772141
C            0.03033071721879        1.12586797213111       -1.11754609994291
N            0.52806064070024       -0.06014929426542       -0.61959549010943
C            1.87702896867766       -0.09731223933462       -0.18217220819098
C            2.82659893729566       -0.86442030500711       -1.11273529585259
C            4.21568787608472       -0.58051244827933       -0.64470706634256
C            4.65281726831449        0.74969396548342       -0.58651617856880
C            6.04472907717186        0.87209237975599       -0.36746155645384
C            6.85912741688730       -0.20691934324020        0.00929670994238
O            8.19093719248448       -0.17247795268566        0.33917387368708
C            8.93025906845331        1.01641397006329        0.27479855030852
C            6.31510213867523       -1.50548401582583        0.16014061712493
O            7.14143784561145       -2.47680111087669        0.66086132095027
C            6.66108859049795       -3.78920829199040        0.86062375150032
C            5.00526099979033       -1.66425924911576       -0.23825128249998
C           -0.17632710465242       -1.30478283282832       -0.67570030246283
C           -3.86243285911012        3.09107427409688        0.55761825798073
C           -4.52046685267448        2.77431208119169        1.89957685664065
C           -3.44913035933425        4.56085654513793        0.52380446872987
H           -4.44997909214419        0.92145213326058       -1.39925332522603
H           -6.60321066924898        0.20061349810437       -2.00703880732566
H           -6.85431736226978       -1.28596224195768       -2.95464324439978
H           -5.33770675193233       -0.37164422655202       -3.13279311732109
H           -4.92293568138437       -3.56458162877214        2.50695822571177
H           -5.26833314192935       -4.87062398830959        1.34628730162445
H           -3.59430246382884       -4.30582512583449        1.56947891709605
H           -3.07989356613772       -2.08893425090261        2.24132563580280
H           -2.15272362955515        0.15346004567389        2.10842982005751
H           -2.96283436905747        2.60681290033706       -1.84038955943313
H           -1.51075770212075        3.30158307757136       -1.12503285057235
H           -1.83245495193359        0.33492293420183       -1.75041096157356
H           -1.11855052384959        1.53651039592917       -2.83457816301813
H           -0.62731928527598        1.75932391757143        0.83986115482457
H            0.71366938803791        1.95647960889437       -1.12051353059126
H            1.94061936715674       -0.52649949039423        0.82563419804155
H            2.23486177736967        0.93005243272587       -0.12520720710152
H            2.70401582905343       -0.50729679944336       -2.14020726706360
H            2.61406581422950       -1.93515779049226       -1.09934678417915
H            3.81958250127709        1.62312919507266       -0.59954482816594
H            6.54691594707192        1.82042439256027       -0.49632226656454
H            8.49137817694573        1.80243297570876        0.89706778364210
H            9.02624423408033        1.36830724072882       -0.75720215703004
H            9.92313345733546        0.77399952028277        0.65897543233064
H            7.49171594021279       -4.35770052565862        1.28591041935725
H            5.82239489071941       -3.82166631902969        1.56484472644385
H            6.36157634223804       -4.26730880324850       -0.07820583775476
H            4.55771086832321       -2.64731805270513       -0.18391272478074
H           -0.25876740759846       -1.69902236686029       -1.69597092524486
H           -1.17539020301645       -1.18357183253837       -0.25547373162788
H            0.37213608289215       -2.02611516140836       -0.07056293836674
H           -4.60874894489416        2.93125162616977       -0.23053693753667
H           -3.80225093876379        2.91622112915641        2.69998402593829
H           -4.87984987978892        1.74829501902621        1.92517672917182
H           -5.36584172859070        3.43955339600237        2.06068365515680
H           -2.69261960534405        4.75131766790671        1.27824545581357
H           -3.06187399508364        4.84750857247613       -0.45054072079698
H           -4.31458810784796        5.18379328179809        0.73867076846283
H           -0.69677815926092        3.00277136401505        2.78835567035549
