72
 energy: 0.000000000000 xtb: 6.6.1 (8d0f1dd)
N           -1.47310921155849        2.74401293103706        2.22063921685122
C           -1.55658879776851        2.16490285539332        1.13274273951491
C           -2.74549199786261        2.05621232186130        0.23826248438941
C           -3.31377553111525        0.64333411542669        0.32332512650568
C           -4.30230156009016        0.24487110156316       -0.58026161703006
C           -4.85238763031941       -1.02286490450319       -0.53363588718165
O           -5.81419972815119       -1.48606034185536       -1.36157882725342
C           -6.39655633239252       -0.60827000183299       -2.29568474302620
C           -4.39972501531283       -1.94646102182611        0.44396929121966
O           -4.98748311285188       -3.16145997157803        0.41085992006324
C           -4.66362127904578       -4.10093827755394        1.40909127743729
C           -3.42072513477031       -1.54561384810496        1.33436546260297
C           -2.88302799614223       -0.26315800396994        1.27400150770375
C           -2.19303798107274        2.30467000305896       -1.18742977106749
C           -1.26651538239283        1.17243369445008       -1.65249429687285
C            0.01082524939134        1.09745454476277       -0.89354803499847
N            0.61779393476578       -0.02034948052406       -0.57705522512502
C            2.00145210352228       -0.02376006389122       -0.15611399603240
C            2.92554934655222       -0.53865282675074       -1.27700088804721
C            4.35756843073516       -0.43050757231754       -0.83075544324989
C            5.07346135469827        0.73206409086248       -1.03980965825901
C            6.38627986649936        0.84224441421807       -0.60344822702769
C            7.00047264773336       -0.20824756335880        0.05722314418200
O            8.26703657141718       -0.21011313101264        0.52410943644933
C            9.06912227848686        0.92943601033931        0.31863058007678
C            6.27039964270142       -1.40439753960823        0.28033466008274
O            6.94829939911432       -2.38012925705718        0.92751999079483
C            6.31537317745639       -3.61583200086742        1.15217711710877
C            4.96302794628964       -1.49347471867959       -0.16064430359178
C           -0.05511211367372       -1.29906247805359       -0.62085686319744
C           -3.86758037025447        3.07992600430699        0.58498060215443
C           -4.49286159663096        2.77383493050346        1.94313289484366
C           -3.39165179876499        4.52917666589254        0.54797523472093
H           -4.66030026466202        0.94509067363451       -1.31640568823548
H           -6.85037928558380        0.25803162192116       -1.80468845313260
H           -7.17287442604349       -1.18600110843259       -2.79318157561361
H           -5.66836817451085       -0.26952966318766       -3.04040255244073
H           -4.88416720672258       -3.71589460520039        2.40913542187496
H           -5.29223570620378       -4.96637458756866        1.20969236903657
H           -3.61139813139015       -4.39919835331056        1.35529357841967
H           -3.07077796610445       -2.21868765711333        2.10002662693138
H           -2.14562754426994        0.02067850696302        2.01001344383370
H           -3.02188875377605        2.38238012313952       -1.88813545054866
H           -1.65198530896729        3.25146700677685       -1.20556284570283
H           -1.81103374245520        0.23006524641044       -1.62116301628650
H           -0.99335688527853        1.37490212198123       -2.69443256973690
H           -0.67628064361333        1.65183887049447        0.61785727145403
H            0.63525841192517        1.98466369793744       -0.92314021190751
H            2.11132552493482       -0.65949692842762        0.72532613231274
H            2.30680473056284        0.98978251704176        0.11078972794250
H            2.76694198818247        0.06750735147374       -2.17075252200790
H            2.67954581369920       -1.57455627803457       -1.51167743520200
H            4.62169998552446        1.56295612048703       -1.56123579000624
H            6.92357674630170        1.75715815945204       -0.79119596719031
H            8.65159112996149        1.81001823324363        0.81701555159939
H            9.20136171144928        1.14042857828877       -0.74698991949293
H           10.03428838009630        0.69003240176163        0.76064937965836
H            7.05567174969094       -4.23621171795340        1.65347565939075
H            5.43848001056755       -3.50813558175093        1.79970565785717
H            6.02060041905269       -4.09420497120334        0.21253282636366
H            4.40102758497114       -2.40127266373392       -0.00490198249042
H           -0.22071299714579       -1.61775583601871       -1.65116008982042
H           -1.01972258008625       -1.24102717432227       -0.10935206830928
H            0.55899954147532       -2.04486085926761       -0.12333730421426
H           -4.63991875734388        2.95501092798550       -0.18098088071825
H           -3.76095216473977        2.90314704960906        2.73380821053058
H           -4.87457614030224        1.75695641518947        1.97884603101694
H           -5.31925552549014        3.45579210326349        2.12325564252114
H           -2.60025590131176        4.69225046143352        1.27368918226171
H           -3.03987406413880        4.81897652321898       -0.43870975059559
H           -4.22191740670577        5.18069648090034        0.80616693961239
H           -0.59832433787845        2.77744694953323        2.72958984441332
72
 energy: -5.720135248531 xtb: 6.6.1 (8d0f1dd)
N           -1.49709387692334        2.78398182069048        2.23753203037561
C           -1.54848420003747        2.15791608052127        1.15042243839402
C           -2.74242287367311        2.06406720128503        0.24458719487185
C           -3.30920665839417        0.65231183864189        0.32582915313158
C           -4.29262871260470        0.24701896309753       -0.57882950573430
C           -4.83799945676507       -1.02126440177308       -0.53171885517217
O           -5.80409228569102       -1.49207829976481       -1.36909294508038
C           -6.37645708587101       -0.61489903621986       -2.30476291102728
C           -4.39203122441938       -1.93800224829445        0.44661963232180
O           -4.98575072412972       -3.16342054259418        0.41566166013475
C           -4.66205119476909       -4.09267792322393        1.41734513578689
C           -3.42036317566652       -1.53593049836658        1.34218691113305
C           -2.88528131123469       -0.25374380565001        1.28096402339393
C           -2.19012694446009        2.30843517398218       -1.18437003790810
C           -1.26306148224694        1.18365882362648       -1.67285637772857
C            0.00598324268952        1.12986284003767       -0.90427142835860
N            0.63064328239961       -0.04912904888253       -0.56610235439334
C            1.99727308662308       -0.03751822407541       -0.16017224849814
C            2.92865786293400       -0.56675286819183       -1.27029987145452
C            4.35062392482217       -0.44875216316693       -0.83131131513100
C            5.04225668190162        0.73388198595218       -1.01980681599996
C            6.35995478402567        0.84361314961561       -0.59574121554302
C            6.98860557932924       -0.21031696173292        0.04768890533213
O            8.27088109187949       -0.21059278110351        0.51170310474908
C            9.05922907922282        0.93401870488241        0.31660698353699
C            6.27482615605751       -1.40954920896914        0.27106999444563
O            6.96803601699736       -2.39134553245479        0.91429933057280
C            6.34191466772541       -3.62917252534469        1.13404165569814
C            4.96962899036067       -1.50831476908349       -0.16839575415961
C           -0.05804792419648       -1.30471731946215       -0.62471541944254
C           -3.86876871260382        3.07840989163561        0.58159541309287
C           -4.49625726954081        2.77552841737732        1.94095969136082
C           -3.39782601341776        4.53144336740262        0.54638977321799
H           -4.64365152175100        0.94336898742818       -1.32268411445823
H           -6.83245019334279        0.25451209031266       -1.81909313614733
H           -7.15148915166531       -1.19296596793045       -2.80578216079749
H           -5.64510605666769       -0.27619752856864       -3.04687860220603
H           -4.88532919187606       -3.70454219461973        2.41668880676806
H           -5.28965576775519       -4.96048500845116        1.22041496936995
H           -3.60901357892569       -4.39118721856875        1.37032234601233
H           -3.07066153558573       -2.20913078045420        2.10909116888591
H           -2.14606543672564        0.03242805712576        2.01347143148776
H           -3.02135660460391        2.40065241570693       -1.88418379067904
H           -1.64060930699000        3.25128723080103       -1.19727074735845
H           -1.80347850083587        0.23853289096236       -1.63073708851984
H           -1.01498832233835        1.38487397036272       -2.72288196487239
H           -0.68118350504469        1.65814261987631        0.65238160658324
H            0.65125973339983        1.98985697886423       -0.95356091030987
H            2.11080297100891       -0.65312351211414        0.73887517027272
H            2.29980858881868        0.98283518886782        0.09148008114630
H            2.76115501047187        0.02660189004089       -2.17057212915367
H            2.67412051509198       -1.60480264900920       -1.48643386901317
H            4.55730844539612        1.57924960846725       -1.49385033053951
H            6.89363678239498        1.76368468058719       -0.77344690218413
H            8.63920038748828        1.80918490230597        0.82339576242206
H            9.18837702012144        1.15657144929376       -0.74773507637010
H           10.02844541449027        0.69835150630061        0.75428494742094
H            7.08753566261016       -4.24883560243111        1.63065644013185
H            5.46559309094392       -3.53154766349342        1.78416708804138
H            6.04588791880705       -4.10776208779587        0.19397350544407
H            4.41342631408016       -2.42037537995804       -0.01316669022814
H           -0.22388726586470       -1.62958782549775       -1.65772949790142
H           -1.02669822291167       -1.23561224294137       -0.12111523227455
H            0.54675229847496       -2.05318558230222       -0.11756722937445
H           -4.64255504494604        2.95578520702214       -0.18568980141866
H           -3.75933494032918        2.90328628195566        2.72728128792237
H           -4.87428290789907        1.75656499588585        1.97556895577724
H           -5.32459917010718        3.45666125889957        2.12139481165448
H           -2.60647371508949        4.69132353105619        1.27211531728196
H           -3.04180450713731        4.81880064194140       -0.44005750054853
H           -4.23006393287929        5.18319102209837        0.80230085166820
H           -0.60444839702187        2.78387450970425        2.72781093917690
72
 energy: -5.709539051925 xtb: 6.6.1 (8d0f1dd)
N           -1.50225254069419        2.79692266475498        2.24155921107158
C           -1.54769298389241        2.16360902445956        1.15809872803988
C           -2.73815100714127        2.06826009716951        0.24621805828622
C           -3.30345898899523        0.65660164870808        0.32731760566205
C           -4.28209441152802        0.24797523766283       -0.58055529586777
C           -4.82697173284833       -1.02058772679382       -0.53268736305119
O           -5.78843128816553       -1.49503304733928       -1.37385422668848
C           -6.35614988378518       -0.62051719029644       -2.31466524549113
C           -4.38560305227965       -1.93416161041828        0.45029088326697
O           -4.97967550616601       -3.15972586450069        0.42072328998666
C           -4.66148121295624       -4.08558109146506        1.42692252228454
C           -3.41824442059992       -1.52896006104414        1.34910260382669
C           -2.88362451408837       -0.24670754586872        1.28664005768911
C           -2.18482092709863        2.31458753529173       -1.18300276577667
C           -1.26216137055901        1.18974251638373       -1.68132090832502
C            0.00839596194191        1.13259663739800       -0.91560180688232
N            0.62655357588392       -0.05116144789283       -0.56941600375074
C            1.99225568867552       -0.04287807680960       -0.16210177868774
C            2.92311345473895       -0.59271084592662       -1.26148059829340
C            4.34280408426003       -0.46265203824390       -0.82363199334949
C            5.01040931200498        0.73795014255697       -0.99402965178307
C            6.33467236486865        0.84575469442142       -0.58548000939080
C            6.98098849949751       -0.21152337760429        0.03939394777957
O            8.26718236729815       -0.20931391175376        0.49570392729583
C            9.04982329071566        0.94059918123341        0.31274290934593
C            6.28022891395800       -1.41834380542160        0.26221945784001
O            6.98331197484467       -2.39979687180984        0.89729777084951
C            6.36689560581558       -3.64361189564835        1.11457663318679
C            4.97466335753292       -1.52261002082009       -0.17440963841032
C           -0.06558208215162       -1.30507714332911       -0.62778012880392
C           -3.86917503395939        3.07922411022223        0.57904367945860
C           -4.49896776903243        2.77607671128864        1.93726943932017
C           -3.40212956239430        4.53338610269083        0.54404936050508
H           -4.62925410445283        0.94198094224505       -1.32826788198883
H           -6.81454785222361        0.25037732984552       -1.83379169347666
H           -7.12835148784272       -1.20011577382460       -2.81834536289182
H           -5.62071537157967       -0.28349274988422       -3.05347892483898
H           -4.88894135660758       -3.69359395758534        2.42373929708683
H           -5.28878481402503       -4.95378628267818        1.23029937450749
H           -3.60839123196318       -4.38469516413135        1.38585837784447
H           -3.07106829489652       -2.19994566474704        2.11908114094771
H           -2.14656274691499        0.04224842893357        2.02019948137089
H           -3.01631070344246        2.41689123152491       -1.88164695821347
H           -1.62919994942000        3.25341506472364       -1.19169396404253
H           -1.80213141788340        0.24513840570786       -1.63873397853654
H           -1.02368052258928        1.39213315247528       -2.73453092823136
H           -0.67818067932244        1.66420923454876        0.66812727110287
H            0.65563819877583        1.99125263327327       -0.96396441994160
H            2.10382536486068       -0.64110297971656        0.74940199173258
H            2.29788600092701        0.98065479515521        0.07245273590288
H            2.75686846519641       -0.01472685994805       -2.17158963622577
H            2.66969497348931       -1.63423908264792       -1.46017002852118
H            4.49602552976901        1.59461023675953       -1.42536812549864
H            6.86529848766204        1.76894378191871       -0.75668028083995
H            8.62747550175860        1.80830490125924        0.82970085513645
H            9.17558873930935        1.17411248076383       -0.74938812313845
H           10.02165759871192        0.70591702023484        0.74597748386715
H            7.11846191622510       -4.26132614487432        1.60538571208299
H            5.49262245943389       -3.55535003607590        1.76869083693252
H            6.06996228856617       -4.12111939437213        0.17411893458261
H            4.42590415963880       -2.43996113743470       -0.02172616489572
H           -0.22474063659279       -1.63635801878517       -1.65987668584145
H           -1.03734149549174       -1.22920991252478       -0.13203990657931
H            0.53237336981876       -2.05319226008796       -0.11074602675206
H           -4.64123507573471        2.95483827890996       -0.19021124315676
H           -3.76228350315160        2.90465072113492        2.72365038523386
H           -4.87501188884584        1.75636137528536        1.97135853683424
H           -5.32887853366144        3.45600064375085        2.11633392551603
H           -2.61362002749410        4.69477054712639        1.27213658558883
H           -3.04298978145249        4.82007530466327       -0.44152754946502
H           -4.23660347883180        5.18380526480952        0.79665794790462
H           -0.61142162113283        2.79938489481805        2.73478331909557
72
 energy: -5.420780928650 xtb: 6.6.1 (8d0f1dd)
N           -1.50786937580780        2.81075308802287        2.24386085563981
C           -1.54600885539961        2.17109023250876        1.16363529465107
C           -2.73381072473588        2.07261739652830        0.24736455316973
C           -3.29742032294654        0.66082191897010        0.32831677452508
C           -4.27144808983852        0.24892304619945       -0.58278255912510
C           -4.81607632352810       -1.01977256242846       -0.53371342746042
O           -5.77303625073672       -1.49780335007461       -1.37853735529557
C           -6.33638339358997       -0.62606775426847       -2.32439839823410
C           -4.37935944502039       -1.93000784210025        0.45411908566536
O           -4.97351003560444       -3.15584611139731        0.42597562893667
C           -4.66021887789408       -4.07833657064188        1.43647681757610
C           -3.41626280492810       -1.52175641613983        1.35611892849100
C           -2.88198520966448       -0.23951563093557        1.29221382287864
C           -2.17983846263236        2.32141621739917       -1.18165196042933
C           -1.26204032581324        1.19591366517939       -1.68935898406448
C            0.01069500449517        1.13483513371345       -0.92866982235385
N            0.62237735401518       -0.05368512830685       -0.57705238692602
C            1.98574381867667       -0.04759273052470       -0.16502451131041
C            2.91725945667159       -0.61805149375428       -1.25211575976793
C            4.33399583439225       -0.47447153696219       -0.81270757247099
C            4.97796170869439        0.74368163660263       -0.96488306599078
C            6.30881884664686        0.84949356131721       -0.57255115253739
C            6.97256355661446       -0.21213480712211        0.03156137231366
O            8.26231658511885       -0.20794308223324        0.48040984052399
C            9.04030841135012        0.94643419018587        0.30953040215732
C            6.28516725313718       -1.42651655919376        0.25353509322486
O            6.99851349764148       -2.40768341595994        0.88006921811700
C            6.39260206012221       -3.65771158225281        1.09556226382299
C            4.97919423743422       -1.53589801086185       -0.18003009061284
C           -0.07313936238255       -1.30549886814431       -0.63262492263418
C           -3.86918591128366        3.08011362344221        0.57673190459714
C           -4.50072825223199        2.77633536961977        1.93401594246402
C           -3.40624567775524        4.53558594417204        0.54181094310701
H           -4.61448842924575        0.94036087582804       -1.33471136448005
H           -6.79712583051823        0.24627996047936       -1.84828867713865
H           -7.10600224060096       -1.20721850414671       -2.83028292600741
H           -5.59736433887276       -0.29081888511228       -3.06045035921601
H           -4.89170850653904       -3.68289490968371        2.43095857135853
H           -5.28711052939896       -4.94700107997726        1.24021276225511
H           -3.60708908886353       -4.37807429039004        1.40108660071996
H           -3.07171406977938       -2.19049960575006        2.12924163553315
H           -2.14708540103150        0.05196418612765        2.02688490285093
H           -3.01232745766047        2.43258392465808       -1.87804188398216
H           -1.61902724691010        3.25702369875056       -1.18604528713053
H           -1.80183612156387        0.25154665948084       -1.64811198286561
H           -1.03117125456010        1.40058415832636       -2.74446112225113
H           -0.67511013726150        1.66931749593233        0.68348545971010
H            0.66139488099084        1.99068430726742       -0.97698330439232
H            2.09432335049926       -0.62900523824483        0.75829084998313
H            2.29649944790103        0.97819900632492        0.05368852067651
H            2.75293677248720       -0.05622949071370       -2.17262332504287
H            2.66530200121906       -1.66308500815274       -1.43307972065642
H            4.43347791488413        1.60753438905253       -1.35705401470456
H            6.83670459891261        1.77510029988295       -0.73811314077167
H            8.61575719631866        1.80688105269628        0.83620258997681
H            9.16345449085809        1.19046113903546       -0.75030005947153
H           10.01434424012564        0.71245209520799        0.73896880016698
H            7.15021562982315       -4.27287415885851        1.58113599679819
H            5.52026468838191       -3.57909458446607        1.75349371423253
H            6.09542488993280       -4.13490818347945        0.15494309547216
H            4.43838629199471       -2.45903038956518       -0.03154552381981
H           -0.22697961190221       -1.64327879945610       -1.66352831479586
H           -1.04696911828829       -1.22340956079441       -0.14274185755883
H            0.51978648051591       -2.05224911842169       -0.10685179223896
H           -4.63937349546046        2.95335473146329       -0.19423545774045
H           -3.76411443287814        2.90566962110677        2.72028057450095
H           -4.87528695669620        1.75602568223829        1.96761780656934
H           -5.33183921445117        3.45521507768304        2.11217301985720
H           -2.62039073922759        4.69863034956997        1.27206224177403
H           -3.04462898419390        4.82222242813446       -0.44293373056679
H           -4.24287315388251        5.18438704112774        0.79178959302955
H           -0.61890874819425        2.81605317412671        2.73947050733466
72
 energy: -4.850189539909 xtb: 6.6.1 (8d0f1dd)
N           -1.51376608353391        2.82700132034717        2.24457407202472
C           -1.54406163557778        2.18023856617971        1.16809823754267
C           -2.72939430326200        2.07714958772681        0.24816247670367
C           -3.29126253992123        0.66507148631755        0.32931015521617
C           -4.26084404244470        0.25001384103799       -0.58498524843518
C           -4.80536043087803       -1.01875599023626       -0.53461018647557
O           -5.75792189499342       -1.50023115893128       -1.38292774311646
C           -6.31698159929067       -0.63155602223431       -2.33401993261059
C           -4.37327886362908       -1.92571568996356        0.45803300042158
O           -4.96737706066354       -3.15186171140563        0.43126596735618
C           -4.65861626320809       -4.07097155284920        1.44606208271135
C           -3.41428087076833       -1.51457166179974        1.36306972463069
C           -2.88027226129431       -0.23234249978891        1.29776377513986
C           -2.17508162694577        2.32883745495919       -1.18045382162017
C           -1.26274860706138        1.20260014597585       -1.69812730435944
C            0.01242724375625        1.13681593774782       -0.94407823555561
N            0.61687395115529       -0.05565903348790       -0.58767517438548
C            1.97782038180237       -0.05208651826945       -0.16831106724536
C            2.91093105399434       -0.64302279526442       -1.24198108214844
C            4.32439885765533       -0.48443196234937       -0.80012647083255
C            4.94476366591421        0.75020479900018       -0.93491353050333
C            6.28267548725436        0.85373220463549       -0.55935710807013
C            6.96366582919627       -0.21207396453088        0.02394810889055
O            8.25690538923357       -0.20651980224811        0.46560381243367
C            9.03099447241922        0.95159383269525        0.30683993217806
C            6.28990004998892       -1.43384610154655        0.24543798171721
O            7.01368602974005       -2.41491897517573        0.86301299745932
C            6.41913084652253       -3.67167503527599        1.07623035337436
C            4.98361198304709       -1.54771698300825       -0.18503187665445
C           -0.08062301250198       -1.30608218512969       -0.63858628283496
C           -3.86889152219678        3.08107752161762        0.57459301608234
C           -4.50186306139592        2.77644331898272        1.93107991937056
C           -3.40996690515977        4.53785084200563        0.53999775465295
H           -4.59959648953504        0.93884550337820       -1.34121751864296
H           -6.78016722253241        0.24223317965375       -1.86284998555549
H           -7.08400020442876       -1.21444053619682       -2.84190791170507
H           -5.57457148015460       -0.29818326786157       -3.06752051094129
H           -4.89401058332693       -3.67222262030951        2.43829390459402
H           -5.28490101138116       -4.94027022095432        1.25033983247837
H           -3.60540403019575       -4.37111940185593        1.41617936280896
H           -3.07239099757404       -2.18118590276685        2.13921900894375
H           -2.14748928731999        0.06139175995718        2.03355816574975
H           -3.00884619478857        2.44823621393280       -1.87400493774359
H           -1.60965685742392        3.26173330399649       -1.18066839650381
H           -1.80296954094446        0.25858119133607       -1.65869713194027
H           -1.03870740038997        1.41010443398331       -2.75447173023740
H           -0.67249988852752        1.67248744401385        0.70021546808666
H            0.66792991498844        1.98887110736186       -0.99300658994966
H            2.08215184930050       -0.61663099097079        0.76667325335512
H            2.29527624240510        0.97512916181755        0.03459545360939
H            2.74909354211358       -0.09798420792879       -2.17312595125285
H            2.66130352621584       -1.69167262832437       -1.40479717255977
H            4.36863121381294        1.61865473813171       -1.28879060528800
H            6.80760507497979        1.78170662142381       -0.71940885539522
H            8.60352656099645        1.80473140913304        0.84247283954630
H            9.15176442531254        1.20525213142110       -0.75070461168703
H           10.00705991388755        0.71877057216440        0.73311883579458
H            7.18219068315247       -4.28489222611870        1.55687423920366
H            5.54828185188859       -3.60314021435805        1.73725341696772
H            6.12245249409730       -4.14808257347572        0.13504298182284
H            4.45123770752599       -2.47665476505564       -0.04034345540339
H           -0.22967827042228       -1.65079293826099       -1.66806634596752
H           -1.05594664283481       -1.21826022737165       -0.15353899901498
H            0.50855130747233       -2.05086210012314       -0.10467573495449
H           -4.63729012082387        2.95177203912047       -0.19786456999284
H           -3.76529737128795        2.90630824281884        2.71723025925833
H           -4.87531127094615        1.75566222324044        1.96416043003689
H           -5.33392053282432        3.45443402155932        2.10864044741989
H           -2.62665817877545        4.70244824550898        1.27242386757005
H           -3.04617178092257        4.82482181806042       -0.44386149931198
H           -4.24867491782723        5.18485758636087        0.78776923701807
H           -0.62725069692235        2.83366678027571        2.74377850830358
72
 energy: -4.106577925987 xtb: 6.6.1 (8d0f1dd)
N           -1.51919518512720        2.84203884820201        2.24605842229986
C           -1.54225755700795        2.18896134419368        1.17297851642710
C           -2.72478909598337        2.08160113453949        0.24914728712840
C           -3.28469372960556        0.66905829881488        0.33022681542675
C           -4.24977853143554        0.25084435283847       -0.58736024715178
C           -4.79414968478490       -1.01799722929801       -0.53566873069705
O           -5.74239241737769       -1.50269961095238       -1.38734099944679
C           -6.29690323459583       -0.63702062727304       -2.34373236033610
C           -4.36683454836870       -1.92165270104597        0.46187995264387
O           -4.96107728292349       -3.14796081011908        0.43632710271409
C           -4.65755427285728       -4.06369644418675        1.45562670964055
C           -3.41203797851539       -1.50758792613627        1.37006880460785
C           -2.87815802563427       -0.22536958908138        1.30327271679678
C           -2.17045947828299        2.33615693765897       -1.17926307447250
C           -1.26355300731640        1.20973348198371       -1.70706332121934
C            0.01401154755899        1.13936393330424       -0.95997363546651
N            0.61002024977858       -0.05584215775495       -0.59619056544637
C            1.96917368130799       -0.05591330001908       -0.17105537733201
C            2.90378587638817       -0.66708526684784       -1.23150959051861
C            4.31436166188749       -0.49366240635618       -0.78658650315082