25
 energy: 3.871874151488 xtb: 6.6.1 (8d0f1dd)
C            3.26561683808574        1.28277830425929        0.10689392779401
N            2.38235247620482        0.12863842284323        0.02079762394541
C            2.70215295948294       -1.23526183278920        0.03719790689527
N            1.52487477012073       -1.94713520245138        0.01817166814068
C            0.45786124971136       -1.12290535393255       -0.01714597954415
C            0.97407938639399        0.19258654598625       -0.01303566008224
C            0.14350507302843        1.33169077833672       -0.03149185613199
O            0.45642448640889        2.52892856444744       -0.04442421192577
N           -1.24260902855652        0.96060357292005       -0.04196741357853
C           -2.19030381352138        2.06535880681905       -0.04921231431363
C           -1.77263723796838       -0.28524855086068       -0.06072644526359
O           -2.98186200963881       -0.44287430497078       -0.08099434481688
N           -0.91240723482651       -1.42227258978095       -0.05022348620816
C           -1.73393511208206       -2.65307207308106       -0.06345983172198
H            3.81921737515344        1.31265008100562        1.05388036558425
H            4.00497703676316        1.32998341576611       -0.70861849777097
H            2.65146326520374        2.19375640040904        0.06729688486584
H            3.67035517680321       -1.69886214640165        0.06258682377402
H           -1.59730978902588        2.98174676839527       -0.02550921870031
H           -2.79884030454065        2.02243870811770       -0.95160726537153
H           -2.83718779200698        2.00099211915295        0.82467977145711
H           -1.61908662067281       -3.26496086596666        0.83167826023409
H           -1.58655099259223       -3.25835456351771       -0.95834984095012
H           -2.75138318190149       -2.29791413801770       -0.07945873301718
H            1.46189390840358       -2.94996828328483        0.03742833728093
