25
 energy: 36.314304711655 xtb: 6.6.1 (8d0f1dd)
C            3.24713890685390        1.39752765690284        0.12573750536792
N            2.44453785321253        0.15641792397711        0.01637707534658
C            2.80551043178992       -1.20349096901939        0.03685695664668
N            1.65150787936118       -1.96307715382271        0.02742809991846
C            0.51329646065370       -1.21938601940477       -0.02386229817487
C            1.02236283718849        0.12519304684008       -0.03141099395781
C            0.20304179365363        1.26909431084994       -0.06918730863562
O            0.51738980173025        2.46771931718482       -0.09713313322604
N           -1.16479792223633        0.89336422269972       -0.06567453787234
C           -2.12705131382024        1.99172793580554       -0.05136138219869
C           -1.69538275622623       -0.34967268363176       -0.07774438936781
O           -2.92140540255139       -0.37114534437078       -0.09079624110191
N           -0.91388393499842       -1.56500770402538       -0.06325098278319
C           -2.02359001295119       -2.70805687364708       -0.06635306134730
H            3.91258084535924        1.41182609968101        1.00419348622020
H            3.89108368993551        1.61351723732116       -0.75238787253966
H            2.55563271120481        2.25405262638566        0.23863260934579
H            3.79546689160780       -1.63021801549662        0.09399023617583
H           -1.51737133745438        2.89498994913151       -0.02833182612227
H           -2.74771149644108        1.95507670931498       -0.94521727587292
H           -2.76607128005624        1.92823291305168        0.82962942366941
H           -2.07371787727957       -3.32085712285378        0.82988985301775
H           -2.03399284288322       -3.33046610870999       -0.95656113319681
H           -2.91878663976889       -2.09875156184075       -0.08459355218850
H            1.63992008844689       -2.96809200086046        0.06537988034482
