      -----------------------------------------------------------      
     |                   =====================                   |     
     |                           x T B                           |     
     |                   =====================                   |     
     |                         S. Grimme                         |     
     |          Mulliken Center for Theoretical Chemistry        |     
     |                    University of Bonn                     |     
      -----------------------------------------------------------      

   * xtb version 6.6.1 (8d0f1dd) compiled by 'conda@1efc2f54142f' on 2023-08-01

   xtb is free software: you can redistribute it and/or modify it under
   the terms of the GNU Lesser General Public License as published by
   the Free Software Foundation, either version 3 of the License, or
   (at your option) any later version.
   
   xtb is distributed in the hope that it will be useful,
   but WITHOUT ANY WARRANTY; without even the implied warranty of
   MERCHANTABILITY or FITNESS FOR A PARTICULAR PURPOSE.  See the
   GNU Lesser General Public License for more details.
   
   Cite this work as:
   * C. Bannwarth, E. Caldeweyher, S. Ehlert, A. Hansen, P. Pracht,
     J. Seibert, S. Spicher, S. Grimme, WIREs Comput. Mol. Sci., 2020, 11,
     e01493. DOI: 10.1002/wcms.1493
   
   for GFN2-xTB:
   * C. Bannwarth, S. Ehlert and S. Grimme., J. Chem. Theory Comput., 2019,
     15, 1652-1671. DOI: 10.1021/acs.jctc.8b01176
   for GFN1-xTB:
   * S. Grimme, C. Bannwarth, P. Shushkov, J. Chem. Theory Comput., 2017,
     13, 1989-2009. DOI: 10.1021/acs.jctc.7b00118
   for GFN0-xTB:
   * P. Pracht, E. Caldeweyher, S. Ehlert, S. Grimme, ChemRxiv, 2019, preprint.
     DOI: 10.26434/chemrxiv.8326202.v1
   for GFN-FF:
   * S. Spicher and S. Grimme, Angew. Chem. Int. Ed., 2020, 59, 15665-15673.
     DOI: 10.1002/anie.202004239
   
   for ALPB and GBSA implicit solvation:
   * S. Ehlert, M. Stahn, S. Spicher, S. Grimme, J. Chem. Theory Comput.,
     2021, 17, 4250-4261. DOI: 10.1021/acs.jctc.1c00471
   
   for DFT-D4:
   * E. Caldeweyher, C. Bannwarth and S. Grimme, J. Chem. Phys., 2017,
     147, 034112. DOI: 10.1063/1.4993215
   * E. Caldeweyher, S. Ehlert, A. Hansen, H. Neugebauer, S. Spicher,
     C. Bannwarth and S. Grimme, J. Chem. Phys., 2019, 150, 154122.
     DOI: 10.1063/1.5090222
   * E. Caldeweyher, J.-M. Mewes, S. Ehlert and S. Grimme, Phys. Chem. Chem. Phys.
     2020, 22, 8499-8512. DOI: 10.1039/D0CP00502A
   
   for sTDA-xTB:
   * S. Grimme and C. Bannwarth, J. Chem. Phys., 2016, 145, 054103.
     DOI: 10.1063/1.4959605
   
   in the mass-spec context:
   * V. Asgeirsson, C. Bauer and S. Grimme, Chem. Sci., 2017, 8, 4879.
     DOI: 10.1039/c7sc00601b
   * J. Koopman and S. Grimme, ACS Omega 2019, 4, 12, 15120-15133.
     DOI: 10.1021/acsomega.9b02011
   
   for metadynamics refer to:
   * S. Grimme, J. Chem. Theory Comput., 2019, 155, 2847-2862
     DOI: 10.1021/acs.jctc.9b00143
   
   for SPH calculations refer to:
   * S. Spicher and S. Grimme, J. Chem. Theory Comput., 2021, 17, 1701-1714
     DOI: 10.1021/acs.jctc.0c01306
   
   with help from (in alphabetical order)
   P. Atkinson, C. Bannwarth, F. Bohle, G. Brandenburg, E. Caldeweyher
   M. Checinski, S. Dohm, S. Ehlert, S. Ehrlich, I. Gerasimov, C. Hölzer
   A. Katbashev, J. Koopman, C. Lavigne, S. Lehtola, F. März, M. Müller,
   F. Musil, H. Neugebauer, J. Pisarek, C. Plett, P. Pracht, F. Pultar,
   J. Seibert, P. Shushkov, S. Spicher, M. Stahn, M. Steiner, T. Strunk,
   J. Stückrath, T. Rose, and J. Unsleber
   
 * started run on 2024/04/06 at 11:15:13.876     

           -------------------------------------------------
          |                Calculation Setup                |
           -------------------------------------------------

          program call               : xtb xtbopt.xyz --opt crude --input .xc2 --gfn2
          hostname                   : n-62-30-23
          coordinate file            : xtbopt.xyz
          omp threads                :                     1

   ID    Z sym.   atoms
    1    7 N      1, 17
    2    6 C      2-6, 8, 9, 11-16, 18-23, 25, 26, 28-33
    3    8 O      7, 10, 24, 27
    4    1 H      34-72
########################################################################
[WARNING] Please study the warnings concerning your input carefully
-1- readin_getIntValue: could not parse ''
########################################################################

           -------------------------------------------------
          |                 G F N 2 - x T B                 |
           -------------------------------------------------

        Reference                      10.1021/acs.jctc.8b01176
      * Hamiltonian:
        H0-scaling (s, p, d)           1.850000    2.230000    2.230000
        zeta-weighting                 0.500000
      * Dispersion:
        s8                             2.700000
        a1                             0.520000
        a2                             5.000000
        s9                             5.000000
      * Repulsion:
        kExp                           1.500000    1.000000
        rExp                           1.000000
      * Coulomb:
        alpha                          2.000000
        third order                    shell-resolved
        anisotropic                    true
        a3                             3.000000
        a5                             4.000000
        cn-shift                       1.200000
        cn-exp                         4.000000
        max-rad                        5.000000

q/qsh data taken from xtbrestart
CAMM data taken from xtbrestart

          ...................................................
          :                      SETUP                      :
          :.................................................:
          :  # basis functions                 171          :
          :  # atomic orbitals                 171          :
          :  # shells                          105          :
          :  # electrons                       180          :
          :  max. iterations                   250          :
          :  Hamiltonian                  GFN2-xTB          :
          :  restarted?                       true          :
          :  GBSA solvation                  false          :
          :  PC potential                    false          :
          :  electronic temp.         5000.0000000     K    :
          :  accuracy                    1.0000000          :
          :  -> integral cutoff          0.2500000E+02      :
          :  -> integral neglect         0.1000000E-07      :
          :  -> SCF convergence          0.1000000E-05 Eh   :
          :  -> wf. convergence          0.1000000E-03 e    :
          :  Broyden damping             0.4000000          :
          ...................................................

 iter      E             dE          RMSdq      gap      omega  full diag
   1   -100.7220532 -0.100722E+03  0.147E-05    0.94       0.0  T
   2   -100.7220532  0.306954E-11  0.138E-05    0.94     856.8  T
   3   -100.7220532 -0.113403E-10  0.929E-06    0.94    1268.8  T

   *** convergence criteria satisfied after 3 iterations ***

         #    Occupation            Energy/Eh            Energy/eV
      -------------------------------------------------------------
         1        2.0000           -0.8117431             -22.0887
       ...           ...                  ...                  ...
        84        1.9916           -0.5117916             -13.9266
        85        1.9702           -0.4915193             -13.3749
        86        1.9651           -0.4889872             -13.3060
        87        1.9048           -0.4725995             -12.8601
        88        1.8569           -0.4657486             -12.6737
        89        1.8021           -0.4601415             -12.5211
        90        1.7183           -0.4537978             -12.3485 (HOMO)
        91        0.8194           -0.4193820             -11.4120 (LUMO)
        92        0.0086           -0.3388842              -9.2215
        93        0.0021           -0.3168941              -8.6231
        94        0.0018           -0.3139007              -8.5417
        95        0.0017           -0.3129332              -8.5153
       ...           ...                  ...                  ...
       171                          0.5745744              15.6350
      -------------------------------------------------------------
                  HL-Gap            0.0344159 Eh            0.9365 eV
             Fermi-level           -0.4251635 Eh          -11.5693 eV

 SCC (total)                   0 d,  0 h,  0 min,  0.119 sec
 SCC setup                      ...        0 min,  0.001 sec (  0.911%)
 Dispersion                     ...        0 min,  0.002 sec (  1.621%)
 classical contributions        ...        0 min,  0.001 sec (  0.424%)
 integral evaluation            ...        0 min,  0.018 sec ( 15.216%)
 iterations                     ...        0 min,  0.028 sec ( 23.249%)
 molecular gradient             ...        0 min,  0.069 sec ( 58.037%)
 printout                       ...        0 min,  0.001 sec (  0.527%)

         :::::::::::::::::::::::::::::::::::::::::::::::::::::
         ::                     SUMMARY                     ::
         :::::::::::::::::::::::::::::::::::::::::::::::::::::
         :: total energy             -99.366424917475 Eh    ::
         :: gradient norm              0.024697809550 Eh/a0 ::
         :: HOMO-LUMO gap              0.936503586341 eV    ::
         ::.................................................::
         :: SCC energy              -100.722053207176 Eh    ::
         :: -> isotropic ES            0.102479640671 Eh    ::
         :: -> anisotropic ES          0.006756835259 Eh    ::
         :: -> anisotropic XC          0.045710720818 Eh    ::
         :: -> dispersion             -0.071646643149 Eh    ::
         :: repulsion energy           1.354774084833 Eh    ::
         :: add. restraining           0.000000000000 Eh    ::
         :: total charge               1.000000000000 e     ::
         :::::::::::::::::::::::::::::::::::::::::::::::::::::

      ----------------------------------------------------------- 
     |                   =====================                   |
     |                        A N C O P T                        |
     |                   =====================                   |
     |               Approximate Normal Coordinate               |
     |                Rational Function Optimizer                |
      ----------------------------------------------------------- 

          ...................................................
          :                      SETUP                      :
          :.................................................:
          :   optimization level             crude          :
          :   max. optcycles                   200          :
          :   ANC micro-cycles                  20          :
          :   degrees of freedom               210          :
          :.................................................:
          :   RF solver                   davidson          :
          :   write xtbopt.log                true          :
          :   linear?                        false          :
          :   energy convergence         0.5000000E-03 Eh   :
          :   grad. convergence          0.1000000E-01 Eh/α :
          :   maxmium RF displ.          1.0000000          :
          :   Hlow (freq-cutoff)         0.1000000E-01      :
          :   Hmax (freq-cutoff)         5.0000000          :
          :   S6 in model hess.         20.0000000          :
          ...................................................

generating ANC from model Hessian ...
Using Lindh-Hessian (1995)
 Shifting diagonal of input Hessian by    9.9636025717699823E-003
 Lowest  eigenvalues of input Hessian
    0.000000    0.000000    0.000000    0.000000    0.000000    0.000000
    0.010000    0.010017    0.010099    0.010183    0.010247    0.010583
    0.010673    0.010729    0.010891    0.011438    0.011789    0.012164
 Highest eigenvalues
    1.926386    2.043096    2.044506    2.110804    2.183713    2.183920


........................................................................
.............................. CYCLE    1 ..............................
........................................................................

 iter      E             dE          RMSdq      gap      omega  full diag
   1   -100.7220532 -0.100722E+03  0.792E-06    0.94       0.0  T
   2   -100.7220532  0.310365E-10  0.187E-05    0.94     629.9  T
   3   -100.7220532 -0.362235E-10  0.287E-06    0.94    4105.5  T
     SCC iter.                  ...        0 min,  0.026 sec
     gradient                   ...        0 min,  0.068 sec
 * total energy  :   -99.3664249 Eh     change       -0.5840661E-11 Eh
   gradient norm :     0.0246978 Eh/α   predicted     0.0000000E+00 (-100.00%)
   displ. norm   :     0.2029299 α      lambda       -0.3985287E-02
   maximum displ.:     0.0604557 α      in ANC's #67, #54, #76, ...

........................................................................
.............................. CYCLE    2 ..............................
........................................................................

 iter      E             dE          RMSdq      gap      omega  full diag
   1   -100.7312777 -0.100731E+03  0.115E-01    0.95       0.0  T
   2   -100.7312697  0.794481E-05  0.684E-02    0.93       1.0  T
   3   -100.7305230  0.746749E-03  0.858E-02    1.02       1.0  T
   4   -100.7312842 -0.761188E-03  0.597E-03    0.94       2.0  T
   5   -100.7312846 -0.446770E-06  0.415E-03    0.94       2.8  T
   6   -100.7312859 -0.128614E-05  0.139E-03    0.94       8.5  T
   7   -100.7312860 -0.879126E-07  0.547E-04    0.94      21.5  T
   8   -100.7312860 -0.173439E-07  0.218E-04    0.94      54.1  T
     SCC iter.                  ...        0 min,  0.065 sec
     gradient                   ...        0 min,  0.068 sec
 * total energy  :   -99.3688386 Eh     change       -0.2413676E-02 Eh
   gradient norm :     0.0090986 Eh/α   predicted    -0.2074702E-02 ( -14.04%)
   displ. norm   :     0.1005782 α      lambda       -0.4501863E-03
   maximum displ.:     0.0420583 α      in ANC's #41, #54, #37, ...

........................................................................
.............................. CYCLE    3 ..............................
........................................................................

 iter      E             dE          RMSdq      gap      omega  full diag
   1   -100.7339899 -0.100734E+03  0.467E-02    0.95       0.0  T
   2   -100.7339755  0.144775E-04  0.294E-02    0.93       1.0  T
   3   -100.7337006  0.274879E-03  0.566E-02    0.99       1.0  T
   4   -100.7339923 -0.291757E-03  0.486E-03    0.95       2.4  T
   5   -100.7339949 -0.251993E-05  0.148E-03    0.95       7.9  T
   6   -100.7339950 -0.102661E-06  0.765E-04    0.95      15.4  T
   7   -100.7339950 -0.266317E-07  0.254E-04    0.95      46.5  T
     SCC iter.                  ...        0 min,  0.058 sec
     gradient                   ...        0 min,  0.068 sec
 * total energy  :   -99.3691319 Eh     change       -0.2933529E-03 Eh
   gradient norm :     0.0037516 Eh/α   predicted    -0.2273851E-03 ( -22.49%)
   displ. norm   :     0.1018864 α      lambda       -0.1619584E-03
   maximum displ.:     0.0431643 α      in ANC's #41, #54, #7, ...

   *** GEOMETRY OPTIMIZATION CONVERGED AFTER 3 ITERATIONS ***

------------------------------------------------------------------------
 total energy gain   :        -0.0027070 Eh       -1.6987 kcal/mol
 total RMSD          :         0.0337729 a0        0.0179 Å
 total power (kW/mol):        -2.3691016 (step)  -14.9033 (real)
------------------------------------------------------------------------

 ANCopt (total)                0 d,  0 h,  0 min,  0.477 sec
 optimizer setup                ...        0 min,  0.000 sec (  0.047%)
 model hessian                  ...        0 min,  0.046 sec (  9.632%)
 ANC generation                 ...        0 min,  0.007 sec (  1.363%)
 coordinate transformation      ...        0 min,  0.000 sec (  0.039%)
 single point calculation       ...        0 min,  0.419 sec ( 87.880%)
 optimization log               ...        0 min,  0.002 sec (  0.465%)
 hessian update                 ...        0 min,  0.000 sec (  0.028%)
 rational function              ...        0 min,  0.001 sec (  0.251%)

================
 final structure:
================
72
 xtb: 6.6.1 (8d0f1dd)
N           -2.67627876783749        2.97134654214103        2.59570898575315
C           -2.42154265837434        2.06337557088009        1.77801534139655
C           -3.25191152651600        1.77466811521705        0.55324458515602
C           -3.92317779246462        0.41739716983274        0.70209446213334
C           -4.62360107597949       -0.13015443273200       -0.37336211061833
C           -5.25530622557262       -1.35958789131291       -0.27738297443089
O           -5.96950013383597       -1.94705595918791       -1.25727067982671
C           -6.20239769827897       -1.25025453994159       -2.45842990596284
C           -5.16791309750762       -2.09911492699716        0.93512271248345
O           -5.78249043745540       -3.29510334461553        0.92959698237199
C           -5.75965393408678       -4.08667336769139        2.09539075339385
C           -4.48075782779461       -1.54223897698839        2.00378370045338
C           -3.87678535964338       -0.29906647544246        1.89029054120783
C           -2.21640523708917        1.69813242728621       -0.61065070052992
C           -1.23467016561011        0.61744757935808       -0.42363037525323
C            0.20502644412248        0.79161637091792       -0.71119619013205
N            0.88780616612153       -0.47447066915006       -0.81407622242205
C            2.29169215432259       -0.49158266416195       -0.49615081994021
C            3.23158784831460        0.00211701573350       -1.62208146675997
C            4.63833274033142        0.15535876848245       -1.12582895125838
C            5.26124686637485        1.39591506154456       -1.11454573662674
C            6.56519097411289        1.53746213907835       -0.66713024677505
C            7.27463042600233        0.44010560631418       -0.19787232903566
O            8.53812168768964        0.45745384750452        0.25981496200680
C            9.26029539704225        1.66756948423850        0.25036102371545
C            6.63917475162054       -0.83524296806718       -0.18489160938814
O            7.38858646809139       -1.84104472522103        0.30304351778483
C            6.83860208042805       -3.13411764036820        0.39224426169625
C            5.34199507343234       -0.95379373988562       -0.65885796673962
C            0.49620505272763       -1.27038439162546       -1.95089784354835
C           -4.33753775236162        2.84770094242548        0.26555479897560
C           -5.40449815011310        2.85550316424805        1.35871806328854
C           -3.77234839486478        4.25481401008512        0.09031960913211
H           -4.68880935595864        0.41732994233653       -1.29937893744057
H           -6.71641249469260       -0.30128425255356       -2.27735808309450
H           -6.84341486208479       -1.89882134986438       -3.05243265555404
H           -5.27180948495536       -1.06583522842989       -3.00473571220909
H           -6.24330621545105       -3.57801187391215        2.93434097821477
H           -6.31880920387238       -4.98695281950097        1.84809679652962
H           -4.73699278124434       -4.35945817520215        2.37337831824121
H           -4.41512168989686       -2.06905886104045        2.94165178599614
H           -3.37650552209909        0.11051921402823        2.75338298206925
H           -2.77890695969200        1.54210140566171       -1.53990433164013
H           -1.69908126577607        2.65496948587004       -0.71001995910227
H           -1.56239454118321       -0.32392596427790       -0.01212044571355
H            0.32558669483287        1.41551300064589       -1.61944392477987
H           -1.54590289286892        1.39523708807266        1.84220790597651
H            0.67467798296078        1.35991495794789        0.10864123692375
H            2.55729524349712       -1.52063628378801       -0.23946221032300
H            2.44918588761163        0.12596447939025        0.39156022745619
H            2.87145970447850        0.96164605431593       -1.99659971726660
H            3.20899908793533       -0.71785383344949       -2.44287756218049
H            4.73362246597393        2.26700240018532       -1.47206906298747
H            7.02357756157023        2.51267353234882       -0.68708739688138
H            8.78902557129311        2.42069242840559        0.88893119098189
H            9.36464928462396        2.06218350397835       -0.76468774368907
H           10.24428436526986        1.42347086617292        0.64611711527183
H            7.61552371051859       -3.75181758693988        0.83862457723329
H            5.95165227436547       -3.14770400594694        1.03352138865398
H            6.58362305317858       -3.53121844909113       -0.59499565125335
H            4.86612031467439       -1.92109040644345       -0.67777281848339
H            0.78747677252782       -0.81643033373679       -2.90777355755447
H           -0.58633825129484       -1.38807358556636       -1.94771565600048
H            0.95587719719481       -2.25364867688041       -1.87603414792271
H           -4.82226470865104        2.56222196643335       -0.67517398136540
H           -4.96520676167838        3.16325198011472        2.30238823528423
H           -5.84872005323744        1.87068941344798        1.48170774080954
H           -6.19205713578206        3.55745737225218        1.09733970886872
H           -3.24844375425037        4.56622378248538        0.98870336686380
H           -3.09876826937208        4.32167643223198       -0.76012740111555
H           -4.59140519263590        4.94810309510665       -0.08224285898096
H           -2.04716807422003        3.09902170584352        3.38163693107137

 Bond Distances (Angstroems)
 ---------------------------
N1-C2=1.2482         N1-H72=1.0148        C2-N1=1.2482         C2-C3=1.5076         C2-H47=1.1033        C3-C2=1.5076         
C3-C4=1.5215         C3-C14=1.5597        C3-C31=1.5533        C4-C3=1.5215         C4-C5=1.3954         C4-C13=1.3883        
C5-C4=1.3954         C5-C6=1.3856         C5-H34=1.0777        C6-C5=1.3856         C6-O7=1.3474         C6-C9=1.4229         
O7-C6=1.3474         O7-C8=1.4080         C8-O7=1.4080         C8-H35=1.0943        C8-H36=1.0883        C8-H37=1.0947        
C9-C6=1.4229         C9-O10=1.3447        C9-C12=1.3872        O10-C9=1.3447        O10-C11=1.4093       C11-O10=1.4093       
C11-H38=1.0938       C11-H39=1.0883       C11-H40=1.0943       C12-C9=1.3872        C12-C13=1.3868       C12-H41=1.0777       
C13-C4=1.3883        C13-C12=1.3868       C13-H42=1.0784       C14-C3=1.5597        C14-C15=1.4720       C14-H43=1.0974       
C14-H44=1.0923       C15-C14=1.4720       C15-C16=1.4784       C15-H45=1.0784       C16-C15=1.4784       C16-N17=1.4421       
C16-H46=1.1085       C16-H48=1.1026       N17-C16=1.4421       N17-C18=1.4395       N17-C30=1.4419       C18-N17=1.4395       
C18-C19=1.5475       C18-H49=1.0933       C18-H50=1.0928       C19-C18=1.5475       C19-C20=1.4996       C19-H51=1.0912       
C19-H52=1.0921       C20-C19=1.4996       C20-C21=1.3882       C20-C29=1.3941       C21-C20=1.3882       C21-C22=1.3858       
C21-H53=1.0794       C22-C21=1.3858       C22-C23=1.3884       C22-H54=1.0778       C23-C22=1.3884       C23-O24=1.3439       
C23-C26=1.4250       O24-C23=1.3439       O24-C25=1.4093       C25-O24=1.4093       C25-H55=1.0941       C25-H56=1.0940       
C25-H57=1.0883       C26-C23=1.4250       C26-O27=1.3459       C26-C29=1.3861       O27-C26=1.3459       O27-C28=1.4080       
C28-O27=1.4080       C28-H58=1.0883       C28-H59=1.0946       C28-H60=1.0942       C29-C20=1.3941       C29-C26=1.3861       
C29-H61=1.0782       C30-N17=1.4419       C30-H62=1.0984       C30-H63=1.0889       C30-H64=1.0880       C31-C3=1.5533        
C31-C32=1.5276       C31-C33=1.5265       C31-H65=1.0961       C32-C31=1.5276       C32-H66=1.0854       C32-H67=1.0873       
C32-H68=1.0869       C33-C31=1.5265       C33-H69=1.0856       C33-H70=1.0869       C33-H71=1.0869       H34-C5=1.0777        
H35-C8=1.0943        H36-C8=1.0883        H37-C8=1.0947        H38-C11=1.0938       H39-C11=1.0883       H40-C11=1.0943       
H41-C12=1.0777       H42-C13=1.0784       H43-C14=1.0974       H44-C14=1.0923       H45-C15=1.0784       H46-C16=1.1085       
H47-C2=1.1033        H48-C16=1.1026       H49-C18=1.0933       H50-C18=1.0928       H51-C19=1.0912       H52-C19=1.0921       
H53-C21=1.0794       H54-C22=1.0778       H55-C25=1.0941       H56-C25=1.0940       H57-C25=1.0883       H58-C28=1.0883       
H59-C28=1.0946       H60-C28=1.0942       H61-C29=1.0782       H62-C30=1.0984       H63-C30=1.0889       H64-C30=1.0880       
H65-C31=1.0961       H66-C32=1.0854       H67-C32=1.0873       H68-C32=1.0869       H69-C33=1.0856       H70-C33=1.0869       
H71-C33=1.0869       H72-N1=1.0148        
 C  H  Rav=1.0900 sigma=0.0074  Rmin=1.0777  Rmax=1.1085    38
 C  C  Rav=1.4512 sigma=0.0659  Rmin=1.3856  Rmax=1.5597    22
 N  H  Rav=1.0148 sigma=0.0000  Rmin=1.0148  Rmax=1.0148     1
 N  C  Rav=1.3929 sigma=0.0836  Rmin=1.2482  Rmax=1.4421     4
 O  C  Rav=1.3771 sigma=0.0316  Rmin=1.3439  Rmax=1.4093     8

 selected bond angles (degree)
 --------------------
H72-N1-C2=118.19               C3-C2-N1=123.99                H47-C2-N1=124.36               H47-C2-C3=111.62               
C4-C3-C2=109.53                C14-C3-C2=104.47               C14-C3-C4=108.79               C31-C3-C2=113.77               
C31-C3-C4=109.03               C31-C3-C14=111.08              C5-C4-C3=119.74                C13-C4-C3=121.96               
C13-C4-C5=118.29               C6-C5-C4=121.58                H34-C5-C4=119.56               H34-C5-C6=118.86               
O7-C6-C5=125.32                C9-C6-C5=119.48                C9-C6-O7=115.19                C8-O7-C6=119.49                
H35-C8-O7=111.45               H36-C8-O7=105.55               H36-C8-H35=109.30              H37-C8-O7=111.62               
H37-C8-H35=109.62              H37-C8-H36=109.19              O10-C9-C6=115.51               C12-C9-C6=118.57               
C12-C9-O10=125.92              C11-O10-C9=119.26              

 selected dihedral angles (degree)
 ---------------------------------
C3-C2-N1-H72=181.12           H47-C2-N1-H72=359.03          C4-C3-C2-N1=246.80            C4-C3-C2-H47= 68.65           
C14-C3-C2-N1=130.40           C14-C3-C2-H47=312.26          C31-C3-C2-N1=  9.09           C31-C3-C2-H47=190.95          
C5-C4-C3-C2=187.17            C5-C4-C3-C14=300.81           C5-C4-C3-C31= 62.09           C13-C4-C3-C2=  7.95           
C13-C4-C3-C14=121.58          C13-C4-C3-C31=242.86          C6-C5-C4-C3=180.36            C6-C5-C4-C13=359.62           
H34-C5-C4-C3=359.57           H34-C5-C4-C13=178.83          O7-C6-C5-C4=178.79            O7-C6-C5-H34=359.57           
C9-C6-C5-C4=358.66            C9-C6-C5-H34=179.45           C8-O7-C6-C5=354.96            C8-O7-C6-C9=175.08            
H35-C8-O7-C6=302.02           H36-C8-O7-C6=183.47           H37-C8-O7-C6= 64.96           O10-C9-C6-C5=181.56           
O10-C9-C6-O7=  1.45           C12-C9-C6-C5=  1.91           C12-C9-C6-O7=181.80           C11-O10-C9-C6=180.78          
C11-O10-C9-C12=  0.40         
           -------------------------------------------------
          |                Final Singlepoint                |
           -------------------------------------------------

          ...................................................
          :                      SETUP                      :
          :.................................................:
          :  # basis functions                 171          :
          :  # atomic orbitals                 171          :
          :  # shells                          105          :
          :  # electrons                       180          :
          :  max. iterations                   250          :
          :  Hamiltonian                  GFN2-xTB          :
          :  restarted?                      false          :
          :  GBSA solvation                  false          :
          :  PC potential                    false          :
          :  electronic temp.         5000.0000000     K    :
          :  accuracy                    1.0000000          :
          :  -> integral cutoff          0.2500000E+02      :
          :  -> integral neglect         0.1000000E-07      :
          :  -> SCF convergence          0.1000000E-05 Eh   :
          :  -> wf. convergence          0.1000000E-03 e    :
          :  Broyden damping             0.4000000          :
          ...................................................

 iter      E             dE          RMSdq      gap      omega  full diag
   1   -100.7339950 -0.100734E+03  0.945E-05    0.95       0.0  T
   2   -100.7339950  0.112246E-08  0.122E-04    0.95      96.5  T
   3   -100.7339950 -0.108122E-08  0.798E-05    0.95     147.7  T

   *** convergence criteria satisfied after 3 iterations ***

         #    Occupation            Energy/Eh            Energy/eV
      -------------------------------------------------------------
         1        2.0000           -0.8116826             -22.0870
       ...           ...                  ...                  ...
        84        1.9917           -0.5118334             -13.9277
        85        1.9702           -0.4913806             -13.3711
        86        1.9652           -0.4888943             -13.3035
        87        1.9063           -0.4727294             -12.8636
        88        1.8596           -0.4659414             -12.6789
        89        1.8020           -0.4599962             -12.5171
        90        1.7205           -0.4538033             -12.3486 (HOMO)
        91        0.8126           -0.4190217             -11.4022 (LUMO)
        92        0.0086           -0.3388003              -9.2192
        93        0.0021           -0.3166615              -8.6168
        94        0.0018           -0.3136969              -8.5361
        95        0.0017           -0.3128155              -8.5121
       ...           ...                  ...                  ...
       171                          0.5747673              15.6402
      -------------------------------------------------------------
                  HL-Gap            0.0347816 Eh            0.9465 eV
             Fermi-level           -0.4250282 Eh          -11.5656 eV

 SCC (total)                   0 d,  0 h,  0 min,  0.115 sec
 SCC setup                      ...        0 min,  0.001 sec (  0.759%)
 Dispersion                     ...        0 min,  0.002 sec (  1.365%)
 classical contributions        ...        0 min,  0.000 sec (  0.374%)
 integral evaluation            ...        0 min,  0.017 sec ( 15.042%)
 iterations                     ...        0 min,  0.026 sec ( 22.742%)
 molecular gradient             ...        0 min,  0.068 sec ( 59.220%)
 printout                       ...        0 min,  0.001 sec (  0.485%)

         :::::::::::::::::::::::::::::::::::::::::::::::::::::
         ::                     SUMMARY                     ::
         :::::::::::::::::::::::::::::::::::::::::::::::::::::
         :: total energy             -99.369131951328 Eh    ::
         :: gradient norm              0.003751754053 Eh/a0 ::
         :: HOMO-LUMO gap              0.946456694636 eV    ::
         ::.................................................::
         :: SCC energy              -100.733995000943 Eh    ::
         :: -> isotropic ES            0.102573032488 Eh    ::
         :: -> anisotropic ES          0.006714778178 Eh    ::
         :: -> anisotropic XC          0.045232499091 Eh    ::
         :: -> dispersion             -0.071645360680 Eh    ::
         :: repulsion energy           1.364010060542 Eh    ::
         :: add. restraining           0.000000000000 Eh    ::
         :: total charge               1.000000000000 e     ::
         :::::::::::::::::::::::::::::::::::::::::::::::::::::

           -------------------------------------------------
          |                Property Printout                |
           -------------------------------------------------

    * Orbital Energies and Occupations

         #    Occupation            Energy/Eh            Energy/eV
      -------------------------------------------------------------
         1        2.0000           -0.8116826             -22.0870
       ...           ...                  ...                  ...
        78        1.9974           -0.5303136             -14.4306
        79        1.9971           -0.5283001             -14.3758
        80        1.9961           -0.5237683             -14.2525
        81        1.9948           -0.5192798             -14.1303
        82        1.9941           -0.5173482             -14.0778
        83        1.9933           -0.5151682             -14.0184
        84        1.9917           -0.5118334             -13.9277
        85        1.9702           -0.4913806             -13.3711
        86        1.9652           -0.4888943             -13.3035
        87        1.9063           -0.4727294             -12.8636
        88        1.8596           -0.4659414             -12.6789
        89        1.8020           -0.4599962             -12.5171
        90        1.7205           -0.4538033             -12.3486 (HOMO)
        91        0.8126           -0.4190217             -11.4022 (LUMO)
        92        0.0086           -0.3388003              -9.2192
        93        0.0021           -0.3166615              -8.6168
        94        0.0018           -0.3136969              -8.5361
        95        0.0017           -0.3128155              -8.5121
        96        0.0014           -0.3098574              -8.4316
        97        0.0000           -0.1912857              -5.2051
        98        0.0000           -0.1875278              -5.1029
        99                         -0.1021814              -2.7805
       100                         -0.0655986              -1.7850
       101                         -0.0618900              -1.6841
       ...                                ...                  ...
       171                          0.5747673              15.6402
      -------------------------------------------------------------
                  HL-Gap            0.0347816 Eh            0.9465 eV
             Fermi-level           -0.4250282 Eh          -11.5656 eV

     #   Z          covCN         q      C6AA      α(0)
     1   7 N        1.774    -0.261    27.592     7.779
     2   6 C        2.829     0.104    25.698     8.307
     3   6 C        3.909     0.010    20.358     6.413
     4   6 C        2.974     0.008    27.843     8.655
     5   6 C        2.920    -0.075    29.884     8.965
     6   6 C        2.862     0.133    25.084     8.209
     7   8 O        1.706    -0.223    17.696     5.680
     8   6 C        3.644     0.026    20.469     6.503
     9   6 C        2.864     0.134    25.068     8.207
    10   8 O        1.706    -0.219    17.631     5.669
    11   6 C        3.645     0.024    20.502     6.508
    12   6 C        2.913    -0.067    29.675     8.933
    13   6 C        2.921    -0.044    29.099     8.846
    14   6 C        3.815    -0.062    21.673     6.626
    15   6 C        2.890    -0.051    29.268     8.870
    16   6 C        3.751     0.005    20.548     6.465
    17   7 N        2.729    -0.117    23.541     7.206
    18   6 C        3.749    -0.005    20.722     6.492
    19   6 C        3.806    -0.071    21.861     6.656
    20   6 C        2.966     0.009    27.823     8.652
    21   6 C        2.922    -0.044    29.091     8.845
    22   6 C        2.913    -0.065    29.627     8.925
    23   6 C        2.864     0.135    25.039     8.202
    24   8 O        1.706    -0.215    17.574     5.660
    25   6 C        3.645     0.023    20.514     6.510
    26   6 C        2.862     0.136    25.036     8.201
    27   8 O        1.706    -0.219    17.629     5.669
    28   6 C        3.645     0.025    20.484     6.505
    29   6 C        2.919    -0.077    29.917     8.970
    30   6 C        3.703    -0.049    21.619     6.648
    31   6 C        3.852    -0.008    20.688     6.469
    32   6 C        3.756    -0.119    22.830     6.813
    33   6 C        3.755    -0.119    22.826     6.812
    34   1 H        0.926     0.052     2.297     2.370
    35   1 H        0.924     0.056     2.252     2.347
    36   1 H        0.925     0.083     1.945     2.181
    37   1 H        0.924     0.050     2.323     2.383
    38   1 H        0.924     0.058     2.218     2.329
    39   1 H        0.925     0.084     1.942     2.179
    40   1 H        0.924     0.055     2.258     2.350
    41   1 H        0.926     0.060     2.200     2.319
    42   1 H        0.926     0.048     2.345     2.395
    43   1 H        0.924     0.082     1.956     2.187
    44   1 H        0.924     0.063     2.166     2.302
    45   1 H        0.926     0.060     2.202     2.321
    46   1 H        0.922     0.053     2.279     2.361
    47   1 H        0.923     0.018     2.771     2.603
    48   1 H        0.923     0.074     2.039     2.233
    49   1 H        0.924     0.056     2.250     2.346
    50   1 H        0.924     0.048     2.345     2.395
    51   1 H        0.924     0.046     2.365     2.405
    52   1 H        0.924     0.057     2.235     2.338
    53   1 H        0.926     0.051     2.307     2.375
    54   1 H        0.926     0.061     2.189     2.314
    55   1 H        0.924     0.058     2.228     2.334
    56   1 H        0.924     0.059     2.212     2.326
    57   1 H        0.925     0.084     1.934     2.175
    58   1 H        0.925     0.084     1.941     2.179
    59   1 H        0.924     0.053     2.287     2.365
    60   1 H        0.924     0.056     2.248     2.345
    61   1 H        0.926     0.052     2.291     2.367
    62   1 H        0.923     0.042     2.421     2.433
    63   1 H        0.925     0.057     2.230     2.335
    64   1 H        0.925     0.061     2.189     2.313
    65   1 H        0.924     0.039     2.468     2.457
    66   1 H        0.925     0.071     2.073     2.252
    67   1 H        0.925     0.037     2.492     2.469
    68   1 H        0.925     0.053     2.286     2.364
    69   1 H        0.925     0.063     2.164     2.300
    70   1 H        0.925     0.034     2.527     2.486
    71   1 H        0.925     0.056     2.248     2.344
    72   1 H        0.860     0.164     1.310     1.793

 Mol. C6AA /au·bohr⁶  :      47479.228103
 Mol. C8AA /au·bohr⁸  :    1082015.254752
 Mol. α(0) /au        :        334.538529


Wiberg/Mayer (AO) data.
largest (>0.10) Wiberg bond orders for each atom

 ---------------------------------------------------------------------------
     #   Z sym  total        # sym  WBO       # sym  WBO       # sym  WBO
 ---------------------------------------------------------------------------
     1   7 N    3.024 --     2 C    1.962    72 H    0.937
     2   6 C    3.933 --     1 N    1.962     3 C    0.988    47 H    0.919
     3   6 C    3.946 --     2 C    0.988     4 C    0.971    31 C    0.951
                            14 C    0.926
     4   6 C    3.932 --    13 C    1.401     5 C    1.374     3 C    0.971
     5   6 C    3.953 --     6 C    1.396     4 C    1.374    34 H    0.955
     6   6 C    3.890 --     5 C    1.396     9 C    1.213     7 O    1.106
     7   8 O    2.249 --     6 C    1.106     8 C    0.977
     8   6 C    3.929 --     7 O    0.977    36 H    0.976    35 H    0.973
                            37 H    0.972
     9   6 C    3.884 --    12 C    1.381     6 C    1.213    10 O    1.113
    10   8 O    2.251 --     9 C    1.113    11 C    0.975
    11   6 C    3.926 --    39 H    0.976    10 O    0.975    40 H    0.972
                            38 H    0.972
    12   6 C    3.953 --    13 C    1.417     9 C    1.381    41 H    0.962
    13   6 C    3.939 --    12 C    1.417     4 C    1.401    42 H    0.961
    14   6 C    3.978 --    15 C    1.094    44 H    0.958     3 C    0.926
                            43 H    0.911
    15   6 C    3.230 --    14 C    1.094    16 C    1.068    45 H    0.965
    16   6 C    3.970 --    15 C    1.068    17 N    1.007    46 H    0.926
                            48 H    0.917
    17   7 N    3.116 --    18 C    1.015    30 C    1.015    16 C    1.007
    18   6 C    3.964 --    17 N    1.015    50 H    0.970    49 H    0.964
                            19 C    0.959
    19   6 C    3.968 --    20 C    1.018    51 H    0.974    52 H    0.961
                            18 C    0.959
    20   6 C    3.925 --    21 C    1.393    29 C    1.377    19 C    1.018
    21   6 C    3.926 --    22 C    1.421    20 C    1.393    53 H    0.967
    22   6 C    3.948 --    21 C    1.421    23 C    1.375    54 H    0.962
    23   6 C    3.871 --    22 C    1.375    26 C    1.206    24 O    1.117
    24   8 O    2.247 --    23 C    1.117    25 C    0.975
    25   6 C    3.924 --    57 H    0.976    24 O    0.975    56 H    0.971
                            55 H    0.971
    26   6 C    3.881 --    29 C    1.393    23 C    1.206    27 O    1.111
    27   8 O    2.249 --    26 C    1.111    28 C    0.977
    28   6 C    3.928 --    27 O    0.977    58 H    0.976    59 H    0.972
                            60 H    0.972
    29   6 C    3.949 --    26 C    1.393    20 C    1.377    61 H    0.961
    30   6 C    3.965 --    17 N    1.015    64 H    0.979    63 H    0.975
                            62 H    0.963
    31   6 C    3.972 --    33 C    1.008    32 C    1.006    65 H    0.958
                             3 C    0.951
    32   6 C    3.973 --    31 C    1.006    67 H    0.981    68 H    0.981
                            66 H    0.972
    33   6 C    3.979 --    31 C    1.008    70 H    0.981    71 H    0.979
                            69 H    0.975
    34   1 H    0.996 --     5 C    0.955
    35   1 H    0.992 --     8 C    0.973
    36   1 H    0.992 --     8 C    0.976
    37   1 H    0.992 --     8 C    0.972
    38   1 H    0.990 --    11 C    0.972
    39   1 H    0.992 --    11 C    0.976
    40   1 H    0.990 --    11 C    0.972
    41   1 H    0.994 --    12 C    0.962
    42   1 H    0.997 --    13 C    0.961
    43   1 H    0.944 --    14 C    0.911
    44   1 H    0.988 --    14 C    0.958
    45   1 H    0.996 --    15 C    0.965
    46   1 H    0.957 --    16 C    0.926
    47   1 H    0.979 --     2 C    0.919
    48   1 H    0.947 --    16 C    0.917
    49   1 H    0.990 --    18 C    0.964
    50   1 H    0.996 --    18 C    0.970
    51   1 H    0.997 --    19 C    0.974
    52   1 H    0.991 --    19 C    0.961
    53   1 H    0.996 --    21 C    0.967
    54   1 H    0.994 --    22 C    0.962
    55   1 H    0.989 --    25 C    0.971
    56   1 H    0.989 --    25 C    0.971
    57   1 H    0.992 --    25 C    0.976
    58   1 H    0.992 --    28 C    0.976
    59   1 H    0.991 --    28 C    0.972
    60   1 H    0.990 --    28 C    0.972
    61   1 H    0.995 --    29 C    0.961
    62   1 H    0.978 --    30 C    0.963
    63   1 H    0.992 --    30 C    0.975
    64   1 H    0.994 --    30 C    0.979
    65   1 H    0.990 --    31 C    0.958
    66   1 H    0.989 --    32 C    0.972
    67   1 H    0.996 --    32 C    0.981
    68   1 H    0.993 --    32 C    0.981
    69   1 H    0.992 --    33 C    0.975
    70   1 H    0.996 --    33 C    0.981
    71   1 H    0.993 --    33 C    0.979
    72   1 H    0.965 --     1 N    0.937
 ---------------------------------------------------------------------------

Topologies differ in total number of bonds
Writing topology from bond orders to xtbtopo.mol

molecular dipole:
                 x           y           z       tot (Debye)
 q only:        0.479       0.040      -0.274
   full:        0.868       0.023      -0.406       2.437
molecular quadrupole (traceless):
                xx          xy          yy          xz          yz          zz
 q only:       72.500      10.109     -27.540      -3.768      -7.041     -44.960
  q+dip:       64.919      14.759     -27.239      -2.598      -9.453     -37.680
   full:       65.223      14.541     -28.346      -4.675      -9.321     -36.877

           -------------------------------------------------
          |                Geometry Summary                 |
           -------------------------------------------------

      molecular mass/u    :      455.6105846
   center of mass at/Å    :       -0.0386489       0.0022769       0.0421599
  moments of inertia/u·Å² :        0.2464336E+04   0.1275809E+05   0.1390753E+05
rotational constants/cm⁻¹ :        0.6840639E-02   0.1321329E-02   0.1212123E-02

 * 66 selected distances

     #   Z          #   Z                                           value/Å
     1   7 N        2   6 C                                       1.2481686
     4   6 C        5   6 C                                       1.3953540
     5   6 C        6   6 C                                       1.3855578
     6   6 C        7   8 O                                       1.3473574
     7   8 O        8   6 C                                       1.4080331
     6   6 C        9   6 C                                       1.4229224
     9   6 C       10   8 O                                       1.3446652
    10   8 O       11   6 C                                       1.4093190
     9   6 C       12   6 C                                       1.3872022
     4   6 C       13   6 C                                       1.3882661
    12   6 C       13   6 C                                       1.3867738
    14   6 C       15   6 C                                       1.4719580
    15   6 C       16   6 C                                       1.4784301
    16   6 C       17   7 N                                       1.4421336
    17   7 N       18   6 C                                       1.4395366
    20   6 C       21   6 C                                       1.3882109
    21   6 C       22   6 C                                       1.3858163
    22   6 C       23   6 C                                       1.3884160
    23   6 C       24   8 O                                       1.3439454
    24   8 O       25   6 C                                       1.4092567
    23   6 C       26   6 C                                       1.4249515
    26   6 C       27   8 O                                       1.3458589
    27   8 O       28   6 C                                       1.4080048
    20   6 C       29   6 C                                       1.3940668
    26   6 C       29   6 C                                       1.3861363
    17   7 N       30   6 C                                       1.4419410
    31   6 C       32   6 C                                       1.5275705 (max)
    31   6 C       33   6 C                                       1.5264711
     5   6 C       34   1 H                                       1.0777285
     8   6 C       35   1 H                                       1.0943231
     8   6 C       36   1 H                                       1.0882929
     8   6 C       37   1 H                                       1.0947398
    11   6 C       38   1 H                                       1.0938436
    11   6 C       39   1 H                                       1.0882611
    11   6 C       40   1 H                                       1.0943147
    12   6 C       41   1 H                                       1.0777031 (min)
    13   6 C       42   1 H                                       1.0784105
    14   6 C       43   1 H                                       1.0973907
    14   6 C       44   1 H                                       1.0922617
    15   6 C       45   1 H                                       1.0783914
    16   6 C       46   1 H                                       1.1084656
     2   6 C       47   1 H                                       1.1033018
    16   6 C       48   1 H                                       1.1025740
    18   6 C       49   1 H                                       1.0933369
    18   6 C       50   1 H                                       1.0927945
    19   6 C       51   1 H                                       1.0911702
    19   6 C       52   1 H                                       1.0920507
    21   6 C       53   1 H                                       1.0793534
    22   6 C       54   1 H                                       1.0777542
    25   6 C       55   1 H                                       1.0941031
    25   6 C       56   1 H                                       1.0940449
    25   6 C       57   1 H                                       1.0883205
    28   6 C       58   1 H                                       1.0883088
    28   6 C       59   1 H                                       1.0945781
    28   6 C       60   1 H                                       1.0942332
    29   6 C       61   1 H                                       1.0781826
    30   6 C       62   1 H                                       1.0984193
    30   6 C       63   1 H                                       1.0889266
    30   6 C       64   1 H                                       1.0879853
    31   6 C       65   1 H                                       1.0960973
    32   6 C       66   1 H                                       1.0854492
    32   6 C       67   1 H                                       1.0873444
    32   6 C       68   1 H                                       1.0868798
    33   6 C       69   1 H                                       1.0856085
    33   6 C       70   1 H                                       1.0869412
    33   6 C       71   1 H                                       1.0868679

 * 4 distinct bonds (by element types)

   Z      Z             #   av. dist./Å        max./Å        min./Å
   1 H    6 C          38     1.0899672     1.1084656     1.0777031
   6 C    6 C          16     1.4211315     1.5275705     1.3855578
   6 C    7 N           4     1.3929450     1.4421336     1.2481686
   6 C    8 O           8     1.3770551     1.4093190     1.3439454


optimized geometry written to: xtbopt.xyz


           -------------------------------------------------
          | TOTAL ENERGY              -99.369131951328 Eh   |
          | GRADIENT NORM               0.003751754053 Eh/α |
          | HOMO-LUMO GAP               0.946456694636 eV   |
           -------------------------------------------------

------------------------------------------------------------------------
 * finished run on 2024/04/06 at 11:15:14.637     
------------------------------------------------------------------------
 total:
 * wall-time:     0 d,  0 h,  0 min,  0.760 sec
 *  cpu-time:     0 d,  0 h,  0 min,  0.735 sec
 * ratio c/w:     0.967 speedup
 SCF:
 * wall-time:     0 d,  0 h,  0 min,  0.120 sec
 *  cpu-time:     0 d,  0 h,  0 min,  0.119 sec
 * ratio c/w:     0.999 speedup
 ANC optimizer:
 * wall-time:     0 d,  0 h,  0 min,  0.599 sec
 *  cpu-time:     0 d,  0 h,  0 min,  0.592 sec
 * ratio c/w:     0.989 speedup

