25
 energy: 0.000000000000 xtb: 6.6.1 (8d0f1dd)
C            3.23720163006194        1.16630919979326        0.08434469647475
N            2.29877817382611        0.07527477071623        0.03981603040599
C            2.58028210190900       -1.21425402444508        0.03006176031096
N            1.43813958087363       -1.93419271955128        0.00098261760884
C            0.39035688448383       -1.05887472636071       -0.00790371836672
C            0.93510056364412        0.21347819449412        0.01709077491437
C            0.09450143893243        1.40504303904423       -0.00410947031874
O            0.49712751527797        2.54126714362870       -0.00342325688240
N           -1.25076640035757        1.06271879480407       -0.03085478223738
C           -2.21907211982101        2.15522099834493       -0.05001256985998
C           -1.81739487048744       -0.20012725993278       -0.04692818574614
O           -2.99983886758376       -0.37846417018721       -0.07008878229737
N           -0.92618586207120       -1.30210215599479       -0.03682761578324
C           -1.46982264913417       -2.64643102187190       -0.06029820460571
H            3.71247264356769        1.21471455160235        1.06488849150277
H            4.00791497605742        1.03430808813993       -0.67357694370751
H            2.69910007168542        2.09770118228144       -0.09130154882931
H            3.56654120610678       -1.63682992603973        0.04233140067262
H           -1.67107961066214        3.09322851271934       -0.02552706933167
H           -2.82428953597071        2.09428624779827       -0.95318082946668
H           -2.87644029173232        2.07745725625962        0.81450067533302
H           -1.17061996399332       -3.19584890659852        0.83242232437030
H           -1.14560257411436       -3.17511610292205       -0.95688275822323
H           -2.55549792440841       -2.55659984320617       -0.07459039797972
H            1.38130855184625       -2.94313852034425       -0.01389874181052
25
 energy: -3.072192846701 xtb: 6.6.1 (8d0f1dd)
C            3.25054310638032        1.17421678329981        0.08624322195175
N            2.30738202460052        0.09659867569979        0.04166305772819
C            2.60169357099595       -1.22809934122889        0.03481680400968
N            1.42936866372328       -1.93752557231524        0.01210568525733
C            0.38481327604761       -1.05570253641282       -0.00162849677864
C            0.92661289662197        0.21881790974055        0.02016259441826
C            0.09620832721274        1.38796095843756       -0.00042662613568
O            0.51096462193249        2.54882589159442        0.00048904829740
N           -1.27959668377169        1.05124517978231       -0.03524209205042
C           -2.21029334282261        2.16558325510985       -0.02058013975480
C           -1.89421950791942       -0.19465075230145       -0.13435774036513
O           -3.09469783795190       -0.38609260163010       -0.20817184131036
N           -0.95888607844207       -1.29384618805224       -0.04727504865984
C           -1.45689098996538       -2.65389400433418       -0.04762569429517
H            3.73398298142228        1.21829607789426        1.06603806430065
H            4.01805087425839        1.03576990702824       -0.67748114998494
H            2.71087706330072        2.10246643422732       -0.08844246076974
H            3.58494239473612       -1.64682934090725        0.04172828616450
H           -1.65062342680486        3.09699422610235       -0.06882333788898
H           -2.86416678697113        2.06893814421839       -0.88174981357782
H           -2.81109294281355        2.13445677791744        0.88739277709325
H           -1.13570138885804       -3.19996499122232        0.84416066971729
H           -1.12395139383412       -3.18940803511775       -0.93962239962970
H           -2.54140661462241       -2.58251074700751       -0.05179882906095
H            1.37830186148098       -2.94261750835050       -0.00454064252883
25
 energy: 10.041719904491 xtb: 6.6.1 (8d0f1dd)
C            3.26904669711498        1.17865327390989        0.09016760983702
N            2.31366131488240        0.12126882372006        0.04261185851731
C            2.62248383377817       -1.24294347214136        0.04155320558203
N            1.41466715226516       -1.93698699396019        0.02904143775477
C            0.37266474409606       -1.05258587927365        0.01342422487811
C            0.91326476225915        0.22327270312087        0.02712054009841
C            0.09898983818535        1.35703590058658        0.00320335705667
O            0.52258778680499        2.53995651186374       -0.01191332335333
N           -1.32516261182389        1.03505565035015       -0.03250145963941
C           -2.19468399749158        2.18691501149252        0.02761469862759
C           -2.01908897805377       -0.17931438867859       -0.26833734686305
O           -3.22269382873796       -0.40273187517238       -0.44555790456807
N           -1.00752895147772       -1.27670060870774       -0.05695099150511
C           -1.43221455177191       -2.66398240358786       -0.02864168106933
H            3.76408035730447        1.21774983268799        1.06816880138077
H            4.03523937850265        1.03617851353839       -0.67881589562333
H            2.73437675074946        2.10864433245326       -0.08084263604979
H            3.60446359551462       -1.65054362866812        0.03754246172160
H           -1.62343132647279        3.10794391758979       -0.14356248173640
H           -2.93701594481053        2.03068691326942       -0.75669216207620
H           -2.69695155913127        2.23972116389703        1.00841341884381
H           -1.07762543146371       -3.20526289744294        0.86087916115689
H           -1.08718841733923       -3.21132625895056       -0.91364736011685
H           -2.51636270311517       -2.63136985976887       -0.01816323100042
H            1.38663675816830       -2.94030567995538        0.01291959429366
25
 energy: 33.531020553469 xtb: 6.6.1 (8d0f1dd)
C            3.28425538328334        1.17680195676550        0.09818171716582
N            2.31450859934390        0.13401319711649        0.04658563566445
C            2.62993123148963       -1.25206636580844        0.05277809475395
N            1.40365917817533       -1.93637530495054        0.04225330311063
C            0.35822996377071       -1.05499031004247        0.01693449242120
C            0.90319288313789        0.22143386776455        0.03038477435818
C            0.09422603149034        1.33624351083160       -0.00782704881134
O            0.52119118168488        2.52890643911596       -0.03121563470747
N           -1.37154101059178        1.02297832862558       -0.04231521474159
C           -2.18089080036918        2.21237519383107        0.07452058881374
C           -2.13401797393270       -0.15947063913830       -0.40131723023655
O           -3.32304433806833       -0.41651925309981       -0.65503961521742
N           -1.04896513037288       -1.26445179329998       -0.07553556737879
C           -1.40721348843073       -2.67566379752102       -0.01365747846804
H            3.78828988937238        1.21148211580193        1.07402954574678
H            4.05103508694563        1.03201949280082       -0.67265580630066
H            2.76172748641947        2.11424065931650       -0.06970580102784
H            3.61624474591248       -1.64742524691907        0.03984971177581
H           -1.61027315502219        3.11732317631447       -0.22547018863536
H           -3.02092475943834        2.00585752048126       -0.61249254610232
H           -2.56448205063531        2.35094431426178        1.12437476055169
H           -1.01696403738461       -3.20228893473664        0.87611771182172
H           -1.05071810746456       -3.23446431634505       -0.89031842300240
H           -2.49096922453362       -2.69092308548052        0.01538003471755
H            1.40572708315447       -2.94095212351360        0.03319407987560
25
 energy: 55.936439930068 xtb: 6.6.1 (8d0f1dd)
C            3.29477351051322        1.16921182234942        0.10744238999367
N            2.31130625728489        0.13435589131132        0.05545406487206
C            2.62631601773396       -1.25416164988309        0.06956579226390
N            1.40003302223471       -1.93623985352437        0.04568382049791
C            0.34519441398502       -1.06276772181968        0.00476580751560
C            0.89858619955526        0.21355328213640        0.03167382479779
C            0.08610458546175        1.32774956616106       -0.02545448319701
O            0.51388104288736        2.51499874258416       -0.04163944072945
N           -1.41551631167745        1.01753476671307       -0.06658917316270
C           -2.16889038790433        2.23694158743534        0.11170520745213
C           -2.23916549863906       -0.12987536215508       -0.51951222382255
O           -3.39534309799405       -0.42105077297425       -0.81271421918522
N           -1.07720685440043       -1.25988147386019       -0.09981960255627
C           -1.38400285569466       -2.68683194359483       -0.00234806934743
H            3.80665856468505        1.20162957905607        1.07971664142811
H            4.06055646492273        1.02188916793095       -0.66505255771741
H            2.78755265197701        2.11665975091028       -0.05868911149708
H            3.62112839003227       -1.63661458044425        0.05284894523214
H           -1.62890605522484        3.12085073436552       -0.29668674603157
H           -3.08876908989009        2.00385184882217       -0.46235434781485
H           -2.42846722214365        2.43828893823046        1.19784020397652
H           -0.95747575373654       -3.19156304754519        0.88790113095112
H           -1.02758864644266       -3.25755554809608       -0.87277498996392
H           -2.46492870777490       -2.74818957251292        0.05692143123687
H            1.43638402818570       -2.94375554942422        0.04914960095501
25
 energy: 69.882815740322 xtb: 6.6.1 (8d0f1dd)
C            3.29780337578763        1.15764902669964        0.11429925427096
N            2.30438821767190        0.12254713823153        0.06677008110572
C            2.61312112575226       -1.24582947851885        0.08478821582016
N            1.40646050053960       -1.93597458241944        0.04084333308884
C            0.33754468589851       -1.07432572781022       -0.00922342893850
C            0.89947386081687        0.20212753548883        0.03532984874152
C            0.07949742562754        1.32955239705122       -0.03802367318625
O            0.50422183652017        2.49709490422205       -0.04737108402481
N           -1.45007529445689        1.01945431096607       -0.09190894532139
C           -2.16115725538164        2.25500910050796        0.13335864627022
C           -2.32598214730958       -0.08820253355313       -0.59034126732657
O           -3.43692865724806       -0.41720755813600       -0.92236443628109
N           -1.07969301197161       -1.26730507960386       -0.10619303882529
C           -1.36504194972071       -2.69535547086408        0.00543340096949
H            3.81494405453554        1.18851545618812        1.08244236364574
H            4.06087072777490        1.00840988170262       -0.65986114660924
H            2.80467307911750        2.11437626857023       -0.04983318380867
H            3.61808483420289       -1.61791786090700        0.06418862281799
H           -1.67546733362242        3.11514961615584       -0.35069813999071
H           -3.12340291056714        2.01873542205232       -0.32855504438255
H           -2.30876870834565        2.48901462493966        1.21432801115314
H           -0.91582126575398       -3.18392464572526        0.89169277932223
H           -1.01973364281624       -3.27183133737305       -0.86498289442546
H           -2.43964114520406       -2.78484386487247        0.09553760377852
H            1.47284426608893       -2.94588894082060        0.05737801828339
25
 energy: 76.937891014163 xtb: 6.6.1 (8d0f1dd)
C            3.29287924288946        1.14641506615730        0.12326886084194
N            2.29662821100107        0.10492271551130        0.07896778676302
C            2.59956452348438       -1.22904736046356        0.09674835305347
N            1.42307955559073       -1.93790021519962        0.03290761700589
C            0.33831450556788       -1.08729904975107       -0.01729552296210
C            0.90232746126292        0.19163076311880        0.03593436681469
C            0.07745296079217        1.33382553831956       -0.05086954881904
O            0.49427088450688        2.48203886976748       -0.05103383464155
N           -1.47296511061003        1.02582069359765       -0.12066649498272
C           -2.16038040298562        2.26756015661917        0.13866944043176
C           -2.39057826972429       -0.03312105819551       -0.61176771717336
O           -3.45747717523172       -0.41285247114770       -0.98614219824052
N           -1.04777035939781       -1.28845811605396       -0.08823168726102
C           -1.34952009764539       -2.70382557172049        0.00757742136000
H            3.80827981626850        1.17309876520891        1.09019994184256
H            4.05459766626435        0.99517588836402       -0.65003774089887
H            2.80763941835230        2.10709754669600       -0.03945014904243
H            3.61111617233690       -1.59742914490922        0.07205196159742
H           -1.72551616824344        3.10589276240554       -0.43422329371101
H           -3.17302562387084        2.01999775018153       -0.20306093422583
H           -2.18147431082695        2.53571533009198        1.22140187134372
H           -0.89837916141986       -3.19433197766000        0.88414881360323
H           -1.02217838428630       -3.27684860949903       -0.87128998420539
H           -2.41811422323514       -2.79215936867279        0.11269464293677
H            1.50344353709610       -2.94689030059420        0.05653192471678
25
 energy: 85.454746870355 xtb: 6.6.1 (8d0f1dd)
C            3.28582968930049        1.13566513754221        0.12143222958614
N            2.28760683129082        0.08421679974205        0.08441133279404
C            2.58745289280475       -1.20708014796635        0.10393475466693
N            1.44611231208386       -1.94279111139341        0.03104529904727
C            0.34066671969116       -1.10332774186930       -0.01667323924865
C            0.90280804278977        0.18145710559571        0.03495137401504
C            0.07317532641621        1.33262704231483       -0.05332748561676
O            0.47547018431790        2.46737208852555       -0.04250715324728
N           -1.50010296284643        1.03425155403050       -0.14855195737121
C           -2.16378506069083        2.28637089023488        0.14543815786831
C           -2.46419656216557        0.04851880769697       -0.63370726505273
O           -3.47677235118420       -0.41083411646713       -1.05777451623988
N           -0.98775640019037       -1.32048824478096       -0.05774352869305
C           -1.33041545303332       -2.71973229417414        0.01949514125726
H            3.80116733375582        1.15962643956632        1.08644289941260
H            4.04635049325759        0.98224571191439       -0.65057955899337
H            2.80705328080940        2.09908278984293       -0.03959436463236
H            3.60331767003584       -1.57885716628025        0.07136110119284
H           -1.78878200122327        3.09186244989362       -0.44602473461295
H           -3.15473627837402        2.05987528684854       -0.10055710098535
H           -2.09852418704704        2.56203657471993        1.17150720366678
H           -0.88149226841625       -3.22001103752446        0.88726787445493
H           -1.02580778268738       -3.28959444030772       -0.87053836940662
H           -2.40009924615373       -2.79339631970388        0.12878688567062
H            1.52767444539505       -2.95006745582877        0.05853891661482
25
 energy: 90.076976246673 xtb: 6.6.1 (8d0f1dd)
C            3.28078059220072        1.13255602197533        0.13148843905165
N            2.28597593722701        0.07313774249929        0.09088169004436
C            2.59495087922862       -1.19274966811167        0.11134007540742
N            1.47695277034360       -1.95546757055499        0.03199784420858
C            0.34967987877183       -1.12237445917240       -0.01061292786204
C            0.90320202247390        0.17432702275686        0.02762140724984
C            0.07577863953236        1.32164595169725       -0.07456652198634
O            0.46394537971736        2.46266465730773       -0.04061059014069
N           -1.52535848045735        1.03911879725058       -0.18860537394014
C           -2.16823278943475        2.30210975361447        0.14099532809029
C           -2.55126714125908        0.14694995822299       -0.64759058289687
O           -3.51159600946266       -0.40514618481313       -1.08509425199220
N           -0.91787511099193       -1.35655004405098       -0.02684163557354
C           -1.31450198129271       -2.73861246260754        0.02120678882426
H            3.78916727723391        1.15019888852257        1.09938092943055
H            4.04433333770137        0.97779762336456       -0.63602309748849
H            2.80158748610017        2.09373935252054       -0.02891682913648
H            3.61012039524952       -1.57058512115686        0.07740498372693
H           -1.83686838464795        3.08884771174906       -0.54412001064901
H           -3.22479537066926        2.04466548732435        0.02527358892796
H           -1.95958016244497        2.61981319341409        1.18378235896104
H           -0.88193636031170       -3.26616332817850        0.87917829501514
H           -1.03011699457703       -3.29679352870825       -0.88462693717420
H           -2.38954139342151       -2.77459395370673        0.11829860153691
H            1.54741025112675       -2.95950723898649        0.05579232451249
25
 energy: 96.105878012156 xtb: 6.6.1 (8d0f1dd)
C            3.28227646574472        1.13926648999722        0.13169207324699
N            2.29243815120544        0.07839192577224        0.08639019749448
C            2.62425500557537       -1.19120552161766        0.10685000349712
N            1.51422979345561       -1.97316553090209        0.04259889023361
C            0.36496116150928       -1.14274123930493        0.00962916367932
C            0.90267323330918        0.17248551586026        0.02183219336710
C            0.07995863992983        1.29864828311203       -0.08759514114471
O            0.45443814738968        2.45929798823295       -0.03270295297726
N           -1.55329132160841        1.03710185122464       -0.20905877295151
C           -2.17251947194807        2.31613275724979        0.14714746942255
C           -2.65235885817251        0.24671880991436       -0.67733503979714
O           -3.56474600436982       -0.39149598666627       -1.08576989796279
N           -0.86448891469652       -1.39110764328020       -0.00172211576638
C           -1.30726298039222       -2.76156759559254        0.02874091460486
H            3.78730972785385        1.15204247846141        1.10212689266415
H            4.04698581136608        0.98243023157176       -0.63449449591318
H            2.79752901850336        2.09609093140353       -0.02812271086254
H            3.63492236349436       -1.57244682940797        0.07431753885827
H           -1.85428944569356        3.09490517951322       -0.56060779047279
H           -3.22049724291483        2.04792280247561        0.07104887479304
H           -1.92606774930424        2.63681400349438        1.16821100786161
H           -0.89723252973545       -3.31576822537666        0.88348548218987
H           -1.03102609435251       -3.30426899607830       -0.88801107924024
H           -2.39111680193944       -2.75002886848806        0.10378705186403
H            1.56513456372706       -2.97542420939662        0.05459613945894
25
 energy: 115.603134038160 xtb: 6.6.1 (8d0f1dd)
C            3.29665446279511        1.15442513830197        0.12610159017978
N            2.31683843578008        0.10569452381770        0.07144004123150
C            2.69161259162376       -1.20420543776583        0.08480488447748
N            1.57643995205545       -1.99872647736436        0.06210264390431
C            0.40770134208443       -1.16649622644767        0.05198019171069
C            0.90483796839713        0.18274369714117        0.02554741097098
C            0.09612525743127        1.25947925514644       -0.07705526716902
O            0.45856609366236        2.45845573745270       -0.04263404644105
N           -1.60903163183739        1.02369834541310       -0.22038401128712
C           -2.17826679431596        2.33186162113265        0.15001760641684
C           -2.83564537042697        0.41209622851138       -0.72005767354210
O           -3.67912122642085       -0.40386262103737       -1.07399224478076
N           -0.80043568707490       -1.44537107452472        0.03425999203446
C           -1.30491422335549       -2.79480478626675        0.03872886359236
H            3.79716539638036        1.16301291028282        1.10101585101139
H            4.05902466907843        0.99296326255339       -0.64288197862360
H            2.79558690925294        2.10102993368669       -0.03490743641944
H            3.68514332446634       -1.58634877562661        0.06781155177407
H           -1.83220100094135        3.11122783636128       -0.50425594327465
H           -3.18420797300864        2.06239531166128        0.03869732152517
H           -1.96435607593283        2.61918428715111        1.14884840202723
H           -0.92881218253943       -3.37231931475609        0.89766882631706
H           -1.03008838644126       -3.30925321075638       -0.88821140557157
H           -2.40309464144026       -2.70948484247005        0.08507090826863
H            1.57669345866390       -2.99836671942579        0.04731781781479
25
 energy: 130.179113483631 xtb: 6.6.1 (8d0f1dd)
C            3.30529352276750        1.16193381528535        0.12436746728359
N            2.33679410475901        0.11180032355756        0.06206443071384
C            2.72180818085966       -1.21442207653650        0.07297952925165
N            1.60339124041205       -2.00416253722517        0.06936196149952
C            0.43045290572000       -1.17815980839209        0.05755161271137
C            0.91479129855342        0.17848958240790        0.03353197783805
C            0.11432300457496        1.25232450124852       -0.05058128504041
O            0.48633357170470        2.45488349042860       -0.05784360918137
N           -1.63525521040610        1.00887223173919       -0.22217525006157
C           -2.16787705689209        2.33178461591482        0.15167753236531
C           -2.95629779764118        0.48404639573524       -0.80474288105916
O           -3.75819837683479       -0.37420686853399       -0.97918375030941
N           -0.79503905632093       -1.47653741238995        0.02854010375940
C           -1.30500616228072       -2.81466207134751        0.03867534726262
H            3.80178660553157        1.18268905059768        1.10137276955662
H            4.06987316890315        1.01231852730926       -0.64414645328474
H            2.79144622056632        2.10341528998758       -0.04014289453525
H            3.71392483225894       -1.58712985452239        0.07642032839270
H           -1.79564747238097        3.12737275224725       -0.47113396047552
H           -3.16548241344290        2.06701319903437       -0.01517846998349
H           -2.00960577043123        2.58556137646075        1.15833315697840
H           -0.95083905383851       -3.39208760386339        0.90401130212466
H           -1.02410873157237       -3.32479127772303       -0.88425477417034
H           -2.39964835219282       -2.70271780367372        0.07184394878685
H            1.58500146555960       -3.00459923557425        0.04568575572407
25
 energy: 148.727799258866 xtb: 6.6.1 (8d0f1dd)
C            3.31470179735275        1.15669321791904        0.11648552456039
N            2.35664740321418        0.09542012628206        0.05908338332146
C            2.72768983128046       -1.22104025558997        0.06638859593525
N            1.61996468426856       -1.99905087202420        0.07711769182314
C            0.45176494058263       -1.18359278450621        0.06566317270987
C            0.93745961944002        0.16628372631602        0.05225534959834
C            0.13939646344288        1.28504237730282       -0.00969542479515
O            0.53377448770000        2.46429441489507       -0.05400785260996
N           -1.65692305711626        1.00559778581543       -0.19214632988090
C           -2.15560130970392        2.32065428529268        0.15256054389820
C           -3.10613488090704        0.55866722224826       -0.92395921934340
O           -3.85379804825404       -0.39881088710569       -0.93459589445032
N           -0.77705568519553       -1.49788651122635        0.03348785324977
C           -1.29105562762749       -2.81857405949528        0.04136751495657
H            3.81065756614824        1.19387029627947        1.09212168608451
H            4.07848033543846        1.01896836876288       -0.65323082143826
H            2.79391126763577        2.09874359952508       -0.05196081745248
H            3.73011798938937       -1.58194435625904        0.07858477947864
H           -1.76563440787846        3.13735252226814       -0.45070917130510
H           -3.15825680636123        2.06745217783215       -0.07715560080012
H           -2.05332397366521        2.55171986539594        1.18837097931867
H           -0.96200081469024       -3.40141989734254        0.90649784011734
H           -1.02221195159718       -3.33623772135671       -0.87988609882288
H           -2.37377543546285       -2.69137876099036        0.07756181078464
H            1.59342028050238       -3.00179527806661        0.04683440120918
25
 energy: 164.746880462314 xtb: 6.6.1 (8d0f1dd)
C            3.31537283680877        1.14878131412657        0.10620776952206
N            2.37449718926204        0.05478875533394        0.06704884628789
C            2.69594870006359       -1.21856869852614        0.06487566751067
N            1.61229404670337       -1.97187352896262        0.08018917387679
C            0.46230759175362       -1.17810008864307        0.06645573430468
C            0.97808250917618        0.13959312665319        0.07175767399810
C            0.19007321462623        1.36704427141401        0.01370363823696
O            0.62010544441539        2.47713531236541       -0.05661140202003
N           -1.62016723204678        0.99686592839226       -0.09462396311673
C           -2.10844981515327        2.27257758646464        0.16011888163783
C           -3.26022070938676        0.56067908474878       -1.07945721972020
O           -3.95215933495556       -0.39673914121085       -0.90054224720334
N           -0.79480401416151       -1.50674497776720        0.04232405886426
C           -1.28282957467409       -2.80816438793630        0.04463477310265
H            3.81143754373170        1.20942924772707        1.07808897672055
H            4.07935530035823        1.02866887515163       -0.66358975915682
H            2.79087341735286        2.09719915282774       -0.06611928312759
H            3.72913858776095       -1.55757356653851        0.06915737111821
H           -1.71095730495152        3.14096512736272       -0.40999880902848
H           -3.14595293306752        2.05287102335582       -0.19625332693141
H           -2.15030744926894        2.50186742908597        1.24685301527792
H           -0.96458161763778       -3.39132145929634        0.90418458385354
H           -1.02295411182969       -3.34516342821437       -0.87119502691992
H           -2.34177584024420       -2.70271590338051        0.09819479753112
H            1.60788822330096       -2.98247245236174        0.05162997152869
25
 energy: 177.251957287718 xtb: 6.6.1 (8d0f1dd)
C            3.31741287639082        1.14926369756542        0.09534395382304
N            2.38528805542407        0.03359333417416        0.06731803767393
C            2.67999334072616       -1.20476379681939        0.05869191721853
N            1.61355187996057       -1.95701431291260        0.07482102174758
C            0.46503229752310       -1.17236961783159        0.07247645444271
C            1.00673437468103        0.12992335200168        0.08739098339615
C            0.23938647127278        1.41715680210187        0.04448681122940
O            0.68551326193455        2.48514458565159       -0.07344142517149
N           -1.56429232075766        0.98812810786182        0.01293559629477
C           -2.06627750548039        2.23584214828725        0.17838334735886
C           -3.45751491605152        0.57675134829672       -1.20489289554293
O           -4.06442829517573       -0.40772127694466       -0.94902796148945
N           -0.78864675138259       -1.51359112546442        0.07369207653323
C           -1.27312354481472       -2.80710590631062        0.05345688449031
H            3.81286666215605        1.21583343678970        1.06546249649545
H            4.07993622418786        1.03272894259380       -0.67457450502648
H            2.79107691292399        2.09768446578860       -0.07754999603877
H            3.72824356035510       -1.53845915632337        0.06307320120440
H           -1.67916476136998        3.13393881445463       -0.38066873433000
H           -3.11372325956818        2.03085583337343       -0.25657333006107
H           -2.21038003266188        2.49629264720599        1.27921872938172
H           -0.95119712666943       -3.39381774714194        0.91060128210092
H           -1.01835569948625       -3.35310379180438       -0.86376191387130
H           -2.33245043213710       -2.71367247583156        0.11532833447011
H            1.62673339595562       -2.97248970659003        0.05484352981779
25