25
 energy: 0.000000000000 xtb: 6.6.1 (8d0f1dd)
C            3.23720132972391        1.16630909158653        0.08434468864950
N            2.29877796055224        0.07527476373246        0.03981602671198
C            2.58028186251803       -1.21425391179017        0.03006175752192
N            1.43813944744728       -1.93419254010258        0.00098261751768
C            0.39035684826767       -1.05887462812143       -0.00790371763344
C            0.93510047688824        0.21347817468824        0.01709077332874
C            0.09450143016486        1.40504290868848       -0.00410946993748
O            0.49712746915594        2.54126690785742       -0.00342325656480
N           -1.25076628431515        1.06271869620815       -0.03085477937476
C           -2.21907191394203        2.15522079838987       -0.05001256521996
C           -1.81739470187490       -0.20012724136556       -0.04692818139228
O           -2.99983858926755       -0.37846413507442       -0.07008877579474
N           -0.92618577614240       -1.30210203518959       -0.03682761236648
C           -1.46982251276835       -2.64643077634382       -0.06029819901142
H            3.71247229913541        1.21471443890471        1.06488839270555
H            4.00791460421487        1.03430799217987       -0.67357688121503
H            2.69909982127087        2.09770098766290       -0.09130154035862
H            3.56654087521359       -1.63682977417947        0.04233139674524
H           -1.67107945562430        3.09322822573871       -0.02552706696334
H           -2.82428927394145        2.09428605349656       -0.95318074103337
H           -2.87644002486466        2.07745706351925        0.81450059976605
H           -1.17061985538665       -3.19584861009707        0.83242224714061
H           -1.14560246782873       -3.17511580834413       -0.95688266944647
H           -2.55549768731684       -2.55659960601237       -0.07459039105944
H            1.38130842369251       -2.94313824728853       -0.01389874052104
25
 energy: -5.752808114813 xtb: 6.6.1 (8d0f1dd)
C            3.24735794427610        1.17405132298960        0.08634518679528
N            2.30297102849472        0.10523308082376        0.03811540443483
C            2.59951204217377       -1.23955306238622        0.03771709649485
N            1.41304855818923       -1.93604411368336        0.01464438538029
C            0.38446817385053       -1.05943466909695        0.00272249878064
C            0.91308524997528        0.22346465356411        0.02273845186386
C            0.10357193621418        1.37281035143798       -0.00182046236550
O            0.49573465704062        2.54569458344004       -0.00509080712595
N           -1.29699218006958        1.03992940044664       -0.03773033771069
C           -2.21954909324636        2.15902180385371       -0.02763996811902
C           -1.86522637750779       -0.19590472793177       -0.12209265535048
O           -3.06033029264460       -0.38912045850424       -0.17048210821607
N           -0.96138048726680       -1.29366459768275       -0.05126894427561
C           -1.46514268068089       -2.64725458020100       -0.05304668401638
H            3.73135110212913        1.21964780726946        1.06657669929100
H            4.01690838583187        1.03739273051927       -0.67794316747260
H            2.70912547509201        2.10376581088249       -0.08789925431895
H            3.57987662761648       -1.65148970593050        0.04242563953359
H           -1.64641029389540        3.08515115949783       -0.06865490373315
H           -2.87676460912747        2.07482313403099       -0.88746543610460
H           -2.82898035665038        2.12469481446107        0.87456110652650
H           -1.14382916511651       -3.19241573292036        0.83932430485673
H           -1.13588692822981       -3.18227608362881       -0.94775075336075
H           -2.55042228963138       -2.57613157539542       -0.05735738158932
H            1.37180203685378       -2.94088675790737        0.00342059814352
25
 energy: -3.341760858884 xtb: 6.6.1 (8d0f1dd)
C            3.25286257761690        1.17459221335592        0.08745516782817
N            2.30049191606111        0.10877517565549        0.03905748242541
C            2.59839773365768       -1.24011438702994        0.04431171543956
N            1.40491594271884       -1.93401261229638        0.02722209731590
C            0.36780473729382       -1.06043672599952        0.00805385626133
C            0.90417355743325        0.21846210318638        0.02586286411290
C            0.08785855321025        1.35582478796890       -0.01309946789431
O            0.48586781199762        2.52735178945839       -0.02846685037645
N           -1.33029322442302        1.02948820319274       -0.05154150716857
C           -2.21975175738466        2.17024385017350       -0.00691509586685
C           -1.91681495379156       -0.19303707797994       -0.19554436675383
O           -3.10629235570058       -0.39427735873913       -0.27065871472650
N           -0.98694489731499       -1.28618863515615       -0.06353204414635
C           -1.45854137420184       -2.65247603028554       -0.04643915865223
H            3.74186729765307        1.21785136191424        1.06622492559790
H            4.02366604107097        1.03653306297249       -0.67756812980205
H            2.71903914615330        2.10707073480900       -0.08466778074442
H            3.58377794418014       -1.65130805134554        0.04060601295438
H           -1.63439889952826        3.08660369655141       -0.11354218856455
H           -2.92968230430384        2.05861797479663       -0.81641162047392
H           -2.77555116942997        2.17220889010032        0.93084547992658
H           -1.11835099616617       -3.19035661856610        0.84535979078035
H           -1.12625072975584       -3.19104026876538       -0.93865820948573
H           -2.54358559552269       -2.60298739229930       -0.04209284868935
H            1.37838744150186       -2.93967101240537        0.02031247061973
25
 energy: 0.707096107049 xtb: 6.6.1 (8d0f1dd)
C            3.25807743360444        1.17456010473984        0.08955295005710
N            2.29765191384444        0.11231327302412        0.04138545872297
C            2.59642560632613       -1.24188744764379        0.05617334878593
N            1.39648942766434       -1.93404181808708        0.03766593410076
C            0.35228124481010       -1.06269287445425        0.00313265862292
C            0.89649360110800        0.21202067570519        0.02416694682716
C            0.06958508754258        1.34172602663656       -0.03484635580513
O            0.46976398746882        2.51192058253004       -0.04414186994544
N           -1.36475340470781        1.02284312565147       -0.08252320538180
C           -2.22099486468258        2.18226205859207        0.00950442835083
C           -1.96766968730918       -0.18757714770788       -0.27372166486513
O           -3.14988156531367       -0.40133442383955       -0.37460759135198
N           -1.01104226779495       -1.27881699214687       -0.08017398638724
C           -1.45067227466054       -2.65655181339987       -0.04119262769675
H            3.75061944277250        1.21700791747260        1.06732375418599
H            4.03087240313417        1.03440360072520       -0.67496872412002
H            2.72839203799255        2.10924812224333       -0.08241631585231
H            3.58723984596158       -1.64972893486028        0.04135608256477
H           -1.62770086484707        3.08741235658859       -0.15902153131186
H           -2.98371057970263        2.04915707442861       -0.74436863092899
H           -2.71703606362090        2.21638046609921        0.98197883173343
H           -1.09165703684589       -3.18443868614272        0.85130964127866
H           -1.11449967922824       -3.19869011737743       -0.93061977524467
H           -2.53522051159724       -2.62916803497286       -0.02674930290962
H            1.38557808715092       -2.94045551653428        0.03222731330521
25
 energy: 6.116485214869 xtb: 6.6.1 (8d0f1dd)
C            3.26220916859924        1.17268686417837        0.09294943261062
N            2.29270757586841        0.11333080265102        0.05551715209439
C            2.59316474516596       -1.24071082282874        0.07668157954264
N            1.39714542873361       -1.93630496707924        0.03041908534312
C            0.34078413691726       -1.06950410104957       -0.01034745910174
C            0.88902291416508        0.20328043753334        0.02149235952062
C            0.05396016054348        1.32855066081934       -0.05575837057994
O            0.45356769949684        2.49636484442709       -0.05136995900100
N           -1.39644700000540        1.02262400504229       -0.12313354023931
C           -2.22277484649732        2.19642272641067        0.02339379245572
C           -2.01542021251001       -0.17548948703220       -0.35314073198982
O           -3.18920062676734       -0.40539751059708       -0.47595543882930
N           -1.03218007053619       -1.27376151559619       -0.10467344509265
C           -1.44437394260183       -2.66047341210143       -0.03912828313533
H            3.76270952439693        1.21883638119630        1.06675616129700
H            4.03579180970737        1.02954742562144       -0.67166388071303
H            2.73729188225566        2.10983998964562       -0.08082671230843
H            3.58880794082778       -1.64055736975137        0.05205778462767
H           -1.62725699676483        3.09015230324453       -0.20530837963242
H           -3.03729754309721        2.04622188575834       -0.66985646044721
H           -2.65698059184348        2.26085005347786        1.02679628609389
H           -1.06643129991537       -3.17725562299113        0.85443816981185
H           -1.10342973661726       -3.20521189957912       -0.92520091845556
H           -2.52831843179466       -2.65495105096819       -0.01472134222906
H            1.39942477502454       -2.94314095592722        0.04153160478518
25
 energy: 13.362947477883 xtb: 6.6.1 (8d0f1dd)
C            3.26559198206376        1.16818130707052        0.09949839203957
N            2.28707874270217        0.11125687191023        0.06396061469087
C            2.58754808498775       -1.23758397865061        0.09139510338184
N            1.39993714607620       -1.93975364402200        0.02462486967543
C            0.33353635086038       -1.07852535245469       -0.02987153312679
C            0.88291791199486        0.19512619393303        0.00379079387166
C            0.04451413475112        1.31338667341532       -0.08063647882317
O            0.43353841179327        2.48365015063756       -0.04805578559746
N           -1.42824067671107        1.02337961407103       -0.16717158070510
C           -2.22376513212987        2.20941122634434        0.04026745567982
C           -2.07074654606305       -0.15059502830821       -0.42609016868999
O           -3.23112330122592       -0.40784300692814       -0.57447213193159
N           -1.04246230244730       -1.27547420473398       -0.12689207060347
C           -1.43456592633282       -2.66566414904435       -0.03459836679257
H            3.76952120322062        1.21357598876282        1.07211481156851
H            4.04153386149883        1.02075977067898       -0.66314199929271
H            2.74748553855178        2.10947699545820       -0.07576896630832
H            3.58646515922217       -1.62978759448153        0.06347427131583
H           -1.63794282489032        3.09255129554899       -0.25092298402674
H           -3.08660110906341        2.04647815449711       -0.58729142460986
H           -2.59053946480278        2.30003831161600        1.07213456026831
H           -1.03898447457738       -3.16656625418237        0.86238479948942
H           -1.09147788011850       -3.21775036932044       -0.91563703396397
H           -2.51796336607877       -2.67919597836703       -0.00006444882127
H            1.41337193969156       -2.94626014142231        0.04704007082951
25
 energy: 23.372828469763 xtb: 6.6.1 (8d0f1dd)
C            3.26879626237446        1.16315652069016        0.10562297743892
N            2.28302515226348        0.11007016116818        0.07382771200870
C            2.58501354334055       -1.23105815657107        0.10165275999721
N            1.40755985680829       -1.94248028836727        0.02519092825016
C            0.33299914140167       -1.08788356053055       -0.03016641449948
C            0.88061998858080        0.19260108068392        0.00873147732898
C            0.04274637260671        1.30134113100635       -0.08450109440349
O            0.41974455275854        2.47628259353671       -0.04686485644566
N           -1.46476129987077        1.02881311737692       -0.19611320944407
C           -2.22546876817949        2.22782806407378        0.05856714166423
C           -2.14030444956628       -0.10007569730985       -0.46775518206856
O           -3.27263962449688       -0.40928782160925       -0.66456858531472
N           -1.03267791052535       -1.28461532169247       -0.11528224019799
C           -1.41929554368010       -2.67401132330451       -0.02608657203828
H            3.77837499829633        1.20666577456847        1.07584987250700
H            4.04064807953161        1.00866153852086       -0.65974082289484
H            2.75710232529397        2.10884463227893       -0.07027090485913
H            3.58505118220056       -1.61752079556809        0.07142251173848
H           -1.65616870225680        3.10032557764465       -0.29048380775289
H           -3.12841701935928        2.05244683514559       -0.50520463257695
H           -2.52417145660614        2.33824760895714        1.11273490376643
H           -1.01304372062817       -3.17002862100632        0.86944218108489
H           -1.07850315339621       -3.22634054312086       -0.90876420055088
H           -2.50299082790155       -2.70022544525687        0.01478998739556
H            1.42886573065758       -2.94819041468025        0.05292080612450
25
 energy: 39.001583146374 xtb: 6.6.1 (8d0f1dd)
C            3.27102472822845        1.15654298402605        0.11055764695222
N            2.28042336038449        0.10636321721653        0.07970243817437
C            2.58650794206608       -1.22426158641387        0.10685376707623
N            1.42159328014324       -1.94877503705315        0.02717885452244
C            0.33623987609664       -1.10423805265993       -0.02274527490489
C            0.88137030671854        0.18449418180687        0.02193234859755
C            0.05777478620233        1.29136886539360       -0.07440480791344
O            0.42668733581039        2.46822398318746       -0.05811744852048
N           -1.51060733675114        1.02950118452398       -0.19669857848249
C           -2.22654537175881        2.24883916088332        0.08438523270339
C           -2.23543453508168       -0.01714897522521       -0.50983920443468
O           -3.32120527286279       -0.40571638514866       -0.76231474614304
N           -1.00848318562621       -1.30514338694077       -0.09597044012681
C           -1.40134519782082       -2.68735631815899       -0.01559479629685
H            3.78868410619789        1.19726950074953        1.07743416298217
H            4.03822892680648        0.99658001611787       -0.65725352196070
H            2.76787279025893        2.10795546702471       -0.06480111215231
H            3.58715931911384       -1.60260546301205        0.07257168629203
H           -1.68001480531035        3.10487720161723       -0.32484606442861
H           -3.16151819176160        2.06829478048895       -0.41914580349397
H           -2.46182230502957        2.38609633425850        1.15088707768063
H           -0.98778130947803       -3.17983372176572        0.87747014079199
H           -1.06554447785507       -3.23856417940826       -0.90119979199851
H           -2.48631914769104       -2.72108114579039        0.03081408634191
H            1.44967155638382       -2.95280091299391        0.05517072131571
25
 energy: 58.711072830907 xtb: 6.6.1 (8d0f1dd)
C            3.27310632806788        1.15164091937613        0.11742247270404
N            2.28357243705936        0.10170232464288        0.08681370873351
C            2.59809930277558       -1.21791617753236        0.11427653135020
N            1.44585278512313       -1.95719577019705        0.03108802267625
C            0.34646719973584       -1.12468986623373       -0.01078830863091
C            0.88800789738125        0.17631337032088        0.03469512271199
C            0.09680543438415        1.28945166127281       -0.05337078083521
O            0.43745661811492        2.46831946573670       -0.05668402636188
N           -1.56318341035439        1.02377636326692       -0.16914917338833
C           -2.22425683149054        2.27277807303894        0.11312193327137
C           -2.36283282548978        0.10239149294411       -0.56483937444500
O           -3.37547638458938       -0.39957364665680       -0.86320102368535
N           -0.96728092343935       -1.33341346609230       -0.07159272049931
C           -1.38067286200008       -2.70316575796339       -0.00400854844210
H            3.79694358748764        1.18894842719942        1.08093120161995
H            4.03612717671601        0.98947918690613       -0.65272169956020
H            2.77800029801370        2.10765660364254       -0.05832165598127
H            3.59757524902418       -1.58850749189162        0.07402684389442
H           -1.69844196983972        3.10484832586657       -0.36394780711218
H           -3.19184110181670        2.09082788944797       -0.32528901799861
H           -2.39409291055230        2.43462088111019        1.18479886330433
H           -0.96204819409974       -3.19215885145590        0.88583118779094
H           -1.05424592758440       -3.25169142449124       -0.89399711413176
H           -2.46861505530903       -2.73738668485617        0.04842712467558
H            1.47357351984585       -2.95918060854489        0.05594423498629
25
 energy: 75.550095123164 xtb: 6.6.1 (8d0f1dd)
C            3.27855043767283        1.14814934133752        0.12127339741694
N            2.29844756291997        0.09660449373978        0.07866172090249
C            2.61882527350877       -1.21320352713853        0.10967942588328
N            1.48195630470664       -1.96705405378568        0.03511054136613
C            0.36093344614258       -1.14419179983531        0.00962573040235
C            0.90201586562347        0.17042820765765        0.04114077568266
C            0.15050270908184        1.29695606822960       -0.01073966259344
O            0.45987691405014        2.47200511480907       -0.06226128114723
N           -1.62380206195176        1.00955889801869       -0.14826446849560
C           -2.22360274993193        2.29874361147570        0.13553792645039
C           -2.51799305130353        0.24766672843742       -0.62237576573852
O           -3.42408994893250       -0.39532106430085       -0.96912313597327
N           -0.91468513471865       -1.36372879570940       -0.03620425431194
C           -1.35685737398441       -2.72056920462164        0.00672379891532
H            3.79959191291375        1.18100646370648        1.08613406654909
H            4.03673789048230        0.98375660009311       -0.65110176990811
H            2.78873271366043        2.10680440113049       -0.05460058293517
H            3.61929088442679       -1.58086552357120        0.08091964797857
H           -1.72101640485638        3.10159483090973       -0.40890877230050
H           -3.22615912990657        2.11314123975203       -0.22876418240920
H           -2.31716614046124        2.48136968576606        1.20652130882315
H           -0.93584363822794       -3.20655792316284        0.89232711025736
H           -1.04168670220956       -3.26300749790449       -0.88882734327979
H           -2.44849822689626       -2.74983141403805        0.06504839376298
H            1.50112821193430       -2.96679869082894        0.05444983713739
25
 energy: 83.315505633281 xtb: 6.6.1 (8d0f1dd)
C            3.28043246383279        1.14632405381057        0.12261818023104
N            2.30967997589983        0.09340407885952        0.06763534694248
C            2.63507456441327       -1.20879672088479        0.10092155302805
N            1.50620186348131       -1.97102768351988        0.04101844277852
C            0.37204653937159       -1.14981764557925        0.02238863349175
C            0.91498969382909        0.16918377979410        0.04236573642556
C            0.18475131364217        1.31135665477073        0.01362088828959
O            0.49786641985065        2.47867227400866       -0.06237890328451
N           -1.66813019046863        0.99340751294947       -0.13243581091619
C           -2.21358076811966        2.31211013882605        0.15726587368729
C           -2.62465579141030        0.34334042235094       -0.66253413854292
O           -3.44639625594612       -0.37839168623594       -1.06769777486154
N           -0.88667881452382       -1.38157889884178       -0.01615477758510
C           -1.34211935362251       -2.73399581443691        0.01949220675034
H            3.79604362890685        1.17070695117581        1.08963246240135
H            4.03757518665708        0.98395855316282       -0.64721154465256
H            2.79597571291679        2.10796216269612       -0.04802417850329
H            3.63683596692950       -1.57730143569836        0.08034626960800
H           -1.74486604056888        3.09871233953608       -0.42514882661378
H           -3.23212720718966        2.14597938041318       -0.14675446544076
H           -2.23872741448283        2.50871071471221        1.22423127847188
H           -0.91304890219228       -3.22401107790860        0.89512559104493
H           -1.03609990033632       -3.27309106692573       -0.88041046710729
H           -2.43416599819273       -2.76853973293350        0.08816717893069
H            1.52202479776448       -2.97031070965007        0.05660616932396
25
 energy: 87.832682668098 xtb: 6.6.1 (8d0f1dd)
C            3.28070331779422        1.14726805046280        0.12807749595121
N            2.32261896429134        0.08670445939803        0.05985160863481
C            2.65140677329381       -1.21058403272124        0.09473289085936
N            1.52695622254621       -1.97733145458832        0.04822787040113
C            0.38583310489694       -1.15571345991479        0.03143287319095
C            0.92698750269821        0.16687167353825        0.04436102899590
C            0.21254677893317        1.32305254406052        0.02119651440957
O            0.53915939795274        2.48446599317678       -0.07223447399035
N           -1.71644138031747        0.98391463674948       -0.13994632263450
C           -2.21317416176694        2.32637779060204        0.17373504295751
C           -2.71778536570302        0.40624236952463       -0.68770762820682
O           -3.53636454530780       -0.34097373938297       -1.07920850017069
N           -0.86246725268202       -1.40187803381048       -0.00455953309375
C           -1.32139485249348       -2.75285438643967        0.02633858789266
H            3.78698923033440        1.16603480131537        1.09651823433967
H            4.03972469195001        0.99433950931064       -0.64034474782667
H            2.78897492776322        2.10469890794528       -0.03874203709807
H            3.65294475336825       -1.58106942981322        0.08481733677711
H           -1.77259444550731        3.09759820123348       -0.44855143262811
H           -3.25212715725373        2.17008159773831       -0.05462452549518
H           -2.14861479652649        2.53783002372885        1.23449347404586
H           -0.89258243864482       -3.25269833652085        0.89730891656010
H           -1.02272658394818       -3.29138007374806       -0.87558898058212
H           -2.41096883845487       -2.78207302214827        0.10219806708999
H            1.53864690797532       -2.97657240732490        0.05809503705647
25
 energy: 118.519071354869 xtb: 6.6.1 (8d0f1dd)
C            3.28478835745607        1.14502965972387        0.12584364494891
N            2.31325847500388        0.08316166195776        0.07071622704730
C            2.65626329664138       -1.19811572649966        0.08471615509890
N            1.55651270975998       -1.98204228656728        0.06165812631806
C            0.39522528682307       -1.15517780556008        0.04316042150370
C            0.92722022843516        0.16334756796066        0.06128636158020
C            0.07807542206947        1.31338377702478       -0.01994685083925
O            0.53797417871111        2.45340406862883       -0.05244918203246
N           -1.48162167170163        1.03525805836829       -0.01739034347616
C           -2.16637307088226        2.30851734476941        0.18391934617732
C           -2.85407448387238        0.51587578427860       -0.92391705589603
O           -3.62023383165840       -0.36550577809961       -0.97982113211349
N           -0.84031671357434       -1.41824603960755        0.00296573888697
C           -1.31094638844715       -2.76129365412059        0.03062542378036
H            3.78358220772095        1.15367415357028        1.09793033911436
H            4.04802069761849        0.99089171371037       -0.64128669951356
H            2.79462511409207        2.10128231380311       -0.03780515271458
H            3.66364127127055       -1.57443130602339        0.07084721263421
H           -1.82358587895232        3.09231896690928       -0.49576019480248
H           -3.22968525878067        2.08448473008395        0.01915216691085
H           -2.09098278294996        2.59218820973427        1.21895359357371
H           -0.88448516732542       -3.27242951032291        0.89479710485612
H           -1.02596556391803       -3.29463387147110       -0.87905568669823
H           -2.39810692385380       -2.77916377140992        0.12130989240717
H            1.56163899466937       -2.98346780371938        0.05390713027356
25
 energy: 117.714395483269 xtb: 6.6.1 (8d0f1dd)
C            3.29149948939353        1.14748577606737        0.12568308855717
N            2.32638459715695        0.07677091340000        0.06974950140630
C            2.67531049882999       -1.20706634172967        0.08029304667748
N            1.57557171191371       -1.98768954945654        0.06431946671600
C            0.41969738976978       -1.15568707710074        0.05275610686292
C            0.95326431402172        0.16156532944246        0.07262385959235
C            0.09730156569875        1.35934071380360        0.01590967715928
O            0.62150598826543        2.47632746140290       -0.05957881867507
N           -1.30455715345289        1.09147726018423        0.07633097861720
C           -2.10816132718103        2.28797343367402        0.18557265733814
C           -3.13146148087515        0.51981285693551       -1.09009909813021
O           -3.78485013214143       -0.39760232253180       -0.91989831068847
N           -0.81603462297738       -1.43663559706589        0.02061482497673
C           -1.30105661773807       -2.77032983222564        0.03100437461622
H            3.78188080563409        1.15907920525246        1.10206323156406
H            4.05580812490936        1.00009160483785       -0.64083496137564
H            2.78716743242470        2.09702722294927       -0.03441933415609
H            3.68306032545577       -1.57905690276471        0.07293112436861
H           -1.83649154746716        3.07456337859320       -0.53303343450189
H           -3.17124989466477        2.05723359822505        0.05202731907081
H           -2.01481650191425        2.63197575398156        1.20663698175908
H           -0.88515772371500       -3.29811667318619        0.88991376757689
H           -1.02523818597709       -3.30420468969830       -0.88206149517603
H           -2.38702122986920       -2.76484653583744        0.11353436954914
H            1.57292402302542       -2.99149358986959        0.05334178712438
25
 energy: 114.449248661970 xtb: 6.6.1 (8d0f1dd)
C            3.29905001556063        1.15118614702168        0.12496382426220
N            2.34141489371124        0.07045504729155        0.07115716935516
C            2.69340823986835       -1.21308401451862        0.07378557324921
N            1.59226233274632       -1.99370939219361        0.06628639662953
C            0.43672388407366       -1.16085661430262        0.05838961189878
C            0.97021242905068        0.16088565969039        0.08101569956458
C            0.12413033610433        1.37061655447279        0.03447271205027
O            0.65225731231282        2.48415938340424       -0.06171895249592
N           -1.25868684090247        1.10073068622902        0.09767927726856
C           -2.08437496803912        2.27885797319454        0.17934636186269
C           -3.26920885451909        0.51820309033472       -1.16671347038507
O           -3.86995567608771       -0.40720642179263       -0.89586180801399
N           -0.79736368146181       -1.45206793497541        0.02873856078980
C           -1.29732045157151       -2.77990870126446        0.03300289237539
H            3.79302088232205        1.16785455228878        1.09972044588402
H            4.06096719473765        1.01084477007150       -0.64447685841220
H            2.78198288638895        2.09608889726780       -0.02978997481529
H            3.70114271876681       -1.58245541517559        0.07191000037324
H           -1.81209112046460        3.08409311364623       -0.52035182251572
H           -3.14203361147647        2.05945517693112       -0.01652205846657
H           -1.97158317724935        2.64303228018827        1.19989139540562
H           -0.89276999405924       -3.32264126691000        0.88918057175120
H           -1.03018319437159       -3.30908892727029       -0.88812125565371
H           -2.38433045094097       -2.74361928228776        0.10628753755956
H            1.58182328521171       -2.99929127917954        0.04639411527191
25