      -----------------------------------------------------------      
     |                   =====================                   |     
     |                           x T B                           |     
     |                   =====================                   |     
     |                         S. Grimme                         |     
     |          Mulliken Center for Theoretical Chemistry        |     
     |                    University of Bonn                     |     
      -----------------------------------------------------------      

   * xtb version 6.6.1 (8d0f1dd) compiled by 'conda@1efc2f54142f' on 2023-08-01

   xtb is free software: you can redistribute it and/or modify it under
   the terms of the GNU Lesser General Public License as published by
   the Free Software Foundation, either version 3 of the License, or
   (at your option) any later version.
   
   xtb is distributed in the hope that it will be useful,
   but WITHOUT ANY WARRANTY; without even the implied warranty of
   MERCHANTABILITY or FITNESS FOR A PARTICULAR PURPOSE.  See the
   GNU Lesser General Public License for more details.
   
   Cite this work as:
   * C. Bannwarth, E. Caldeweyher, S. Ehlert, A. Hansen, P. Pracht,
     J. Seibert, S. Spicher, S. Grimme, WIREs Comput. Mol. Sci., 2020, 11,
     e01493. DOI: 10.1002/wcms.1493
   
   for GFN2-xTB:
   * C. Bannwarth, S. Ehlert and S. Grimme., J. Chem. Theory Comput., 2019,
     15, 1652-1671. DOI: 10.1021/acs.jctc.8b01176
   for GFN1-xTB:
   * S. Grimme, C. Bannwarth, P. Shushkov, J. Chem. Theory Comput., 2017,
     13, 1989-2009. DOI: 10.1021/acs.jctc.7b00118
   for GFN0-xTB:
   * P. Pracht, E. Caldeweyher, S. Ehlert, S. Grimme, ChemRxiv, 2019, preprint.
     DOI: 10.26434/chemrxiv.8326202.v1
   for GFN-FF:
   * S. Spicher and S. Grimme, Angew. Chem. Int. Ed., 2020, 59, 15665-15673.
     DOI: 10.1002/anie.202004239
   
   for ALPB and GBSA implicit solvation:
   * S. Ehlert, M. Stahn, S. Spicher, S. Grimme, J. Chem. Theory Comput.,
     2021, 17, 4250-4261. DOI: 10.1021/acs.jctc.1c00471
   
   for DFT-D4:
   * E. Caldeweyher, C. Bannwarth and S. Grimme, J. Chem. Phys., 2017,
     147, 034112. DOI: 10.1063/1.4993215
   * E. Caldeweyher, S. Ehlert, A. Hansen, H. Neugebauer, S. Spicher,
     C. Bannwarth and S. Grimme, J. Chem. Phys., 2019, 150, 154122.
     DOI: 10.1063/1.5090222
   * E. Caldeweyher, J.-M. Mewes, S. Ehlert and S. Grimme, Phys. Chem. Chem. Phys.
     2020, 22, 8499-8512. DOI: 10.1039/D0CP00502A
   
   for sTDA-xTB:
   * S. Grimme and C. Bannwarth, J. Chem. Phys., 2016, 145, 054103.
     DOI: 10.1063/1.4959605
   
   in the mass-spec context:
   * V. Asgeirsson, C. Bauer and S. Grimme, Chem. Sci., 2017, 8, 4879.
     DOI: 10.1039/c7sc00601b
   * J. Koopman and S. Grimme, ACS Omega 2019, 4, 12, 15120-15133.
     DOI: 10.1021/acsomega.9b02011
   
   for metadynamics refer to:
   * S. Grimme, J. Chem. Theory Comput., 2019, 155, 2847-2862
     DOI: 10.1021/acs.jctc.9b00143
   
   for SPH calculations refer to:
   * S. Spicher and S. Grimme, J. Chem. Theory Comput., 2021, 17, 1701-1714
     DOI: 10.1021/acs.jctc.0c01306
   
   with help from (in alphabetical order)
   P. Atkinson, C. Bannwarth, F. Bohle, G. Brandenburg, E. Caldeweyher
   M. Checinski, S. Dohm, S. Ehlert, S. Ehrlich, I. Gerasimov, C. Hölzer
   A. Katbashev, J. Koopman, C. Lavigne, S. Lehtola, F. März, M. Müller,
   F. Musil, H. Neugebauer, J. Pisarek, C. Plett, P. Pracht, F. Pultar,
   J. Seibert, P. Shushkov, S. Spicher, M. Stahn, M. Steiner, T. Strunk,
   J. Stückrath, T. Rose, and J. Unsleber
   
 * started run on 2024/06/05 at 20:00:09.974     

           -------------------------------------------------
          |                Calculation Setup                |
           -------------------------------------------------

          program call               : xtb struc.xyz --opt loose --input .xc1 --gfn2
          hostname                   : n-62-11-66
          coordinate file            : struc.xyz
          omp threads                :                     1

   ID    Z sym.   atoms
    1    6 C      1, 3, 5-7, 10, 11, 14
    2    7 N      2, 4, 9, 13
    3    8 O      8, 12
    4    1 H      15-25
constraining bond 5 13 to    3.9200000 Å, actual value:    1.3391347 Å

           -------------------------------------------------
          |                 G F N 2 - x T B                 |
           -------------------------------------------------

        Reference                      10.1021/acs.jctc.8b01176
      * Hamiltonian:
        H0-scaling (s, p, d)           1.850000    2.230000    2.230000
        zeta-weighting                 0.500000
      * Dispersion:
        s8                             2.700000
        a1                             0.520000
        a2                             5.000000
        s9                             5.000000
      * Repulsion:
        kExp                           1.500000    1.000000
        rExp                           1.000000
      * Coulomb:
        alpha                          2.000000
        third order                    shell-resolved
        anisotropic                    true
        a3                             3.000000
        a5                             4.000000
        cn-shift                       1.200000
        cn-exp                         4.000000
        max-rad                        5.000000


          ...................................................
          :                      SETUP                      :
          :.................................................:
          :  # basis functions                  67          :
          :  # atomic orbitals                  67          :
          :  # shells                           39          :
          :  # electrons                        74          :
          :  max. iterations                   250          :
          :  Hamiltonian                  GFN2-xTB          :
          :  restarted?                      false          :
          :  GBSA solvation                  false          :
          :  PC potential                    false          :
          :  electronic temp.         5000.0000000     K    :
          :  accuracy                    1.0000000          :
          :  -> integral cutoff          0.2500000E+02      :
          :  -> integral neglect         0.1000000E-07      :
          :  -> SCF convergence          0.1000000E-05 Eh   :
          :  -> wf. convergence          0.1000000E-03 e    :
          :  Broyden damping             0.4000000          :
          ...................................................

 iter      E             dE          RMSdq      gap      omega  full diag
   1    -42.5894031 -0.425894E+02  0.445E+00    3.52       0.0  T
   2    -42.7683054 -0.178902E+00  0.251E+00    3.36       1.0  T
   3    -42.7759211 -0.761567E-02  0.147E+00    3.35       1.0  T
   4    -42.7728404  0.308066E-02  0.553E-01    3.33       1.0  T
   5    -42.7789548 -0.611444E-02  0.112E-01    3.35       1.0  T
   6    -42.7790473 -0.924914E-04  0.614E-02    3.33       1.0  T
   7    -42.7790721 -0.247928E-04  0.258E-02    3.34       1.0  T
   8    -42.7790772 -0.508996E-05  0.938E-03    3.34       2.1  T
   9    -42.7790779 -0.669422E-06  0.448E-03    3.34       4.5  T
  10    -42.7790780 -0.821510E-07  0.115E-03    3.34      17.4  T
  11    -42.7790780 -0.322663E-08  0.553E-04    3.34      36.2  T
  12    -42.7790780 -0.287051E-08  0.180E-04    3.34     111.1  T

   *** convergence criteria satisfied after 12 iterations ***

         #    Occupation            Energy/Eh            Energy/eV
      -------------------------------------------------------------
         1        2.0000           -0.9185990             -24.9964
       ...           ...                  ...                  ...
        31        1.9996           -0.6230278             -16.9534
        32        1.9995           -0.6194601             -16.8564
        33        1.9979           -0.5974976             -16.2587
        34        1.9932           -0.5789629             -15.7544
        35        1.9817           -0.5631863             -15.3251
        36        1.9779           -0.5602245             -15.2445
        37        1.9748           -0.5581234             -15.1873 (HOMO)
        38        0.0652           -0.4353579             -11.8467 (LUMO)
        39        0.0099           -0.4050467             -11.0219
        40        0.0013           -0.3732218             -10.1559
        41        0.0000           -0.2886859              -7.8555
        42                         -0.2065804              -5.6213
       ...                                ...                  ...
        67                          0.5625656              15.3082
      -------------------------------------------------------------
                  HL-Gap            0.1227656 Eh            3.3406 eV
             Fermi-level           -0.4890455 Eh          -13.3076 eV

 SCC (total)                   0 d,  0 h,  0 min,  0.034 sec
 SCC setup                      ...        0 min,  0.000 sec (  0.823%)
 Dispersion                     ...        0 min,  0.000 sec (  0.932%)
 classical contributions        ...        0 min,  0.000 sec (  0.316%)
 integral evaluation            ...        0 min,  0.006 sec ( 17.118%)
 iterations                     ...        0 min,  0.016 sec ( 46.435%)
 molecular gradient             ...        0 min,  0.012 sec ( 33.933%)
 printout                       ...        0 min,  0.000 sec (  0.418%)

         :::::::::::::::::::::::::::::::::::::::::::::::::::::
         ::                     SUMMARY                     ::
         :::::::::::::::::::::::::::::::::::::::::::::::::::::
         :: total energy               5.324900425694 Eh    ::
         :: gradient norm             27.592093810279 Eh/a0 ::
         :: HOMO-LUMO gap              3.340621582928 eV    ::
         ::.................................................::
         :: SCC energy               -42.779077977399 Eh    ::
         :: -> isotropic ES            0.141123876439 Eh    ::
         :: -> anisotropic ES         -0.005230418907 Eh    ::
         :: -> anisotropic XC          0.011966818540 Eh    ::
         :: -> dispersion             -0.022657731803 Eh    ::
         :: repulsion energy           0.531105277918 Eh    ::
         :: add. restraining          47.572758966165 Eh    ::
         :: total charge               1.000000000002 e     ::
         :::::::::::::::::::::::::::::::::::::::::::::::::::::

      ----------------------------------------------------------- 
     |                   =====================                   |
     |                        A N C O P T                        |
     |                   =====================                   |
     |               Approximate Normal Coordinate               |
     |                Rational Function Optimizer                |
      ----------------------------------------------------------- 

          ...................................................
          :                      SETUP                      :
          :.................................................:
          :   optimization level             loose          :
          :   max. optcycles                   200          :
          :   ANC micro-cycles                  20          :
          :   degrees of freedom                69          :
          :.................................................:
          :   RF solver                   davidson          :
          :   write xtbopt.log                true          :
          :   linear?                        false          :
          :   energy convergence         0.5000000E-04 Eh   :
          :   grad. convergence          0.4000000E-02 Eh/α :
          :   maxmium RF displ.          1.0000000          :
          :   Hlow (freq-cutoff)         0.1000000E-01      :
          :   Hmax (freq-cutoff)         5.0000000          :
          :   S6 in model hess.         20.0000000          :
          ...................................................

generating ANC from model Hessian ...
Using Lindh-Hessian (1995)
 Shifting diagonal of input Hessian by    14.968570336480463     
 Lowest  eigenvalues of input Hessian
    0.010000    1.092105    0.000000    0.000000    0.000000    0.000000
    0.000000    0.000000   14.972327   14.972923   14.974608   14.977296
   14.978670   14.980466   14.980532   14.982860   14.987297   14.994168
 Highest eigenvalues
   16.933214   17.115236   17.184088   17.339215   17.452760   25.028935


........................................................................
.............................. CYCLE    1 ..............................
........................................................................

 iter      E             dE          RMSdq      gap      omega  full diag
   1    -42.7790780 -0.427791E+02  0.626E-05    3.34       0.0  T
   2    -42.7790780 -0.124416E-10  0.329E-05    3.34     607.4  T
   3    -42.7790780  0.127898E-12  0.193E-05    3.34    1034.2  T
     SCC iter.                  ...        0 min,  0.004 sec
     gradient                   ...        0 min,  0.011 sec
 * total energy  :     5.3249004 Eh     change       -0.6650680E-10 Eh
   gradient norm :    27.5920939 Eh/α   predicted     0.0000000E+00 (-100.00%)
   displ. norm   :     0.9134906 α      lambda        0.2996064E+01
   maximum displ.:     0.9118366 α      in ANC's #3, #10, #21, ...

........................................................................
.............................. CYCLE    2 ..............................
........................................................................

 iter      E             dE          RMSdq      gap      omega  full diag
   1    -42.6610375 -0.426610E+02  0.160E+00    2.98       0.0  T
   2    -42.6670225 -0.598508E-02  0.932E-01    2.45       1.0  T
   3    -42.6615718  0.545073E-02  0.546E-01    2.99       1.0  T
   4    -42.6673414 -0.576962E-02  0.280E-01    2.50       1.0  T
   5    -42.6692834 -0.194199E-02  0.521E-02    2.61       1.0  T
   6    -42.6693068 -0.234066E-04  0.299E-02    2.62       1.0  T
   7    -42.6693111 -0.431353E-05  0.842E-03    2.62       2.4  T
   8    -42.6693121 -0.938688E-06  0.306E-03    2.63       6.5  T
   9    -42.6693121 -0.448291E-08  0.148E-03    2.63      13.5  T
  10    -42.6693121 -0.317929E-07  0.480E-04    2.63      41.7  T
  11    -42.6693121 -0.231882E-08  0.268E-04    2.63      74.7  T
     SCC iter.                  ...        0 min,  0.014 sec
     gradient                   ...        0 min,  0.011 sec
 * total energy  :   -16.2897802 Eh     change       -0.2161468E+02 Eh
   gradient norm :    19.8375010 Eh/α   predicted    -0.2311896E+02 (   6.96%)
   displ. norm   :     0.8092134 α      lambda       -0.1604645E+02
   maximum displ.:     0.8058258 α      in ANC's #3, #10, #21, ...

........................................................................
.............................. CYCLE    3 ..............................
........................................................................

 iter      E             dE          RMSdq      gap      omega  full diag
   1    -42.3706238 -0.423706E+02  0.276E+00    0.55       0.0  T
   2    -42.2681441  0.102480E+00  0.210E+00    1.52       1.0  T
   3    -42.3132558 -0.451118E-01  0.214E+00    0.67       1.0  T
   4    -42.4531079 -0.139852E+00  0.722E-01    0.04       1.0  T
   5    -42.4572428 -0.413490E-02  0.194E-01    0.13       1.0  T
   6    -42.4583649 -0.112210E-02  0.575E-02    0.19       1.0  T
   7    -42.4583870 -0.221113E-04  0.276E-02    0.20       1.0  T
   8    -42.4584042 -0.171603E-04  0.701E-03    0.19       2.9  T
   9    -42.4584057 -0.153635E-05  0.243E-03    0.19       8.2  T
  10    -42.4584058 -0.450178E-07  0.113E-03    0.19      17.6  T
  11    -42.4584057  0.299057E-08  0.607E-04    0.19      32.9  T
  12    -42.4584058 -0.110908E-07  0.173E-04    0.19     115.6  T
     SCC iter.                  ...        0 min,  0.015 sec
     gradient                   ...        0 min,  0.011 sec
 * total energy  :   -29.7029898 Eh     change       -0.1341321E+02 Eh
   gradient norm :    13.4258162 Eh/α   predicted    -0.1327956E+02 (  -1.00%)
   displ. norm   :     0.7506192 α      lambda       -0.1005654E+02
   maximum displ.:     0.7435011 α      in ANC's #3, #10, #20, ...

........................................................................
.............................. CYCLE    4 ..............................
........................................................................

 iter      E             dE          RMSdq      gap      omega  full diag
   1    -42.1785851 -0.421786E+02  0.232E+00    1.30       0.0  T
   2    -41.8455065  0.333079E+00  0.311E+00    0.93       1.0  T
   3    -42.2317989 -0.386292E+00  0.146E+00    1.26       1.0  T
   4    -42.2830279 -0.512291E-01  0.558E-01    0.88       1.0  T
   5    -42.2879810 -0.495311E-02  0.268E-01    0.64       1.0  T
   6    -42.2893880 -0.140697E-02  0.788E-02    0.65       1.0  T
   7    -42.2894510 -0.629817E-04  0.459E-02    0.64       1.0  T
   8    -42.2894989 -0.478843E-04  0.148E-02    0.63       1.3  T
   9    -42.2895020 -0.313023E-05  0.489E-03    0.62       4.1  T
  10    -42.2895026 -0.634804E-06  0.151E-03    0.62      13.2  T
  11    -42.2895027 -0.267993E-07  0.760E-04    0.62      26.3  T
  12    -42.2895027 -0.625180E-08  0.270E-04    0.62      74.1  T
     SCC iter.                  ...        0 min,  0.015 sec
     gradient                   ...        0 min,  0.011 sec
 * total energy  :   -37.5988193 Eh     change       -0.7895829E+01 Eh
   gradient norm :     7.5542899 Eh/α   predicted    -0.7866660E+01 (  -0.37%)
   displ. norm   :     0.6165892 α      lambda       -0.4633465E+01
   maximum displ.:     0.6018781 α      in ANC's #3, #8, #9, ...

........................................................................
.............................. CYCLE    5 ..............................
........................................................................

 iter      E             dE          RMSdq      gap      omega  full diag
   1    -42.0878918 -0.420879E+02  0.191E+00    1.19       0.0  T
   2    -42.0803926  0.749926E-02  0.133E+00    0.52       1.0  T
   3    -42.0750546  0.533802E-02  0.126E+00    1.58       1.0  T
   4    -42.1292031 -0.541485E-01  0.376E-01    0.89       1.0  T
   5    -42.1289344  0.268733E-03  0.139E-01    0.87       1.0  T
   6    -42.1297204 -0.786069E-03  0.408E-02    0.91       1.0  T
   7    -42.1297159  0.452241E-05  0.284E-02    0.92       1.0  T
   8    -42.1297372 -0.213001E-04  0.492E-03    0.91       4.1  T
   9    -42.1297376 -0.416086E-06  0.233E-03    0.91       8.6  T
  10    -42.1297377 -0.611738E-07  0.121E-03    0.91      16.5  T
  11    -42.1297377 -0.180598E-07  0.405E-04    0.91      49.4  T
  12    -42.1297377 -0.333188E-08  0.156E-04    0.91     128.3  T
     SCC iter.                  ...        0 min,  0.014 sec
     gradient                   ...        0 min,  0.011 sec
 * total energy  :   -40.7301352 Eh     change       -0.3131316E+01 Eh
   gradient norm :     2.6494751 Eh/α   predicted    -0.3197513E+01 (   2.11%)
   displ. norm   :     0.3566182 α      lambda       -0.9081698E+00
   maximum displ.:     0.2916161 α      in ANC's #3, #8, #7, ...

........................................................................
.............................. CYCLE    6 ..............................
........................................................................

 iter      E             dE          RMSdq      gap      omega  full diag
   1    -42.0780926 -0.420781E+02  0.781E-01    1.22       0.0  T
   2    -42.0748866  0.320600E-02  0.705E-01    0.78       1.0  T
   3    -42.0809246 -0.603799E-02  0.449E-01    1.27       1.0  T
   4    -42.0862024 -0.527783E-02  0.234E-01    0.97       1.0  T
   5    -42.0868378 -0.635427E-03  0.596E-02    1.03       1.0  T
   6    -42.0869344 -0.966072E-04  0.181E-02    1.03       1.1  T
   7    -42.0869376 -0.311714E-05  0.814E-03    1.04       2.5  T
   8    -42.0869378 -0.250329E-06  0.263E-03    1.04       7.6  T
   9    -42.0869379 -0.889178E-07  0.110E-03    1.04      18.3  T
  10    -42.0869379 -0.341782E-08  0.507E-04    1.04      39.4  T
  11    -42.0869379 -0.204780E-08  0.102E-04    1.04     195.5  T
     SCC iter.                  ...        0 min,  0.013 sec
     gradient                   ...        0 min,  0.011 sec
 * total energy  :   -41.2760096 Eh     change       -0.5458745E+00 Eh
   gradient norm :     0.6797263 Eh/α   predicted    -0.5118484E+00 (  -6.23%)
   displ. norm   :     0.1901518 α      lambda       -0.1259907E+00
   maximum displ.:     0.0619568 α      in ANC's #3, #7, #24, ...

........................................................................
.............................. CYCLE    7 ..............................
........................................................................

 iter      E             dE          RMSdq      gap      omega  full diag
   1    -42.0883578 -0.420884E+02  0.415E-01    1.20       0.0  T
   2    -42.0768767  0.114810E-01  0.722E-01    0.74       1.0  T
   3    -42.0928287 -0.159520E-01  0.178E-01    1.07       1.0  T
   4    -42.0927334  0.952906E-04  0.141E-01    1.01       1.0  T
   5    -42.0929506 -0.217160E-03  0.482E-02    1.04       1.0  T
   6    -42.0929859 -0.353083E-04  0.244E-02    1.04       1.0  T
   7    -42.0929972 -0.113016E-04  0.601E-03    1.05       3.3  T
   8    -42.0929976 -0.369501E-06  0.145E-03    1.05      13.8  T
   9    -42.0929976 -0.140247E-07  0.682E-04    1.05      29.3  T
  10    -42.0929976 -0.823874E-09  0.215E-04    1.05      93.0  T
     SCC iter.                  ...        0 min,  0.012 sec
     gradient                   ...        0 min,  0.011 sec
 * total energy  :   -41.3634249 Eh     change       -0.8741526E-01 Eh
   gradient norm :     0.4475728 Eh/α   predicted    -0.6527219E-01 ( -25.33%)
   displ. norm   :     0.2766491 α      lambda       -0.6913736E-01
   maximum displ.:     0.2106529 α      in ANC's #1, #24, #32, ...

........................................................................
.............................. CYCLE    8 ..............................
........................................................................

 iter      E             dE          RMSdq      gap      omega  full diag
   1    -42.0935307 -0.420935E+02  0.559E-01    1.08       0.0  T
   2    -42.0864122  0.711853E-02  0.646E-01    0.74       1.0  T
   3    -42.0959482 -0.953597E-02  0.295E-01    1.10       1.0  T
   4    -42.0971702 -0.122203E-02  0.176E-01    0.94       1.0  T
   5    -42.0976250 -0.454747E-03  0.552E-02    0.98       1.0  T
   6    -42.0976690 -0.440646E-04  0.277E-02    0.98       1.0  T
   7    -42.0976813 -0.122382E-04  0.817E-03    0.99       2.4  T
   8    -42.0976820 -0.762030E-06  0.166E-03    0.99      12.1  T
   9    -42.0976821 -0.238763E-07  0.829E-04    0.99      24.1  T
  10    -42.0976821 -0.177268E-08  0.248E-04    0.99      80.7  T
     SCC iter.                  ...        0 min,  0.012 sec
     gradient                   ...        0 min,  0.011 sec
 * total energy  :   -41.4175596 Eh     change       -0.5413477E-01 Eh
   gradient norm :     0.3912243 Eh/α   predicted    -0.3721453E-01 ( -31.26%)
   displ. norm   :     0.7175683 α      lambda       -0.9163857E-01
   maximum displ.:     0.6661698 α      in ANC's #1, #24, #32, ...

........................................................................
.............................. CYCLE    9 ..............................
........................................................................

 iter      E             dE          RMSdq      gap      omega  full diag
   1    -42.0671442 -0.420671E+02  0.161E+00    0.46       0.0  T
   2    -42.0620412  0.510298E-02  0.117E+00    0.50       1.0  T
   3    -42.0649776 -0.293637E-02  0.861E-01    0.77       1.0  T
   4    -42.0627627  0.221491E-02  0.968E-01    0.24       1.0  T
   5    -42.0887657 -0.260030E-01  0.119E-01    0.57       1.0  T
   6    -42.0890172 -0.251461E-03  0.557E-02    0.55       1.0  T
   7    -42.0890535 -0.363498E-04  0.288E-02    0.55       1.0  T
   8    -42.0890628 -0.932326E-05  0.899E-03    0.55       2.2  T
   9    -42.0890644 -0.152089E-05  0.309E-03    0.55       6.5  T
  10    -42.0890645 -0.985509E-07  0.193E-03    0.55      10.4  T
  11    -42.0890645 -0.423440E-07  0.780E-04    0.55      25.6  T
  12    -42.0890645 -0.524190E-08  0.200E-04    0.55     100.1  T
     SCC iter.                  ...        0 min,  0.015 sec
     gradient                   ...        0 min,  0.011 sec
 * total energy  :   -41.4823912 Eh     change       -0.6483155E-01 Eh
   gradient norm :     0.7663755 Eh/α   predicted    -0.6941410E-01 (   7.07%)
   displ. norm   :     0.5535658 α      lambda       -0.1567610E+00
   maximum displ.:     0.2172627 α      in ANC's #24, #32, #37, ...

........................................................................
.............................. CYCLE   10 ..............................
........................................................................

 iter      E             dE          RMSdq      gap      omega  full diag
   1    -42.0628389 -0.420628E+02  0.107E+00    0.78       0.0  T
   2    -42.0155390  0.472999E-01  0.147E+00    0.16       1.0  T
   3    -42.0692476 -0.537086E-01  0.606E-01    0.71       1.0  T
   4    -42.0758183 -0.657065E-02  0.395E-01    0.48       1.0  T
   5    -42.0784146 -0.259632E-02  0.979E-02    0.51       1.0  T
   6    -42.0785730 -0.158447E-03  0.463E-02    0.53       1.0  T
   7    -42.0786246 -0.515750E-04  0.158E-02    0.54       1.3  T
   8    -42.0786260 -0.136713E-05  0.693E-03    0.54       2.9  T
   9    -42.0786269 -0.941742E-06  0.205E-03    0.54       9.8  T
  10    -42.0786270 -0.543812E-07  0.134E-03    0.54      14.9  T
  11    -42.0786270 -0.269907E-07  0.374E-04    0.54      53.5  T
  12    -42.0786270 -0.503228E-09  0.148E-04    0.54     134.8  T
     SCC iter.                  ...        0 min,  0.015 sec
     gradient                   ...        0 min,  0.011 sec
 * total energy  :   -41.4971977 Eh     change       -0.1480647E-01 Eh
   gradient norm :     0.7257756 Eh/α   predicted    -0.1023993E+00 ( 591.58%)
   displ. norm   :     0.5206154 α      lambda       -0.1075442E+00
   maximum displ.:     0.5156333 α      in ANC's #1, #2, #7, ...

........................................................................
.............................. CYCLE   11 ..............................
........................................................................

 iter      E             dE          RMSdq      gap      omega  full diag
   1    -42.0456660 -0.420457E+02  0.152E+00    0.23       0.0  T
   2    -42.0130238  0.326422E-01  0.145E+00    0.64       1.0  T
   3    -42.0605925 -0.475686E-01  0.836E-01    0.05       1.0  T
   4    -42.0578781  0.271432E-02  0.654E-01    0.32       1.0  T
   5    -42.0732658 -0.153876E-01  0.115E-01    0.17       1.0  T
   6    -42.0736052 -0.339417E-03  0.489E-02    0.21       1.0  T
   7    -42.0736605 -0.552871E-04  0.247E-02    0.20       1.0  T
   8    -42.0736694 -0.894087E-05  0.641E-03    0.20       3.1  T
   9    -42.0736698 -0.387715E-06  0.236E-03    0.20       8.5  T
  10    -42.0736699 -0.829911E-07  0.102E-03    0.20      19.6  T
  11    -42.0736699 -0.553923E-08  0.336E-04    0.20      59.5  T
  12    -42.0736699 -0.970786E-09  0.175E-04    0.20     114.6  T
     SCC iter.                  ...        0 min,  0.015 sec
     gradient                   ...        0 min,  0.011 sec
 * total energy  :   -41.5771717 Eh     change       -0.7997405E-01 Eh
   gradient norm :     0.3868415 Eh/α   predicted    -0.6834664E-01 ( -14.54%)
   displ. norm   :     0.3528613 α      lambda       -0.4895077E-01
   maximum displ.:     0.3301519 α      in ANC's #1, #2, #7, ...

........................................................................
.............................. CYCLE   12 ..............................
........................................................................

 iter      E             dE          RMSdq      gap      omega  full diag
   1    -42.0627499 -0.420627E+02  0.112E+00    0.42       0.0  T
   2    -42.0385061  0.242439E-01  0.115E+00    0.22       1.0  T
   3    -42.0748851 -0.363790E-01  0.534E-01    0.29       1.0  T
   4    -42.0766033 -0.171825E-02  0.272E-01    0.24       1.0  T
   5    -42.0782507 -0.164737E-02  0.126E-01    0.18       1.0  T
   6    -42.0786999 -0.449188E-03  0.672E-02    0.20       1.0  T
   7    -42.0788700 -0.170145E-03  0.142E-02    0.20       1.4  T
   8    -42.0788719 -0.182692E-05  0.467E-03    0.20       4.3  T
   9    -42.0788721 -0.234942E-06  0.188E-03    0.20      10.6  T
  10    -42.0788721 -0.293093E-07  0.920E-04    0.20      21.7  T
  11    -42.0788721 -0.106054E-07  0.318E-04    0.20      62.8  T
     SCC iter.                  ...        0 min,  0.014 sec
     gradient                   ...        0 min,  0.011 sec
 * total energy  :   -41.6061001 Eh     change       -0.2892835E-01 Eh
   gradient norm :     0.7132723 Eh/α   predicted    -0.2752300E-01 (  -4.86%)
   displ. norm   :     0.3309152 α      lambda       -0.9868571E-01
   maximum displ.:     0.1437579 α      in ANC's #7, #2, #24, ...

........................................................................
.............................. CYCLE   13 ..............................
........................................................................

 iter      E             dE          RMSdq      gap      omega  full diag
   1    -42.1301082 -0.421301E+02  0.674E-01    0.42       0.0  T
   2    -42.1263181  0.379013E-02  0.696E-01    0.35       1.0  T
   3    -42.1350018 -0.868374E-02  0.297E-01    0.36       1.0  T
   4    -42.1334673  0.153453E-02  0.302E-01    0.43       1.0  T
   5    -42.1344603 -0.993013E-03  0.196E-01    0.29       1.0  T
   6    -42.1360191 -0.155882E-02  0.341E-02    0.36       1.0  T
   7    -42.1360401 -0.209941E-04  0.165E-02    0.36       1.2  T
   8    -42.1360413 -0.121203E-05  0.104E-02    0.36       1.9  T
   9    -42.1360436 -0.223541E-05  0.341E-03    0.36       5.9  T
  10    -42.1360436 -0.901367E-07  0.170E-03    0.36      11.8  T
  11    -42.1360437 -0.251899E-07  0.577E-04    0.36      34.7  T
  12    -42.1360437 -0.387121E-08  0.245E-04    0.36      81.7  T
     SCC iter.                  ...        0 min,  0.015 sec
     gradient                   ...        0 min,  0.011 sec
 * total energy  :   -41.6730674 Eh     change       -0.6696740E-01 Eh
   gradient norm :     0.5508356 Eh/α   predicted    -0.5474622E-01 ( -18.25%)
   displ. norm   :     0.3399154 α      lambda       -0.6743590E-01
   maximum displ.:     0.2077504 α      in ANC's #1, #7, #3, ...

........................................................................
.............................. CYCLE   14 ..............................
........................................................................

 iter      E             dE          RMSdq      gap      omega  full diag
   1    -42.1457141 -0.421457E+02  0.962E-01    0.80       0.0  T
   2    -42.1255532  0.201608E-01  0.979E-01    0.21       1.0  T
   3    -42.1492004 -0.236472E-01  0.526E-01    0.78       1.0  T
   4    -42.1542241 -0.502368E-02  0.434E-01    0.53       1.0  T
   5    -42.1584559 -0.423185E-02  0.937E-02    0.56       1.0  T
   6    -42.1586148 -0.158919E-03  0.437E-02    0.58       1.0  T
   7    -42.1586642 -0.493205E-04  0.129E-02    0.58       1.6  T
   8    -42.1586655 -0.136110E-05  0.550E-03    0.58       3.6  T
   9    -42.1586658 -0.333330E-06  0.162E-03    0.58      12.4  T
  10    -42.1586659 -0.150810E-07  0.852E-04    0.58      23.5  T
  11    -42.1586659 -0.795061E-08  0.268E-04    0.58      74.7  T
     SCC iter.                  ...        0 min,  0.014 sec
     gradient                   ...        0 min,  0.011 sec
 * total energy  :   -41.7215376 Eh     change       -0.4847019E-01 Eh
   gradient norm :     0.3663857 Eh/α   predicted    -0.3761432E-01 ( -22.40%)
   displ. norm   :     0.2356933 α      lambda       -0.3576990E-01
   maximum displ.:     0.1341355 α      in ANC's #1, #3, #52, ...

........................................................................
.............................. CYCLE   15 ..............................
........................................................................

 iter      E             dE          RMSdq      gap      omega  full diag
   1    -42.1628526 -0.421629E+02  0.547E-01    0.80       0.0  T
   2    -42.1588871  0.396554E-02  0.517E-01    0.50       1.0  T
   3    -42.1645186 -0.563154E-02  0.273E-01    0.79       1.0  T
   4    -42.1642328  0.285793E-03  0.290E-01    0.62       1.0  T
   5    -42.1666322 -0.239935E-02  0.496E-02    0.68       1.0  T
   6    -42.1666875 -0.553846E-04  0.228E-02    0.69       1.0  T
   7    -42.1666975 -0.993518E-05  0.982E-03    0.69       2.0  T
   8    -42.1666982 -0.729573E-06  0.343E-03    0.69       5.8  T
   9    -42.1666984 -0.151069E-06  0.110E-03    0.69      18.2  T
  10    -42.1666984 -0.644595E-08  0.525E-04    0.69      38.1  T
  11    -42.1666984 -0.170145E-08  0.156E-04    0.69     127.9  T
     SCC iter.                  ...        0 min,  0.014 sec
     gradient                   ...        0 min,  0.011 sec
 * total energy  :   -41.7454891 Eh     change       -0.2395144E-01 Eh
   gradient norm :     0.1923470 Eh/α   predicted    -0.1887851E-01 ( -21.18%)
   displ. norm   :     0.2007077 α      lambda       -0.1787135E-01
   maximum displ.:     0.1493383 α      in ANC's #1, #3, #52, ...

........................................................................
.............................. CYCLE   16 ..............................
........................................................................

 iter      E             dE          RMSdq      gap      omega  full diag
   1    -42.1651254 -0.421651E+02  0.412E-01    0.85       0.0  T
   2    -42.1638034  0.132206E-02  0.378E-01    0.66       1.0  T
   3    -42.1665399 -0.273653E-02  0.188E-01    0.84       1.0  T
   4    -42.1654072  0.113268E-02  0.227E-01    0.71       1.0  T
   5    -42.1671653 -0.175810E-02  0.421E-02    0.78       1.0  T
   6    -42.1671986 -0.332341E-04  0.200E-02    0.78       1.0  T
   7    -42.1672030 -0.444319E-05  0.115E-02    0.78       1.7  T
   8    -42.1672046 -0.155115E-05  0.275E-03    0.78       7.3  T
   9    -42.1672046 -0.882990E-07  0.102E-03    0.78      19.6  T
  10    -42.1672046 -0.212467E-08  0.292E-04    0.78      68.4  T
  11    -42.1672046 -0.114386E-08  0.114E-04    0.78     176.0  T
     SCC iter.                  ...        0 min,  0.014 sec
     gradient                   ...        0 min,  0.011 sec
 * total energy  :   -41.7586408 Eh     change       -0.1315168E-01 Eh
   gradient norm :     0.1813340 Eh/α   predicted    -0.9295747E-02 ( -29.32%)
   displ. norm   :     0.2143898 α      lambda       -0.2676291E-01
   maximum displ.:     0.0787526 α      in ANC's #1, #3, #52, ...

........................................................................
.............................. CYCLE   17 ..............................
........................................................................

 iter      E             dE          RMSdq      gap      omega  full diag
   1    -42.1815480 -0.421815E+02  0.388E-01    0.92       0.0  T
   2    -42.1807418  0.806163E-03  0.324E-01    0.78       1.0  T
   3    -42.1826581 -0.191627E-02  0.186E-01    0.90       1.0  T
   4    -42.1825655  0.925527E-04  0.128E-01    0.83       1.0  T
   5    -42.1830733 -0.507798E-03  0.515E-02    0.87       1.0  T
   6    -42.1831545 -0.811488E-04  0.190E-02    0.86       1.1  T
   7    -42.1831584 -0.397932E-05  0.103E-02    0.86       1.9  T
   8    -42.1831593 -0.866940E-06  0.440E-03    0.86       4.5  T
   9    -42.1831598 -0.463831E-06  0.130E-03    0.86      15.4  T
  10    -42.1831598 -0.603803E-08  0.601E-04    0.86      33.3  T
  11    -42.1831598 -0.544727E-08  0.144E-04    0.86     138.9  T
     SCC iter.                  ...        0 min,  0.014 sec
     gradient                   ...        0 min,  0.011 sec
 * total energy  :   -41.7761986 Eh     change       -0.1755783E-01 Eh
   gradient norm :     0.2620978 Eh/α   predicted    -0.1399693E-01 ( -20.28%)
   displ. norm   :     0.2626669 α      lambda       -0.2420997E-01
   maximum displ.:     0.1353696 α      in ANC's #1, #24, #32, ...

........................................................................
.............................. CYCLE   18 ..............................
........................................................................

 iter      E             dE          RMSdq      gap      omega  full diag
   1    -42.1937498 -0.421937E+02  0.419E-01    1.03       0.0  T
   2    -42.1921352  0.161461E-02  0.385E-01    0.85       1.0  T
   3    -42.1954142 -0.327894E-02  0.197E-01    0.99       1.0  T
   4    -42.1952739  0.140328E-03  0.143E-01    0.93       1.0  T
   5    -42.1959630 -0.689137E-03  0.435E-02    0.96       1.0  T
   6    -42.1960055 -0.425106E-04  0.214E-02    0.96       1.0  T
   7    -42.1960079 -0.243453E-05  0.127E-02    0.96       1.6  T
   8    -42.1960100 -0.210024E-05  0.491E-03    0.96       4.1  T
   9    -42.1960106 -0.537383E-06  0.156E-03    0.96      12.8  T
  10    -42.1960106 -0.165995E-07  0.475E-04    0.96      42.1  T
  11    -42.1960106 -0.211852E-08  0.117E-04    0.96     170.8  T
     SCC iter.                  ...        0 min,  0.014 sec
     gradient                   ...        0 min,  0.011 sec
 * total energy  :   -41.7930821 Eh     change       -0.1688348E-01 Eh
   gradient norm :     0.1728499 Eh/α   predicted    -0.1294037E-01 ( -23.35%)
   displ. norm   :     0.2238302 α      lambda       -0.1973598E-01
   maximum displ.:     0.0912950 α      in ANC's #32, #24, #7, ...

........................................................................
.............................. CYCLE   19 ..............................
........................................................................

 iter      E             dE          RMSdq      gap      omega  full diag
   1    -42.2243448 -0.422243E+02  0.358E-01    1.07       0.0  T
   2    -42.2229844  0.136039E-02  0.303E-01    0.94       1.0  T
   3    -42.2251805 -0.219612E-02  0.185E-01    1.04       1.0  T
   4    -42.2255966 -0.416044E-03  0.658E-02    1.02       1.0  T
   5    -42.2257287 -0.132158E-03  0.285E-02    1.02       1.0  T
   6    -42.2257549 -0.262121E-04  0.771E-03    1.02       2.6  T
   7    -42.2257557 -0.774082E-06  0.397E-03    1.02       5.0  T
   8    -42.2257559 -0.159400E-06  0.157E-03    1.02      12.7  T
   9    -42.2257559 -0.531969E-07  0.293E-04    1.02      68.3  T
  10    -42.2257559 -0.653699E-11  0.172E-04    1.02     116.6  T
     SCC iter.                  ...        0 min,  0.012 sec
     gradient                   ...        0 min,  0.011 sec
 * total energy  :   -41.8067503 Eh     change       -0.1366819E-01 Eh
   gradient norm :     0.1872417 Eh/α   predicted    -0.1036247E-01 ( -24.19%)
   displ. norm   :     0.1741166 α      lambda       -0.1410208E-01
   maximum displ.:     0.0720034 α      in ANC's #32, #7, #37, ...

........................................................................
.............................. CYCLE   20 ..............................
........................................................................

 iter      E             dE          RMSdq      gap      omega  full diag
   1    -42.2526804 -0.422527E+02  0.335E-01    1.11       0.0  T
   2    -42.2518101  0.870376E-03  0.270E-01    1.01       1.0  T
   3    -42.2533985 -0.158848E-02  0.177E-01    1.08       1.0  T
   4    -42.2538331 -0.434559E-03  0.489E-02    1.07       1.0  T
   5    -42.2538756 -0.424858E-04  0.418E-02    1.06       1.0  T
   6    -42.2539268 -0.512074E-04  0.887E-03    1.06       2.3  T
   7    -42.2539267  0.554907E-07  0.586E-03    1.06       3.4  T
   8    -42.2539272 -0.428553E-06  0.181E-03    1.06      11.1  T
   9    -42.2539272 -0.348890E-07  0.115E-03    1.06      17.4  T
  10    -42.2539272 -0.186444E-07  0.383E-04    1.06      52.3  T
  11    -42.2539272 -0.108025E-08  0.108E-04    1.06     185.3  T
     SCC iter.                  ...        0 min,  0.014 sec
     gradient                   ...        0 min,  0.011 sec
 * total energy  :   -41.8168750 Eh     change       -0.1012468E-01 Eh
   gradient norm :     0.1500843 Eh/α   predicted    -0.7267700E-02 ( -28.22%)
   displ. norm   :     0.1459815 α      lambda       -0.1240270E-01
   maximum displ.:     0.0737152 α      in ANC's #1, #2, #32, ...
 * RMSD in coord.:     0.7845684 α      energy gain  -0.4714178E+02 Eh

generating ANC from model Hessian ...
Using Lindh-Hessian (1995)
 Shifting diagonal of input Hessian by    9.8829786499776574E-003
 Lowest  eigenvalues of input Hessian
    0.000000    0.000000    0.000000    0.000000    0.000000    0.000000
    0.010000    0.011552    0.012648    0.013648    0.014791    0.018045
    0.020371    0.021763    0.022551    0.026060    0.029693    0.038834
 Highest eigenvalues
    1.901770    1.974792    2.159277    2.261774    2.634632    8.333004


........................................................................
.............................. CYCLE   21 ..............................
........................................................................

 iter      E             dE          RMSdq      gap      omega  full diag
   1    -42.2762550 -0.422763E+02  0.348E-01    1.10       0.0  T
   2    -42.2755207  0.734302E-03  0.263E-01    1.04       1.0  T
   3    -42.2767483 -0.122751E-02  0.200E-01    1.10       1.0  T
   4    -42.2773708 -0.622551E-03  0.655E-02    1.07       1.0  T
   5    -42.2774639 -0.931200E-04  0.471E-02    1.07       1.0  T
   6    -42.2775238 -0.598880E-04  0.118E-02    1.08       1.7  T
   7    -42.2775239 -0.707632E-07  0.804E-03    1.07       2.5  T
   8    -42.2775247 -0.782616E-06  0.295E-03    1.07       6.8  T
   9    -42.2775248 -0.115341E-06  0.113E-03    1.07      17.7  T
  10    -42.2775248 -0.512272E-08  0.527E-04    1.07      38.0  T
  11    -42.2775248 -0.437659E-08  0.140E-04    1.07     142.7  T
     SCC iter.                  ...        0 min,  0.014 sec
     gradient                   ...        0 min,  0.011 sec
 * total energy  :   -41.8257305 Eh     change       -0.8855518E-02 Eh
   gradient norm :     0.1289076 Eh/α   predicted     0.0000000E+00 (-100.00%)
   displ. norm   :     0.5610631 α      lambda       -0.4639691E-01
   maximum displ.:     0.3162842 α      in ANC's #17, #18, #12, ...

........................................................................
.............................. CYCLE   22 ..............................
........................................................................

 iter      E             dE          RMSdq      gap      omega  full diag
   1    -42.3056241 -0.423056E+02  0.593E-01    1.02       0.0  T
   2    -42.3023839  0.324021E-02  0.498E-01    1.00       1.0  T
   3    -42.3071332 -0.474928E-02  0.315E-01    1.04       1.0  T
   4    -42.3084908 -0.135763E-02  0.134E-01    0.98       1.0  T
   5    -42.3090307 -0.539830E-03  0.368E-02    1.02       1.0  T
   6    -42.3090724 -0.417273E-04  0.106E-02    1.01       1.9  T
   7    -42.3090729 -0.485806E-06  0.738E-03    1.01       2.7  T
   8    -42.3090738 -0.930660E-06  0.261E-03    1.01       7.7  T
   9    -42.3090739 -0.108128E-06  0.895E-04    1.01      22.4  T
  10    -42.3090739 -0.923350E-09  0.493E-04    1.01      40.5  T
     SCC iter.                  ...        0 min,  0.012 sec
     gradient                   ...        0 min,  0.011 sec
 * total energy  :   -41.8620748 Eh     change       -0.3634430E-01 Eh
   gradient norm :     0.0844740 Eh/α   predicted    -0.3050789E-01 ( -16.06%)
   displ. norm   :     0.5993626 α      lambda       -0.3437207E-01
   maximum displ.:     0.2286070 α      in ANC's #17, #13, #10, ...

........................................................................
.............................. CYCLE   23 ..............................
........................................................................

 iter      E             dE          RMSdq      gap      omega  full diag
   1    -42.3258205 -0.423258E+02  0.797E-01    1.04       0.0  T
   2    -42.3162851  0.953541E-02  0.736E-01    0.83       1.0  T
   3    -42.3311937 -0.149086E-01  0.402E-01    1.05       1.0  T
   4    -42.3338108 -0.261709E-02  0.208E-01    0.92       1.0  T
   5    -42.3346857 -0.874904E-03  0.558E-02    0.96       1.0  T
   6    -42.3347817 -0.959939E-04  0.131E-02    0.96       1.5  T
   7    -42.3347824 -0.713257E-06  0.807E-03    0.96       2.5  T
   8    -42.3347829 -0.433619E-06  0.289E-03    0.96       6.9  T
   9    -42.3347830 -0.118985E-06  0.150E-03    0.96      13.4  T
  10    -42.3347830 -0.323075E-07  0.753E-04    0.96      26.6  T
  11    -42.3347830 -0.419040E-08  0.355E-04    0.96      56.3  T
     SCC iter.                  ...        0 min,  0.014 sec
     gradient                   ...        0 min,  0.011 sec
 * total energy  :   -41.8863150 Eh     change       -0.2424020E-01 Eh
   gradient norm :     0.0525177 Eh/α   predicted    -0.2335992E-01 (  -3.63%)
   displ. norm   :     0.5279100 α      lambda       -0.1427342E-01
   maximum displ.:     0.2302586 α      in ANC's #3, #10, #5, ...

........................................................................
.............................. CYCLE   24 ..............................
........................................................................

 iter      E             dE          RMSdq      gap      omega  full diag
   1    -42.3421478 -0.423421E+02  0.571E-01    1.04       0.0  T
   2    -42.3381132  0.403458E-02  0.497E-01    0.83       1.0  T
   3    -42.3440903 -0.597715E-02  0.300E-01    1.06       1.0  T
   4    -42.3455999 -0.150960E-02  0.178E-01    0.93       1.0  T
   5    -42.3463023 -0.702389E-03  0.382E-02    0.96       1.0  T
   6    -42.3463386 -0.362373E-04  0.114E-02    0.97       1.7  T
   7    -42.3463391 -0.522269E-06  0.628E-03    0.96       3.2  T
   8    -42.3463393 -0.253717E-06  0.267E-03    0.96       7.5  T
   9    -42.3463395 -0.160475E-06  0.103E-03    0.96      19.4  T
  10    -42.3463395 -0.103536E-07  0.462E-04    0.96      43.3  T
  11    -42.3463395 -0.140915E-08  0.204E-04    0.96      98.0  T
     SCC iter.                  ...        0 min,  0.014 sec
     gradient                   ...        0 min,  0.011 sec
 * total energy  :   -41.8965916 Eh     change       -0.1027662E-01 Eh
   gradient norm :     0.0498681 Eh/α   predicted    -0.9125632E-02 ( -11.20%)
   displ. norm   :     0.4994222 α      lambda       -0.8948026E-02
   maximum displ.:     0.2879520 α      in ANC's #3, #10, #5, ...

........................................................................
.............................. CYCLE   25 ..............................
........................................................................

 iter      E             dE          RMSdq      gap      omega  full diag
   1    -42.3555643 -0.423556E+02  0.356E-01    1.03       0.0  T
   2    -42.3549751  0.589250E-03  0.269E-01    0.93       1.0  T
   3    -42.3558977 -0.922657E-03  0.189E-01    1.04       1.0  T
   4    -42.3561234 -0.225708E-03  0.139E-01    0.95       1.0  T
   5    -42.3567243 -0.600899E-03  0.184E-02    0.99       1.1  T
   6    -42.3567296 -0.531550E-05  0.806E-03    0.99       2.5  T
   7    -42.3567300 -0.347331E-06  0.309E-03    0.99       6.5  T
   8    -42.3567301 -0.100506E-06  0.124E-03    0.99      16.1  T
   9    -42.3567301 -0.305664E-07  0.595E-04    0.99      33.6  T
  10    -42.3567301 -0.408583E-08  0.240E-04    0.99      83.4  T
     SCC iter.                  ...        0 min,  0.013 sec
     gradient                   ...        0 min,  0.011 sec
 * total energy  :   -41.9032230 Eh     change       -0.6631365E-02 Eh
   gradient norm :     0.0382145 Eh/α   predicted    -0.5589937E-02 ( -15.70%)
   displ. norm   :     0.4796916 α      lambda       -0.6264569E-02
   maximum displ.:     0.2976285 α      in ANC's #3, #10, #4, ...

........................................................................
.............................. CYCLE   26 ..............................
........................................................................

 iter      E             dE          RMSdq      gap      omega  full diag
   1    -42.3667066 -0.423667E+02  0.231E-01    1.02       0.0  T
   2    -42.3667881 -0.814682E-04  0.145E-01    1.01       1.0  T
   3    -42.3667922 -0.409840E-05  0.101E-01    1.01       1.0  T
   4    -42.3668785 -0.863258E-04  0.445E-02    1.02       1.0  T
   5    -42.3669307 -0.521868E-04  0.172E-02    1.00       1.2  T
   6    -42.3669414 -0.107390E-04  0.690E-03    1.01       2.9  T
   7    -42.3669422 -0.774826E-06  0.270E-03    1.01       7.4  T
   8    -42.3669423 -0.108220E-06  0.854E-04    1.01      23.4  T
   9    -42.3669423 -0.117553E-07  0.430E-04    1.01      46.5  T
     SCC iter.                  ...        0 min,  0.011 sec
     gradient                   ...        0 min,  0.011 sec
 * total energy  :   -41.9079082 Eh     change       -0.4685241E-02 Eh
   gradient norm :     0.0309047 Eh/α   predicted    -0.3853063E-02 ( -17.76%)
   displ. norm   :     0.5077993 α      lambda       -0.4470398E-02
   maximum displ.:     0.3379464 α      in ANC's #3, #4, #10, ...

........................................................................
.............................. CYCLE   27 ..............................
........................................................................

 iter      E             dE          RMSdq      gap      omega  full diag
   1    -42.3731693 -0.423732E+02  0.199E-01    1.02       0.0  T
   2    -42.3732314 -0.620178E-04  0.126E-01    1.03       1.0  T
   3    -42.3730934  0.137981E-03  0.101E-01    1.01       1.0  T
   4    -42.3731955 -0.102074E-03  0.676E-02    1.04       1.0  T
   5    -42.3733432 -0.147790E-03  0.125E-02    1.02       1.6  T
   6    -42.3733474 -0.414949E-05  0.531E-03    1.02       3.8  T
   7    -42.3733479 -0.491783E-06  0.235E-03    1.02       8.5  T
   8    -42.3733479 -0.407540E-07  0.613E-04    1.02      32.6  T
   9    -42.3733479 -0.344620E-08  0.313E-04    1.02      64.0  T
     SCC iter.                  ...        0 min,  0.011 sec
     gradient                   ...        0 min,  0.011 sec
 * total energy  :   -41.9113851 Eh     change       -0.3476906E-02 Eh
   gradient norm :     0.0288232 Eh/α   predicted    -0.2811568E-02 ( -19.14%)
   displ. norm   :     0.5665507 α      lambda       -0.3748152E-02
   maximum displ.:     0.3910951 α      in ANC's #3, #4, #10, ...

........................................................................
.............................. CYCLE   28 ..............................
........................................................................

 iter      E             dE          RMSdq      gap      omega  full diag
   1    -42.3760606 -0.423761E+02  0.206E-01    1.02       0.0  T
   2    -42.3761497 -0.890419E-04  0.126E-01    1.02       1.0  T
   3    -42.3761001  0.496100E-04  0.821E-02    1.01       1.0  T
   4    -42.3761417 -0.416128E-04  0.502E-02    1.03       1.0  T
   5    -42.3762185 -0.768060E-04  0.145E-02    1.02       1.4  T
   6    -42.3762258 -0.726532E-05  0.447E-03    1.02       4.5  T
   7    -42.3762261 -0.374755E-06  0.190E-03    1.02      10.5  T
   8    -42.3762262 -0.265929E-07  0.493E-04    1.02      40.6  T
   9    -42.3762262 -0.229473E-08  0.235E-04    1.02      85.0  T
     SCC iter.                  ...        0 min,  0.011 sec
     gradient                   ...        0 min,  0.011 sec
 * total energy  :   -41.9142967 Eh     change       -0.2911619E-02 Eh
   gradient norm :     0.0300703 Eh/α   predicted    -0.2475618E-02 ( -14.97%)
   displ. norm   :     0.5530007 α      lambda       -0.3055761E-02
   maximum displ.:     0.4038709 α      in ANC's #3, #4, #2, ...

........................................................................
.............................. CYCLE   29 ..............................
........................................................................

 iter      E             dE          RMSdq      gap      omega  full diag
   1    -42.3802886 -0.423803E+02  0.191E-01    1.01       0.0  T
   2    -42.3802241  0.645022E-04  0.120E-01    0.99       1.0  T
   3    -42.3798491  0.375026E-03  0.134E-01    1.03       1.0  T
   4    -42.3803236 -0.474462E-03  0.401E-02    0.99       1.0  T
   5    -42.3803787 -0.551782E-04  0.593E-03    1.00       3.4  T
   6    -42.3803791 -0.394153E-06  0.285E-03    1.00       7.0  T
   7    -42.3803792 -0.356742E-07  0.114E-03    1.00      17.5  T
   8    -42.3803792 -0.204402E-07  0.340E-04    1.00      58.8  T
   9    -42.3803792 -0.387963E-09  0.194E-04    1.00     103.3  T
     SCC iter.                  ...        0 min,  0.011 sec
     gradient                   ...        0 min,  0.011 sec
 * total energy  :   -41.9165893 Eh     change       -0.2292557E-02 Eh
   gradient norm :     0.0285535 Eh/α   predicted    -0.1995124E-02 ( -12.97%)
   displ. norm   :     0.5167680 α      lambda       -0.2347311E-02
   maximum displ.:     0.3675853 α      in ANC's #3, #1, #2, ...

........................................................................
.............................. CYCLE   30 ..............................
........................................................................

 iter      E             dE          RMSdq      gap      omega  full diag
   1    -42.3835584 -0.423836E+02  0.175E-01    0.96       0.0  T
   2    -42.3835611 -0.264228E-05  0.106E-01    0.96       1.0  T
   3    -42.3833149  0.246196E-03  0.106E-01    0.98       1.0  T
   4    -42.3835582 -0.243323E-03  0.389E-02    0.95       1.0  T
   5    -42.3836219 -0.637531E-04  0.626E-03    0.96       3.2  T
   6    -42.3836227 -0.759980E-06  0.303E-03    0.96       6.6  T
   7    -42.3836228 -0.775921E-07  0.142E-03    0.96      14.1  T
   8    -42.3836228 -0.215159E-07  0.354E-04    0.96      56.5  T
   9    -42.3836228 -0.355463E-09  0.188E-04    0.96     106.3  T
     SCC iter.                  ...        0 min,  0.011 sec
     gradient                   ...        0 min,  0.011 sec
 * total energy  :   -41.9182733 Eh     change       -0.1684037E-02 Eh
   gradient norm :     0.0307224 Eh/α   predicted    -0.1487084E-02 ( -11.70%)
   displ. norm   :     0.5009661 α      lambda       -0.2019321E-02
   maximum displ.:     0.3754791 α      in ANC's #3, #1, #2, ...

........................................................................
.............................. CYCLE   31 ..............................
........................................................................

 iter      E             dE          RMSdq      gap      omega  full diag
   1    -42.3875072 -0.423875E+02  0.190E-01    0.97       0.0  T
   2    -42.3862003  0.130683E-02  0.230E-01    0.87       1.0  T
   3    -42.3880037 -0.180340E-02  0.903E-02    0.94       1.0  T
   4    -42.3881017 -0.979746E-04  0.241E-02    0.93       1.0  T
   5    -42.3881111 -0.935020E-05  0.712E-03    0.93       2.8  T
   6    -42.3881126 -0.148230E-05  0.258E-03    0.93       7.8  T
   7    -42.3881126 -0.167317E-07  0.126E-03    0.93      15.9  T
   8    -42.3881126 -0.163092E-07  0.472E-04    0.93      42.4  T
   9    -42.3881126 -0.437439E-08  0.179E-04    0.93     111.8  T
     SCC iter.                  ...        0 min,  0.011 sec
     gradient                   ...        0 min,  0.011 sec
 * total energy  :   -41.9195271 Eh     change       -0.1253821E-02 Eh
   gradient norm :     0.0243577 Eh/α   predicted    -0.1263054E-02 (   0.74%)
   displ. norm   :     0.4407079 α      lambda       -0.1615154E-02
   maximum displ.:     0.3029103 α      in ANC's #3, #1, #13, ...

........................................................................
.............................. CYCLE   32 ..............................
........................................................................

 iter      E             dE          RMSdq      gap      omega  full diag
   1    -42.3909585 -0.423910E+02  0.160E-01    0.89       0.0  T
   2    -42.3910115 -0.529283E-04  0.991E-02    0.90       1.0  T
   3    -42.3909950  0.164111E-04  0.724E-02    0.90       1.0  T
   4    -42.3909655  0.295200E-04  0.499E-02    0.88       1.0  T
   5    -42.3910718 -0.106304E-03  0.833E-03    0.90       2.4  T
   6    -42.3910738 -0.202078E-05  0.314E-03    0.90       6.4  T
   7    -42.3910739 -0.670462E-07  0.165E-03    0.90      12.2  T
   8    -42.3910739 -0.302424E-07  0.475E-04    0.90      42.1  T
   9    -42.3910739 -0.159622E-08  0.270E-04    0.90      74.0  T
     SCC iter.                  ...        0 min,  0.011 sec
     gradient                   ...        0 min,  0.011 sec
 * total energy  :   -41.9204802 Eh     change       -0.9530840E-03 Eh
   gradient norm :     0.0225288 Eh/α   predicted    -0.9644310E-03 (   1.19%)
   displ. norm   :     0.4007789 α      lambda       -0.9344150E-03
   maximum displ.:     0.2742638 α      in ANC's #3, #1, #2, ...

........................................................................
.............................. CYCLE   33 ..............................
........................................................................

 iter      E             dE          RMSdq      gap      omega  full diag
   1    -42.3882047 -0.423882E+02  0.133E-01    0.90       0.0  T
   2    -42.3879010  0.303772E-03  0.126E-01    0.85       1.0  T
   3    -42.3882209 -0.319893E-03  0.788E-02    0.90       1.0  T
   4    -42.3883410 -0.120109E-03  0.225E-02    0.88       1.0  T
   5    -42.3883522 -0.112694E-04  0.518E-03    0.88       3.9  T
   6    -42.3883529 -0.636623E-06  0.203E-03    0.88       9.9  T
   7    -42.3883529 -0.719564E-08  0.899E-04    0.88      22.2  T
   8    -42.3883529 -0.132014E-07  0.286E-04    0.88      69.9  T
     SCC iter.                  ...        0 min,  0.010 sec
     gradient                   ...        0 min,  0.011 sec
 * total energy  :   -41.9210332 Eh     change       -0.5530051E-03 Eh
   gradient norm :     0.0154958 Eh/α   predicted    -0.5422603E-03 (  -1.94%)
   displ. norm   :     0.2982720 α      lambda       -0.1052934E-02
   maximum displ.:     0.1842876 α      in ANC's #1, #3, #6, ...

........................................................................
.............................. CYCLE   34 ..............................
........................................................................

 iter      E             dE          RMSdq      gap      omega  full diag
   1    -42.3998906 -0.423999E+02  0.132E-01    0.90       0.0  T
   2    -42.3994794  0.411234E-03  0.139E-01    0.84       1.0  T
   3    -42.4000133 -0.533849E-03  0.734E-02    0.89       1.0  T
   4    -42.4001056 -0.923069E-04  0.196E-02    0.88       1.0  T
   5    -42.4001101 -0.458458E-05  0.462E-03    0.88       4.3  T
   6    -42.4001106 -0.471677E-06  0.239E-03    0.88       8.4  T
   7    -42.4001107 -0.557290E-07  0.113E-03    0.88      17.8  T
   8    -42.4001107 -0.915694E-08  0.400E-04    0.88      50.0  T
   9    -42.4001107 -0.282537E-08  0.176E-04    0.88     113.5  T
     SCC iter.                  ...        0 min,  0.011 sec
     gradient                   ...        0 min,  0.011 sec
 * total energy  :   -41.9213450 Eh     change       -0.3118150E-03 Eh
   gradient norm :     0.0355786 Eh/α   predicted    -0.5733088E-03 (  83.86%)
   displ. norm   :     0.2427409 α      lambda       -0.7971616E-03
   maximum displ.:     0.1241984 α      in ANC's #3, #2, #6, ...

........................................................................
.............................. CYCLE   35 ..............................
........................................................................

 iter      E             dE          RMSdq      gap      omega  full diag
   1    -42.3944561 -0.423945E+02  0.969E-02    0.86       0.0  T
   2    -42.3944390  0.171711E-04  0.678E-02    0.88       1.0  T
   3    -42.3943851  0.538884E-04  0.644E-02    0.85       1.0  T
   4    -42.3944893 -0.104213E-03  0.270E-02    0.87       1.0  T
   5    -42.3945079 -0.186006E-04  0.295E-03    0.87       6.8  T
   6    -42.3945080 -0.898367E-07  0.140E-03    0.87      14.3  T
   7    -42.3945080 -0.110502E-08  0.670E-04    0.87      29.9  T
   8    -42.3945080 -0.915271E-08  0.192E-04    0.87     104.4  T
     SCC iter.                  ...        0 min,  0.010 sec
     gradient                   ...        0 min,  0.011 sec
 * total energy  :   -41.9217658 Eh     change       -0.4207962E-03 Eh
   gradient norm :     0.0132501 Eh/α   predicted    -0.4220723E-03 (   0.30%)
   displ. norm   :     0.1558799 α      lambda       -0.4154672E-03
   maximum displ.:     0.0959881 α      in ANC's #2, #1, #10, ...

........................................................................
.............................. CYCLE   36 ..............................
........................................................................

 iter      E             dE          RMSdq      gap      omega  full diag
   1    -42.3958284 -0.423958E+02  0.718E-02    0.85       0.0  T
   2    -42.3957337  0.946737E-04  0.716E-02    0.88       1.0  T
   3    -42.3958522 -0.118473E-03  0.389E-02    0.85       1.0  T
   4    -42.3958796 -0.274173E-04  0.145E-02    0.86       1.4  T
   5    -42.3958833 -0.375420E-05  0.285E-03    0.86       7.0  T
   6    -42.3958834 -0.110670E-06  0.115E-03    0.86      17.3  T
   7    -42.3958834 -0.422212E-09  0.466E-04    0.86      42.9  T
   8    -42.3958834 -0.326192E-08  0.182E-04    0.86     110.2  T
     SCC iter.                  ...        0 min,  0.010 sec
     gradient                   ...        0 min,  0.011 sec
 * total energy  :   -41.9219813 Eh     change       -0.2155024E-03 Eh
   gradient norm :     0.0161792 Eh/α   predicted    -0.2127816E-03 (  -1.26%)
   displ. norm   :     0.2724813 α      lambda       -0.4297429E-03
   maximum displ.:     0.1828093 α      in ANC's #1, #6, #3, ...

........................................................................
.............................. CYCLE   37 ..............................
........................................................................

 iter      E             dE          RMSdq      gap      omega  full diag
   1    -42.3919524 -0.423920E+02  0.854E-02    0.84       0.0  T
   2    -42.3918962  0.561901E-04  0.683E-02    0.86       1.0  T
   3    -42.3919070 -0.107925E-04  0.567E-02    0.84       1.0  T
   4    -42.3919847 -0.776796E-04  0.168E-02    0.85       1.2  T
   5    -42.3919912 -0.658451E-05  0.273E-03    0.85       7.3  T
   6    -42.3919913 -0.885222E-07  0.138E-03    0.85      14.5  T
   7    -42.3919913 -0.100713E-08  0.734E-04    0.85      27.2  T
   8    -42.3919913 -0.908054E-08  0.208E-04    0.85      96.2  T
     SCC iter.                  ...        0 min,  0.010 sec
     gradient                   ...        0 min,  0.011 sec
 * total energy  :   -41.9221920 Eh     change       -0.2106258E-03 Eh
   gradient norm :     0.0144442 Eh/α   predicted    -0.2308305E-03 (   9.59%)
   displ. norm   :     0.2501437 α      lambda       -0.5134776E-03
   maximum displ.:     0.1291156 α      in ANC's #2, #6, #1, ...

........................................................................
.............................. CYCLE   38 ..............................
........................................................................

 iter      E             dE          RMSdq      gap      omega  full diag
   1    -42.3966307 -0.423966E+02  0.900E-02    0.85       0.0  T
   2    -42.3966186  0.120980E-04  0.586E-02    0.84       1.0  T
   3    -42.3964546  0.163999E-03  0.713E-02    0.87       1.0  T
   4    -42.3966448 -0.190244E-03  0.110E-02    0.85       1.8  T
   5    -42.3966475 -0.268131E-05  0.311E-03    0.85       6.4  T
   6    -42.3966476 -0.941210E-07  0.149E-03    0.85      13.4  T
   7    -42.3966476 -0.128598E-07  0.667E-04    0.85      30.0  T
   8    -42.3966476 -0.868053E-08  0.229E-04    0.85      87.2  T
     SCC iter.                  ...        0 min,  0.010 sec
     gradient                   ...        0 min,  0.011 sec
 * total energy  :   -41.9224967 Eh     change       -0.3047175E-03 Eh
   gradient norm :     0.0141591 Eh/α   predicted    -0.2728191E-03 ( -10.47%)
   displ. norm   :     0.2852842 α      lambda       -0.3842452E-03
   maximum displ.:     0.1632958 α      in ANC's #1, #2, #6, ...

........................................................................
.............................. CYCLE   39 ..............................
........................................................................

 iter      E             dE          RMSdq      gap      omega  full diag
   1    -42.3980097 -0.423980E+02  0.964E-02    0.85       0.0  T
   2    -42.3979520  0.577154E-04  0.698E-02    0.83       1.0  T
   3    -42.3978716  0.803989E-04  0.743E-02    0.86       1.0  T
   4    -42.3980370 -0.165418E-03  0.705E-03    0.85       2.8  T
   5    -42.3980380 -0.100759E-05  0.322E-03    0.85       6.2  T
   6    -42.3980381 -0.112671E-06  0.139E-03    0.85      14.4  T
   7    -42.3980382 -0.115524E-07  0.425E-04    0.85      47.1  T
   8    -42.3980382 -0.401289E-08  0.173E-04    0.85     115.6  T
     SCC iter.                  ...        0 min,  0.010 sec
     gradient                   ...        0 min,  0.011 sec
 * total energy  :   -41.9227935 Eh     change       -0.2968265E-03 Eh
   gradient norm :     0.0122659 Eh/α   predicted    -0.2077616E-03 ( -30.01%)
   displ. norm   :     0.4617513 α      lambda       -0.5866368E-03
   maximum displ.:     0.2780098 α      in ANC's #1, #2, #6, ...

........................................................................
.............................. CYCLE   40 ..............................
........................................................................

 iter      E             dE          RMSdq      gap      omega  full diag
   1    -42.3975970 -0.423976E+02  0.154E-01    0.85       0.0  T
   2    -42.3975647  0.322789E-04  0.944E-02    0.84       1.0  T
   3    -42.3971289  0.435772E-03  0.121E-01    0.88       1.0  T
   4    -42.3976236 -0.494631E-03  0.125E-02    0.84       1.6  T
   5    -42.3976277 -0.415430E-05  0.521E-03    0.85       3.8  T
   6    -42.3976281 -0.362537E-06  0.238E-03    0.85       8.4  T
   7    -42.3976281 -0.533388E-07  0.756E-04    0.85      26.5  T
   8    -42.3976282 -0.956083E-08  0.326E-04    0.85      61.3  T
     SCC iter.                  ...        0 min,  0.010 sec
     gradient                   ...        0 min,  0.011 sec
 * total energy  :   -41.9232303 Eh     change       -0.4367961E-03 Eh
   gradient norm :     0.0106481 Eh/α   predicted    -0.3558696E-03 ( -18.53%)
   displ. norm   :     0.4194015 α      lambda       -0.5527071E-03
   maximum displ.:     0.2610237 α      in ANC's #1, #2, #6, ...

........................................................................
.............................. CYCLE   41 ..............................
........................................................................

 iter      E             dE          RMSdq      gap      omega  full diag
   1    -42.3977334 -0.423977E+02  0.142E-01    0.85       0.0  T
   2    -42.3977443 -0.109735E-04  0.806E-02    0.86       1.0  T
   3    -42.3977175  0.268535E-04  0.346E-02    0.85       1.0  T
   4    -42.3977445 -0.270204E-04  0.134E-02    0.85       1.5  T
   5    -42.3977487 -0.421826E-05  0.745E-03    0.86       2.7  T
   6    -42.3977503 -0.160230E-05  0.262E-03    0.85       7.6  T
   7    -42.3977504 -0.785414E-07  0.624E-04    0.85      32.1  T
   8    -42.3977504 -0.411345E-08  0.302E-04    0.85      66.2  T
     SCC iter.                  ...        0 min,  0.010 sec
     gradient                   ...        0 min,  0.011 sec
 * total energy  :   -41.9235533 Eh     change       -0.3229766E-03 Eh
   gradient norm :     0.0151928 Eh/α   predicted    -0.3249655E-03 (   0.62%)
   displ. norm   :     0.3440524 α      lambda       -0.5305136E-03
   maximum displ.:     0.2068336 α      in ANC's #1, #6, #2, ...

........................................................................
.............................. CYCLE   42 ..............................
........................................................................

 iter      E             dE          RMSdq      gap      omega  full diag
   1    -42.3974299 -0.423974E+02  0.114E-01    0.87       0.0  T
   2    -42.3974383 -0.843657E-05  0.649E-02    0.86       1.0  T
   3    -42.3974255  0.127901E-04  0.239E-02    0.87       1.0  T
   4    -42.3974351 -0.960451E-05  0.134E-02    0.86       1.5  T
   5    -42.3974415 -0.632992E-05  0.467E-03    0.87       4.3  T
   6    -42.3974418 -0.343569E-06  0.171E-03    0.87      11.7  T
   7    -42.3974418 -0.182694E-07  0.374E-04    0.87      53.5  T
   8    -42.3974418 -0.211720E-08  0.196E-04    0.87     101.9  T
     SCC iter.                  ...        0 min,  0.010 sec
     gradient                   ...        0 min,  0.011 sec
 * total energy  :   -41.9238178 Eh     change       -0.2645042E-03 Eh
   gradient norm :     0.0174526 Eh/α   predicted    -0.2966588E-03 (  12.16%)
   displ. norm   :     0.3909380 α      lambda       -0.5925628E-03
   maximum displ.:     0.2528285 α      in ANC's #1, #2, #6, ...
 * RMSD in coord.:     1.3822559 α      energy gain  -0.1069428E+00 Eh

generating ANC from model Hessian ...
Using Lindh-Hessian (1995)
 Shifting diagonal of input Hessian by    9.2514108983375847E-003
 Lowest  eigenvalues of input Hessian
    0.000000    0.000000    0.000000    0.000000    0.000000    0.000000
    0.010000    0.011216    0.011979    0.013450    0.015778    0.017750
    0.018960    0.020580    0.021883    0.027168    0.032340    0.036822
 Highest eigenvalues
    1.777208    1.927274    2.073230    2.298461    2.727749    8.475328


........................................................................
.............................. CYCLE   43 ..............................
........................................................................

 iter      E             dE          RMSdq      gap      omega  full diag
   1    -42.3920832 -0.423921E+02  0.113E-01    0.88       0.0  T
   2    -42.3921005 -0.172891E-04  0.678E-02    0.87       1.0  T
   3    -42.3920657  0.348618E-04  0.413E-02    0.88       1.0  T
   4    -42.3920794 -0.137563E-04  0.290E-02    0.87       1.0  T
   5    -42.3921113 -0.318709E-04  0.494E-03    0.87       4.0  T
   6    -42.3921117 -0.444148E-06  0.189E-03    0.87      10.6  T
   7    -42.3921118 -0.101543E-07  0.838E-04    0.87      23.9  T
   8    -42.3921118 -0.128423E-07  0.275E-04    0.87      72.7  T
     SCC iter.                  ...        0 min,  0.010 sec
     gradient                   ...        0 min,  0.011 sec
 * total energy  :   -41.9239952 Eh     change       -0.1774416E-03 Eh
   gradient norm :     0.0181092 Eh/α   predicted     0.0000000E+00 (-100.00%)
   displ. norm   :     0.1150594 α      lambda       -0.8235480E-03
   maximum displ.:     0.0558045 α      in ANC's #6, #1, #9, ...

........................................................................
.............................. CYCLE   44 ..............................
........................................................................

 iter      E             dE          RMSdq      gap      omega  full diag
   1    -42.3995598 -0.423996E+02  0.705E-02    0.88       0.0  T
   2    -42.3995652 -0.542239E-05  0.407E-02    0.88       1.0  T
   3    -42.3995540  0.111790E-04  0.210E-02    0.88       1.0  T
   4    -42.3995589 -0.484725E-05  0.156E-02    0.87       1.3  T
   5    -42.3995675 -0.861891E-05  0.244E-03    0.88       8.2  T
   6    -42.3995676 -0.867655E-07  0.114E-03    0.88      17.5  T
   7    -42.3995676 -0.124182E-08  0.325E-04    0.88      61.5  T
   8    -42.3995676 -0.244754E-08  0.111E-04    0.88     179.9  T
     SCC iter.                  ...        0 min,  0.010 sec
     gradient                   ...        0 min,  0.011 sec
 * total energy  :   -41.9245761 Eh     change       -0.5808777E-03 Eh
   gradient norm :     0.0065535 Eh/α   predicted    -0.4172282E-03 ( -28.17%)
   displ. norm   :     0.1734779 α      lambda       -0.4258565E-03
   maximum displ.:     0.0928950 α      in ANC's #6, #1, #9, ...

........................................................................
.............................. CYCLE   45 ..............................
........................................................................

 iter      E             dE          RMSdq      gap      omega  full diag
   1    -42.4035196 -0.424035E+02  0.811E-02    0.88       0.0  T
   2    -42.4035225 -0.288975E-05  0.463E-02    0.88       1.0  T
   3    -42.4034848  0.376974E-04  0.404E-02    0.88       1.0  T
   4    -42.4035179 -0.331058E-04  0.155E-02    0.89       1.3  T
   5    -42.4035276 -0.969233E-05  0.268E-03    0.88       7.5  T
   6    -42.4035278 -0.143667E-06  0.105E-03    0.88      19.1  T
   7    -42.4035278 -0.970125E-09  0.355E-04    0.88      56.3  T
   8    -42.4035278 -0.279458E-08  0.126E-04    0.88     159.2  T
     SCC iter.                  ...        0 min,  0.010 sec
     gradient                   ...        0 min,  0.011 sec
 * total energy  :   -41.9248764 Eh     change       -0.3002956E-03 Eh
   gradient norm :     0.0059094 Eh/α   predicted    -0.2193668E-03 ( -26.95%)
   displ. norm   :     0.2300874 α      lambda       -0.3125398E-03
   maximum displ.:     0.1279560 α      in ANC's #6, #1, #9, ...

........................................................................
.............................. CYCLE   46 ..............................
........................................................................

 iter      E             dE          RMSdq      gap      omega  full diag
   1    -42.4040917 -0.424041E+02  0.892E-02    0.89       0.0  T
   2    -42.4040913  0.447675E-06  0.515E-02    0.89       1.0  T
   3    -42.4040133  0.779952E-04  0.547E-02    0.88       1.0  T
   4    -42.4040928 -0.795010E-04  0.145E-02    0.89       1.4  T
   5    -42.4041011 -0.832493E-05  0.247E-03    0.89       8.1  T
   6    -42.4041012 -0.661060E-07  0.100E-03    0.89      19.9  T
   7    -42.4041012 -0.575950E-08  0.377E-04    0.89      53.1  T
   8    -42.4041012 -0.348600E-08  0.158E-04    0.89     127.0  T
     SCC iter.                  ...        0 min,  0.010 sec
     gradient                   ...        0 min,  0.011 sec
 * total energy  :   -41.9251210 Eh     change       -0.2446348E-03 Eh
   gradient norm :     0.0066439 Eh/α   predicted    -0.1645430E-03 ( -32.74%)
   displ. norm   :     0.3524988 α      lambda       -0.3729498E-03
   maximum displ.:     0.1955208 α      in ANC's #6, #1, #7, ...

........................................................................
.............................. CYCLE   47 ..............................
........................................................................

 iter      E             dE          RMSdq      gap      omega  full diag
   1    -42.4016795 -0.424017E+02  0.115E-01    0.90       0.0  T
   2    -42.4016797 -0.196709E-06  0.666E-02    0.90       1.0  T
   3    -42.4015502  0.129560E-03  0.702E-02    0.89       1.0  T
   4    -42.4016824 -0.132241E-03  0.186E-02    0.91       1.1  T
   5    -42.4016960 -0.135480E-04  0.348E-03    0.90       5.8  T
   6    -42.4016961 -0.112103E-06  0.160E-03    0.90      12.5  T
   7    -42.4016961 -0.207248E-07  0.703E-04    0.90      28.5  T
   8    -42.4016961 -0.120756E-07  0.226E-04    0.90      88.3  T
     SCC iter.                  ...        0 min,  0.010 sec
     gradient                   ...        0 min,  0.011 sec
 * total energy  :   -41.9253590 Eh     change       -0.2379483E-03 Eh
   gradient norm :     0.0105078 Eh/α   predicted    -0.2096460E-03 ( -11.89%)
   displ. norm   :     0.1665871 α      lambda       -0.1961855E-03
   maximum displ.:     0.1043292 α      in ANC's #1, #6, #7, ...

........................................................................
.............................. CYCLE   48 ..............................
........................................................................

 iter      E             dE          RMSdq      gap      omega  full diag
   1    -42.4013558 -0.424014E+02  0.452E-02    0.91       0.0  T
   2    -42.4013558  0.249446E-07  0.269E-02    0.91       1.0  T
   3    -42.4013353  0.205324E-04  0.277E-02    0.90       1.0  T
   4    -42.4013561 -0.208392E-04  0.833E-03    0.91       2.4  T
   5    -42.4013587 -0.261361E-05  0.146E-03    0.91      13.7  T
   6    -42.4013587 -0.147101E-07  0.809E-04    0.91      24.7  T
   7    -42.4013587 -0.888950E-08  0.297E-04    0.91      67.3  T
     SCC iter.                  ...        0 min,  0.009 sec
     gradient                   ...        0 min,  0.011 sec
 * total energy  :   -41.9255158 Eh     change       -0.1568426E-03 Eh
   gradient norm :     0.0084488 Eh/α   predicted    -0.1008266E-03 ( -35.71%)
   displ. norm   :     0.2770904 α      lambda       -0.3907001E-03
   maximum displ.:     0.2009914 α      in ANC's #1, #7, #6, ...

........................................................................
.............................. CYCLE   49 ..............................
........................................................................

 iter      E             dE          RMSdq      gap      omega  full diag
   1    -42.4024716 -0.424025E+02  0.815E-02    0.92       0.0  T
   2    -42.4024786 -0.701083E-05  0.484E-02    0.91       1.0  T
   3    -42.4024739  0.464700E-05  0.209E-02    0.92       1.0  T
   4    -42.4024809 -0.701441E-05  0.411E-03    0.91       4.9  T
   5    -42.4024813 -0.383338E-06  0.175E-03    0.91      11.4  T
   6    -42.4024813 -0.609560E-08  0.108E-03    0.91      18.4  T
   7    -42.4024813 -0.390219E-08  0.819E-04    0.91      24.4  T
   8    -42.4024814 -0.216130E-07  0.186E-04    0.91     107.7  T
     SCC iter.                  ...        0 min,  0.010 sec
     gradient                   ...        0 min,  0.011 sec
 * total energy  :   -41.9257768 Eh     change       -0.2609838E-03 Eh
   gradient norm :     0.0072871 Eh/α   predicted    -0.2103566E-03 ( -19.40%)
   displ. norm   :     0.2899144 α      lambda       -0.2110872E-03
   maximum displ.:     0.2027318 α      in ANC's #1, #7, #6, ...

........................................................................
.............................. CYCLE   50 ..............................
........................................................................

 iter      E             dE          RMSdq      gap      omega  full diag
   1    -42.4018723 -0.424019E+02  0.725E-02    0.92       0.0  T
   2    -42.4018762 -0.395629E-05  0.437E-02    0.92       1.0  T
   3    -42.4018503  0.258939E-04  0.290E-02    0.93       1.0  T
   4    -42.4018679 -0.175793E-04  0.184E-02    0.91       1.1  T
   5    -42.4018798 -0.118801E-04  0.222E-03    0.92       9.0  T
   6    -42.4018798 -0.509029E-07  0.115E-03    0.92      17.4  T
   7    -42.4018799 -0.603224E-08  0.524E-04    0.92      38.2  T
   8    -42.4018799 -0.562989E-08  0.167E-04    0.92     119.5  T
     SCC iter.                  ...        0 min,  0.010 sec
     gradient                   ...        0 min,  0.011 sec
[...]
H           -1.55667491189733        2.05946651678699        1.80188644826679
H           -1.75387681770713       -2.65302744549094        0.31122427276443
H           -0.77160991845785       -2.57862187424656       -1.17824142585518
H           -2.44511078317339       -3.17102794604865       -1.25662701928933
H            1.65041335251126       -2.86400002013713        1.04106436081318

 Bond Distances (Angstroems)
 ---------------------------
C1-N2=1.4212         C1-H15=1.0942        C1-H16=1.0923        C1-H17=1.0886        N2-C1=1.4212         N2-C3=1.4379         
N2-C6=1.3578         C3-N2=1.4379         C3-N4=1.4669         C3-C5=1.5103         C3-H18=1.0733        N4-C3=1.4669         
N4-C5=1.4227         N4-H25=1.0143        C5-C3=1.5103         C5-N4=1.4227         C5-C6=1.5014         C6-N2=1.3578         
C6-C5=1.5014         C6-C7=1.3989         C7-C6=1.3989         C7-O8=1.2067         C7-N9=1.5179         O8-C7=1.2067         
N9-C7=1.5179         N9-C10=1.4529        N9-C11=1.2685        C10-N9=1.4529        C10-H19=1.0907       C10-H20=1.0880       
C10-H21=1.0898       C11-N9=1.2685        C11-O12=1.3038       C11-N13=1.3383       O12-C11=1.3038       O12-N13=1.5232       
N13-C11=1.3383       N13-O12=1.5232       N13-C14=1.4303       C14-N13=1.4303       C14-H22=1.0918       C14-H23=1.0907       
C14-H24=1.0890       H15-C1=1.0942        H16-C1=1.0923        H17-C1=1.0886        H18-C3=1.0733        H19-C10=1.0907       
H20-C10=1.0880       H21-C10=1.0898       H22-C14=1.0918       H23-C14=1.0907       H24-C14=1.0890       H25-N4=1.0143        
 C  H  Rav=1.0888 sigma=0.0055  Rmin=1.0733  Rmax=1.0942    10
 C  C  Rav=1.4702 sigma=0.0505  Rmin=1.3989  Rmax=1.5103     3
 N  H  Rav=1.0143 sigma=0.0000  Rmin=1.0143  Rmax=1.0143     1
 N  C  Rav=1.4114 sigma=0.0679  Rmin=1.2685  Rmax=1.5179    10
 O  C  Rav=1.2552 sigma=0.0486  Rmin=1.2067  Rmax=1.3038     2
 O  N  Rav=1.5232 sigma=0.0000  Rmin=1.5232  Rmax=1.5232     1

 selected bond angles (degree)
 --------------------
H15-C1-N2=110.78               H16-C1-N2=109.59               H16-C1-H15=108.04              H17-C1-N2=109.03               
H17-C1-H15=109.37              H17-C1-H16=110.02              C3-N2-C1=131.63                C6-N2-C1=133.66                
C6-N2-C3= 93.80                N4-C3-N2=108.46                C5-C3-N2= 88.63                C5-C3-N4= 57.07                
H18-C3-N2=123.38               H18-C3-N4=123.80               H18-C3-C5=136.31               C5-N4-C3= 63.00                
H25-N4-C3=113.83               H25-N4-C5=117.18               N4-C5-C3= 59.93                C6-C5-C3= 85.38                
C6-C5-N4=105.21                C5-C6-N2= 92.06                C7-C6-N2=127.91                C7-C6-C5=139.64                
O8-C7-C6=129.68                N9-C7-C6=113.53                N9-C7-O8=116.77                C10-N9-C7=115.90               
C11-N9-C7=121.47               C11-N9-C10=121.88              H19-C10-N9=108.11              H20-C10-N9=110.34              
H20-C10-H19=109.97             H21-C10-N9=109.16              H21-C10-H19=109.17             H21-C10-H20=110.05             

 selected dihedral angles (degree)
 ---------------------------------
C3-N2-C1-H15=301.89           C3-N2-C1-H16= 61.00           C3-N2-C1-H17=181.47           C6-N2-C1-H15=107.97           
C6-N2-C1-H16=227.08           C6-N2-C1-H17=347.55           N4-C3-N2-C1=221.56            N4-C3-N2-C6= 51.61            
C5-C3-N2-C1=167.10            C5-C3-N2-C6=357.14            H18-C3-N2-C1= 18.83           H18-C3-N2-C6=208.88           
C5-N4-C3-N2=284.25            C5-N4-C3-H18=127.10           H25-N4-C3-N2=174.66           H25-N4-C3-C5=250.40           
H25-N4-C3-H18= 17.50          N4-C5-C3-N2=113.13            N4-C5-C3-H18=253.64           C6-C5-C3-N2=  2.59            
C6-C5-C3-N4=249.46            C6-C5-C3-H18=143.10           C3-C5-N4-H25=104.36           C6-C5-N4-C3= 75.30            
C6-C5-N4-H25=179.66           C5-C6-N2-C1=193.26            C5-C6-N2-C3=  2.88            C7-C6-N2-C1=  7.22            
C7-C6-N2-C3=176.84            N2-C6-C5-C3=357.26            N2-C6-C5-N4=300.14            C7-C6-C5-C3=184.62            
C7-C6-C5-N4=127.51            O8-C7-C6-N2=  2.23            O8-C7-C6-C5=172.88            N9-C7-C6-N2=183.79            
N9-C7-C6-C5=354.44            C10-N9-C7-C6=117.66           C10-N9-C7-O8=299.01           C11-N9-C7-C6=287.87           
C11-N9-C7-O8=109.21           H19-C10-N9-C7= 44.45          H19-C10-N9-C11=234.29         H20-C10-N9-C7=164.75          
H20-C10-N9-C11=354.59         H21-C10-N9-C7=285.80          H21-C10-N9-C11=115.64         
           -------------------------------------------------
          |                Final Singlepoint                |
           -------------------------------------------------

          ...................................................
          :                      SETUP                      :
          :.................................................:
          :  # basis functions                  67          :
          :  # atomic orbitals                  67          :
          :  # shells                           39          :
          :  # electrons                        74          :
          :  max. iterations                   250          :
          :  Hamiltonian                  GFN2-xTB          :
          :  restarted?                      false          :
          :  GBSA solvation                  false          :
          :  PC potential                    false          :
          :  electronic temp.         5000.0000000     K    :
          :  accuracy                    1.0000000          :
          :  -> integral cutoff          0.2500000E+02      :
          :  -> integral neglect         0.1000000E-07      :
          :  -> SCF convergence          0.1000000E-05 Eh   :
          :  -> wf. convergence          0.1000000E-03 e    :
          :  Broyden damping             0.4000000          :
          ...................................................

 iter      E             dE          RMSdq      gap      omega  full diag
   1    -42.4069197 -0.424069E+02  0.135E-04    0.91       0.0  T
   2    -42.4069197  0.668763E-10  0.975E-05    0.91     205.1  T
   3    -42.4069197 -0.153406E-10  0.878E-05    0.91     227.8  T

   *** convergence criteria satisfied after 3 iterations ***

         #    Occupation            Energy/Eh            Energy/eV
      -------------------------------------------------------------
         1        2.0000           -0.9613096             -26.1586
       ...           ...                  ...                  ...
        31        1.9992           -0.6232358             -16.9591
        32        1.9988           -0.6160846             -16.7645
        33        1.9948           -0.5933742             -16.1465
        34        1.9931           -0.5888177             -16.0225
        35        1.9896           -0.5823241             -15.8458
        36        1.8865           -0.5435935             -14.7919
        37        1.5333           -0.5179195             -14.0933 (HOMO)
        38        0.5719           -0.4845943             -13.1865 (LUMO)
        39        0.0310           -0.4333674             -11.7925
        40        0.0029           -0.3957422             -10.7687
        41        0.0003           -0.3581180              -9.7449
        42        0.0000           -0.2578779              -7.0172
       ...           ...                  ...                  ...
        67                          0.5981913              16.2776
      -------------------------------------------------------------
                  HL-Gap            0.0333251 Eh            0.9068 eV
             Fermi-level           -0.4990859 Eh          -13.5808 eV

 SCC (total)                   0 d,  0 h,  0 min,  0.020 sec
 SCC setup                      ...        0 min,  0.000 sec (  0.906%)
 Dispersion                     ...        0 min,  0.000 sec (  0.804%)
 classical contributions        ...        0 min,  0.000 sec (  0.320%)
 integral evaluation            ...        0 min,  0.004 sec ( 20.408%)
 iterations                     ...        0 min,  0.004 sec ( 21.242%)
 molecular gradient             ...        0 min,  0.011 sec ( 55.687%)
 printout                       ...        0 min,  0.000 sec (  0.570%)

         :::::::::::::::::::::::::::::::::::::::::::::::::::::
         ::                     SUMMARY                     ::
         :::::::::::::::::::::::::::::::::::::::::::::::::::::
         :: total energy             -41.926531982455 Eh    ::
         :: gradient norm              0.001961087495 Eh/a0 ::
         :: HOMO-LUMO gap              0.906823024161 eV    ::
         ::.................................................::
         :: SCC energy               -42.406919701335 Eh    ::
         :: -> isotropic ES            0.119213857774 Eh    ::
         :: -> anisotropic ES         -0.002530792927 Eh    ::
         :: -> anisotropic XC          0.021341847064 Eh    ::
         :: -> dispersion             -0.020782627522 Eh    ::
         :: repulsion energy           0.480149068423 Eh    ::
         :: add. restraining           0.000000674235 Eh    ::
         :: total charge               1.000000000000 e     ::
         :::::::::::::::::::::::::::::::::::::::::::::::::::::

           -------------------------------------------------
          |                Property Printout                |
           -------------------------------------------------

    * Orbital Energies and Occupations

         #    Occupation            Energy/Eh            Energy/eV
      -------------------------------------------------------------
         1        2.0000           -0.9613096             -26.1586
       ...           ...                  ...                  ...
        25        1.9999           -0.6610662             -17.9885
        26        1.9999           -0.6528986             -17.7663
        27        1.9998           -0.6476990             -17.6248
        28        1.9997           -0.6397944             -17.4097
        29        1.9997           -0.6376282             -17.3507
        30        1.9996           -0.6334568             -17.2372
        31        1.9992           -0.6232358             -16.9591
        32        1.9988           -0.6160846             -16.7645
        33        1.9948           -0.5933742             -16.1465
        34        1.9931           -0.5888177             -16.0225
        35        1.9896           -0.5823241             -15.8458
        36        1.8865           -0.5435935             -14.7919
        37        1.5333           -0.5179195             -14.0933 (HOMO)
        38        0.5719           -0.4845943             -13.1865 (LUMO)
        39        0.0310           -0.4333674             -11.7925
        40        0.0029           -0.3957422             -10.7687
        41        0.0003           -0.3581180              -9.7449
        42        0.0000           -0.2578779              -7.0172
        43        0.0000           -0.2362846              -6.4296
        44                         -0.2138883              -5.8202
        45                         -0.1698483              -4.6218
        46                         -0.1039870              -2.8296
        47                         -0.0822472              -2.2381
        48                         -0.0723539              -1.9688
       ...                                ...                  ...
        67                          0.5981913              16.2776
      -------------------------------------------------------------
                  HL-Gap            0.0333251 Eh            0.9068 eV
             Fermi-level           -0.4990859 Eh          -13.5808 eV

     #   Z          covCN         q      C6AA      α(0)
     1   6 C        3.684    -0.076    22.178     6.743
     2   7 N        2.977     0.022    20.868     6.785
     3   6 C        4.121     0.093    18.970     6.186
     4   7 N        2.698    -0.187    25.052     7.434
     5   6 C        3.106    -0.065    29.465     8.894
     6   6 C        3.295     0.022    25.845     8.150
     7   6 C        2.753     0.250    22.796     7.818
     8   8 O        0.857    -0.321    20.165     6.021
     9   7 N        2.724    -0.026    21.742     6.925
    10   6 C        3.705    -0.068    21.966     6.700
    11   6 C        2.714     0.323    21.513     7.592
    12   8 O        1.724    -0.171    16.883     5.548
    13   7 N        2.687     0.003    21.221     6.842
    14   6 C        3.689    -0.067    21.983     6.711
    15   1 H        0.924     0.102     1.771     2.081
    16   1 H        0.924     0.106     1.730     2.057
    17   1 H        0.925     0.115     1.653     2.011
    18   1 H        0.926     0.076     2.018     2.221
    19   1 H        0.924     0.127     1.560     1.953
    20   1 H        0.925     0.108     1.710     2.045
    21   1 H        0.925     0.109     1.705     2.042
    22   1 H        0.924     0.086     1.923     2.168
    23   1 H        0.924     0.120     1.612     1.985
    24   1 H        0.925     0.124     1.580     1.966
    25   1 H        0.860     0.196     1.127     1.663

 Mol. C6AA /au·bohr⁶  :       6373.591505
 Mol. C8AA /au·bohr⁸  :     145975.775306
 Mol. α(0) /au        :        120.540923


Wiberg/Mayer (AO) data.
largest (>0.10) Wiberg bond orders for each atom

 ---------------------------------------------------------------------------
     #   Z sym  total        # sym  WBO       # sym  WBO       # sym  WBO
 ---------------------------------------------------------------------------
     1   6 C    3.923 --     2 N    1.016    17 H    0.964    16 H    0.945
                            15 H    0.941
     2   7 N    3.412 --     6 C    1.259     1 C    1.016     3 C    0.998
     3   6 C    3.813 --     2 N    0.998    18 H    0.960     4 N    0.920
                             5 C    0.854
     4   7 N    2.925 --     5 C    1.003    25 H    0.929     3 C    0.920
     5   6 C    3.034 --     6 C    1.028     4 N    1.003     3 C    0.854
     6   6 C    3.729 --     2 N    1.259     7 C    1.224     5 C    1.028
     7   6 C    3.825 --     8 O    1.705     6 C    1.224     9 N    0.807
     8   8 O    1.973 --     7 C    1.705
     9   7 N    3.614 --    11 C    1.546    10 C    0.952     7 C    0.807
                            12 O    0.108
    10   6 C    3.905 --    20 H    0.972    21 H    0.961    19 H    0.956
                             9 N    0.952
    11   6 C    3.892 --     9 N    1.546    13 N    1.122    12 O    1.114
    12   8 O    2.179 --    11 C    1.114    13 N    0.845     9 N    0.108
    13   7 N    3.111 --    11 C    1.122    14 C    1.001    12 O    0.845
    14   6 C    3.926 --    13 N    1.001    22 H    0.969    24 H    0.963
                            23 H    0.936
    15   1 H    0.965 --     1 C    0.941
    16   1 H    0.970 --     1 C    0.945
    17   1 H    0.985 --     1 C    0.964
    18   1 H    0.989 --     3 C    0.960
    19   1 H    0.982 --    10 C    0.956
    20   1 H    0.987 --    10 C    0.972
    21   1 H    0.987 --    10 C    0.961
    22   1 H    0.991 --    14 C    0.969
    23   1 H    0.985 --    14 C    0.936
    24   1 H    0.983 --    14 C    0.963
    25   1 H    0.952 --     4 N    0.929
 ---------------------------------------------------------------------------

Topologies differ in total number of bonds
Writing topology from bond orders to xtbtopo.mol

molecular dipole:
                 x           y           z       tot (Debye)
 q only:        0.450      -0.737       0.528
   full:        0.773      -0.948       0.926       3.899
molecular quadrupole (traceless):
                xx          xy          yy          xz          yz          zz
 q only:       13.555      -0.524       2.245       0.030       5.910     -15.800
  q+dip:       16.123      -2.652       0.812       2.328       3.899     -16.936
   full:       15.915      -2.772       1.065       1.423       4.538     -16.980

           -------------------------------------------------
          |                Geometry Summary                 |
           -------------------------------------------------

      molecular mass/u    :      195.1988581
   center of mass at/Å    :       -0.0987723      -0.0301705      -0.0906294
  moments of inertia/u·Å² :        0.4806786E+03   0.9131829E+03   0.1202610E+04
rotational constants/cm⁻¹ :        0.3507049E-01   0.1846030E-01   0.1401754E-01

 * 24 selected distances

     #   Z          #   Z                                           value/Å
     1   6 C        2   7 N                                       1.4211913
     2   7 N        3   6 C                                       1.4378507
     3   6 C        4   7 N                                       1.4668792
     3   6 C        5   6 C                                       1.5102625 (max)
     4   7 N        5   6 C                                       1.4227039
     2   7 N        6   6 C                                       1.3578102
     6   6 C        7   6 C                                       1.3989022
     7   6 C        8   8 O                                       1.2066824
     9   7 N       10   6 C                                       1.4529303
     9   7 N       11   6 C                                       1.2685358
    11   6 C       12   8 O                                       1.3037878
    11   6 C       13   7 N                                       1.3382943
    13   7 N       14   6 C                                       1.4302730
     1   6 C       15   1 H                                       1.0941593
     1   6 C       16   1 H                                       1.0923264
     1   6 C       17   1 H                                       1.0885643
     3   6 C       18   1 H                                       1.0733085
    10   6 C       19   1 H                                       1.0906856
    10   6 C       20   1 H                                       1.0879736
    10   6 C       21   1 H                                       1.0897919
    14   6 C       22   1 H                                       1.0918005
    14   6 C       23   1 H                                       1.0906988
    14   6 C       24   1 H                                       1.0889574
     4   7 N       25   1 H                                       1.0142980 (min)

 * 5 distinct bonds (by element types)

   Z      Z             #   av. dist./Å        max./Å        min./Å
   1 H    6 C          10     1.0888266     1.0941593     1.0733085
   6 C    6 C           2     1.4545823     1.5102625     1.3989022
   1 H    7 N           1     1.0142980     1.0142980     1.0142980
   6 C    7 N           9     1.3996076     1.4668792     1.2685358
   6 C    8 O           2     1.2552351     1.3037878     1.2066824


optimized geometry written to: xtbopt.xyz


           -------------------------------------------------
          | TOTAL ENERGY              -41.926531982455 Eh   |
          | GRADIENT NORM               0.001961087495 Eh/α |
          | HOMO-LUMO GAP               0.906823024161 eV   |
           -------------------------------------------------

------------------------------------------------------------------------
 * finished run on 2024/06/05 at 20:00:11.688     
------------------------------------------------------------------------
 total:
 * wall-time:     0 d,  0 h,  0 min,  1.714 sec
 *  cpu-time:     0 d,  0 h,  0 min,  1.692 sec
 * ratio c/w:     0.988 speedup
 SCF:
 * wall-time:     0 d,  0 h,  0 min,  0.034 sec
 *  cpu-time:     0 d,  0 h,  0 min,  0.034 sec
 * ratio c/w:     0.998 speedup
 ANC optimizer:
 * wall-time:     0 d,  0 h,  0 min,  1.653 sec
 *  cpu-time:     0 d,  0 h,  0 min,  1.648 sec
 * ratio c/w:     0.997 speedup

