72
 energy: -103.310180183444 gnorm: 0.085605492346 xtb: 6.6.1 (8d0f1dd)
N           -1.48348379618271        2.76998428152905        2.22837336931309
C           -1.56012490888997        2.16090848121060        1.14663904082463
C           -2.74552354953898        2.05163436352519        0.25051263176252
C           -3.30345116905648        0.63914580716682        0.34656141272985
C           -4.27176711316365        0.23561416534658       -0.56576518422159
C           -4.81445082088187       -1.02303489251994       -0.53792958155807
O           -5.74380342738889       -1.39581911034327       -1.45654248974415
C           -6.36638412728759       -0.54287330551060       -2.32981521714110
C           -4.38562681412219       -1.95902664447300        0.46314680807601
O           -4.97480559363483       -3.17904100732700        0.43305124173845
C           -4.65552823806128       -4.10302996815659        1.44202634817218
C           -3.42609551473823       -1.54603159171789        1.36081868386509
C           -2.88687139576866       -0.26342605250038        1.29721629773805
C           -2.19724123014577        2.29462962627420       -1.18246752781355
C           -1.26786201828095        1.17136041328965       -1.66378897707295
C           -0.00020794076172        1.11423752816240       -0.90138771946658
N            0.62261108582896       -0.03416410869613       -0.57309264491680
C            2.00208755386254       -0.03184986152064       -0.15806643695679
C            2.92914770002583       -0.54294912346890       -1.28108954815332
C            4.35845989267243       -0.43317949550946       -0.83657374030975
C            5.07244490310865        0.73020530481477       -1.04455397789700
C            6.38215585042908        0.84227856933852       -0.60573385600047
C            6.99745252869806       -0.20869093636974        0.05330828082550
O            8.27146268397622       -0.21019779542100        0.52268585077602
C            9.06537419709569        0.93247197319692        0.31944169713636
C            6.27057382471326       -1.40450733614068        0.27381645620062
O            6.95280987688077       -2.38326473845788        0.92244264479886
C            6.31887579397502       -3.61793204517285        1.14485382383098
C            4.96479735489557       -1.49579925769689       -0.16629949840445
C           -0.05374996609365       -1.30805540640154       -0.62157601598789
C           -3.87733502377507        3.06667513361554        0.58405960261777
C           -4.49986348709569        2.76576938827722        1.94574632035986
C           -3.41337130285406        4.51594440015842        0.53822074408652
H           -4.61273815888387        0.91606010516682       -1.32037898377419
H           -6.84210878328063        0.30626877580611       -1.83002584078724
H           -7.12568096897585       -1.13301828714090       -2.83212332280234
H           -5.67074925405666       -0.17673467087894       -3.09054333992830
H           -4.88566535059984       -3.71293048945579        2.43736012072522
H           -5.27858328619882       -4.97490494178057        1.24360679976548
H           -3.60219374110181       -4.39874656255948        1.40057843159385
H           -3.08127680549959       -2.21470293580707        2.13568356152269
H           -2.15676494828272        0.02556260262651        2.04319560749214
H           -3.02995888614066        2.37360479459411       -1.88038258620466
H           -1.65496003972554        3.24277096162763       -1.20178940180617
H           -1.80651808202714        0.22174751464892       -1.62692785835885
H           -1.00530293583337        1.37427262178130       -2.70586414013292
H           -0.68113734022622        1.64710368785554        0.64332822449108
H            0.63674793384554        1.98419874910317       -0.93972714837103
H            2.11556508380219       -0.66939858356994        0.72422141127121
H            2.30240530829078        0.98386101375909        0.10873000246146
H            2.76275973860841        0.06471103930626       -2.17249397672440
H            2.68021132333412       -1.57861621978560       -1.51699787330169
H            4.61737714021596        1.56133230374021       -1.56270016393457
H            6.91878174819342        1.75896711498218       -0.79100502789075
H            8.64549225196305        1.81093374420912        0.81811389518197
H            9.19842492037106        1.14525650478880       -0.74629356968604
H           10.03174283112145        0.69488237869033        0.76181688442527
H            7.05928937221133       -4.23865197481241        1.64626025656665
H            5.44059423387035       -3.51145135511060        1.79157910716126
H            6.02430021054532       -4.09570063600304        0.20434197886467
H            4.40290639839154       -2.40428923232098       -0.01210393680989
H           -0.22195569201011       -1.62449190351518       -1.65323593451611
H           -1.01879365554809       -1.25094827299794       -0.11170390467904
H            0.55849230783040       -2.05308253552663       -0.12383361464080
H           -4.65386674560629        2.92854028609167       -0.18010567414098
H           -3.76962009399544        2.90592306955993        2.73000359374858
H           -4.87212596887341        1.74463213350243        1.98922525246853
H           -5.33309628459373        3.44124909945967        2.12383436704235
H           -2.62081156819036        4.68344595887941        1.25713423034319
H           -3.06607145063860        4.79824494370035       -0.45229846589323
H           -4.24896983708499        5.16371004355440        0.79446068884332
H           -0.61105533696393        2.80576509565533        2.73615464127120
72
 energy: -103.314028425546 gnorm: 0.032542772155 xtb: 6.6.1 (8d0f1dd)
N           -1.49742224816155        2.80443143805264        2.24048869009242
C           -1.56194606397002        2.16217422106278        1.16682875817649
C           -2.74394701310541        2.05868969268188        0.25658544049391
C           -3.30491390728464        0.64818238790852        0.34721340732947
C           -4.27363864540514        0.23888265292790       -0.56830053886089
C           -4.81946357785267       -1.02676041996841       -0.53905373722245
O           -5.75544971014979       -1.43946169447265       -1.43961756644207
C           -6.35919968100725       -0.55394549890567       -2.32416764597995
C           -4.39328355865294       -1.95236144547211        0.45286293654619
O           -4.98190042839637       -3.17811190438621        0.42591729125573
C           -4.65696159151975       -4.10032744581787        1.43645703218515
C           -3.43300001873012       -1.54035817281050        1.35531601982370
C           -2.89354422665229       -0.25688340905284        1.30231525609307
C           -2.19832044239113        2.29305672610174       -1.17898138039883
C           -1.26328807826391        1.17985658139769       -1.67824734273644
C            0.00636123236091        1.12487832930843       -0.90403552573999
N            0.63186556523120       -0.04819585476766       -0.56456082859016
C            2.00609641901293       -0.04324403854499       -0.16035570190950
C            2.93654041493152       -0.54627623590311       -1.28390241000177
C            4.36398210898989       -0.43799876670270       -0.84710719084656
C            5.07686487829614        0.72845160071280       -1.04763658765855
C            6.38578249428540        0.84191454264239       -0.60413900879313
C            6.99955579208412       -0.20923861451098        0.05496923718053
O            8.27705142202111       -0.21123328016019        0.52530134144212
C            9.06717717147290        0.93229372392673        0.31979672772763
C            6.27341091126891       -1.40357255436377        0.27486420726001
O            6.95642549029620       -2.38474479543567        0.92546885311599
C            6.31916451178119       -3.61731248068199        1.14524808331838
C            4.96983517516752       -1.49752100571422       -0.17142671149182
C           -0.05081369656703       -1.31336112335420       -0.62011514280263
C           -3.88291933520875        3.06532627688357        0.58269503833100
C           -4.50412842445470        2.76735515520121        1.94566780916533
C           -3.41722966874092        4.51661943165067        0.53821058308121
H           -4.61439642889526        0.92332601778862       -1.32470122517204
H           -6.83022097627631        0.30053471777948       -1.82230407876165
H           -7.13148377356832       -1.13178595694558       -2.83011510870215
H           -5.66141980045970       -0.17574245185872       -3.08382844040656
H           -4.88561603645376       -3.70884864631039        2.43297308750094
H           -5.27753521989040       -4.97466040074016        1.24365246080753
H           -3.60216366494824       -4.39367594105540        1.39690931798539
H           -3.08689190074046       -2.21215517595028        2.12662655310454
H           -2.15718220122452        0.02542913127750        2.04069282752612
H           -3.03434607201906        2.37984237880958       -1.87417751115197
H           -1.65394293256157        3.23867913670837       -1.19699800209023
H           -1.79619094664162        0.22995252375010       -1.63103500133346
H           -1.03297068653669        1.38292506713311       -2.73347828234260
H           -0.68838061130362        1.64297046850173        0.67884091336653
H            0.65476658458990        1.98564941280222       -0.97239243507495
H            2.12715249965349       -0.67579494504405        0.72503491286335
H            2.29819246075057        0.97507888102027        0.10604880636461
H            2.76270302136809        0.06426406526191       -2.17150538568040
H            2.68328554436353       -1.58059281703712       -1.51909629546436
H            4.61951605173794        1.56000814428523       -1.56300028027304
H            6.92190315539772        1.75942585837712       -0.78743333104427
H            8.64455497703486        1.81113900737694        0.81754781734979
H            9.19794860105757        1.14616042539684       -0.74634655891333
H           10.03465132233923        0.69861844784250        0.76148413702164
H            7.05741058374541       -4.24071725740952        1.64709480264421
H            5.43983912754823       -3.50995720035057        1.79001113178061
H            6.02354023775545       -4.09386542084069        0.20431822005491
H            4.40512429634815       -2.40352539307836       -0.01332885262748
H           -0.22201297580881       -1.63158891197186       -1.65367772289254
H           -1.01658938484983       -1.25053382909943       -0.11090615536178
H            0.55736353127217       -2.06304977050283       -0.12112630636857
H           -4.65835483507670        2.93108651584942       -0.18200260031777
H           -3.76422013267090        2.90563646431447        2.72590060913104
H           -4.87366488354894        1.74540742598543        1.98844403859021
H           -5.33761334504206        3.44310546770272        2.12626381208762
H           -2.62094225440858        4.67800377815012        1.25751124895922
H           -3.06643743743210        4.79723076425882       -0.45179630579758
H           -4.24977158981706        5.16864451029010        0.79492577698684
H           -0.61855577877627        2.80553418842497        2.74774314257292
72
 energy: -103.314451166382 gnorm: 0.020429076576 xtb: 6.6.1 (8d0f1dd)
N           -1.48672902658354        2.78867821955374        2.23099163586172
C           -1.54840639015387        2.14949552174062        1.15117940271854
C           -2.74089612342883        2.05611228858426        0.25053081192553
C           -3.29533281016852        0.64485817987778        0.34449731912362
C           -4.26776672261134        0.23917806580071       -0.56742388727982
C           -4.81682451647635       -1.02582677630965       -0.53987746273061
O           -5.75873469318417       -1.44794719720633       -1.43494458655587
C           -6.35799524101756       -0.54473278424284       -2.32765468946822
C           -4.39058644965046       -1.94941477969648        0.44762525932100
O           -4.98031836888318       -3.17895967507726        0.42762078998829
C           -4.65599237016934       -4.10160654804768        1.43959941628715
C           -3.42687495283417       -1.54325151705485        1.35447855038487
C           -2.88379291691017       -0.26228770902652        1.30187366386429
C           -2.20097106927264        2.29346511955409       -1.18531940808768
C           -1.26691383621167        1.17389579527134       -1.67134199389175
C           -0.00237677376057        1.13143948470333       -0.88995619074102
N            0.63023769114304       -0.05058503243879       -0.55226334579993
C            1.99999469603766       -0.03489392961770       -0.15553489760197
C            2.93093968469828       -0.54051076583037       -1.27813598056272
C            4.35475861435499       -0.43357668725802       -0.83942256141743
C            5.06948842675150        0.73174474049226       -1.04283314731069
C            6.38057147664643        0.84326823926849       -0.60484496249605
C            6.99313920016366       -0.20839883701671        0.05302963657821
O            8.27322242171973       -0.21201298546505        0.52281866996265
C            9.06418094218480        0.93005929753777        0.31884275281704
C            6.26724144704932       -1.40087515243861        0.27533758075833
O            6.95386916063097       -2.38431319821713        0.92307582799068
C            6.31890880315616       -3.61702096894380        1.14437753910074
C            4.96182122474874       -1.49366577040659       -0.16559153491362
C           -0.05234888414875       -1.30975164820275       -0.62180126072023
C           -3.87632070453949        3.06139891375311        0.58396331621100
C           -4.50073467535885        2.76481013981662        1.94619266800464
C           -3.41463720955692        4.51616135431726        0.53787937854479
H           -4.60862672459693        0.92663204053530       -1.32245613664092
H           -6.83815761176917        0.30747906542557       -1.82735188673852
H           -7.12814878822007       -1.12721224715357       -2.83531998221668
H           -5.66298044180901       -0.16456411894683       -3.08955763788390
H           -4.88502419732258       -3.71206580966158        2.43786049560501
H           -5.27801398765326       -4.97449648088358        1.24616805468974
H           -3.60180512979259       -4.39903978658177        1.40249843437203
H           -3.08381029256759       -2.21418996455777        2.12931982488842
H           -2.15294811695184        0.02185482870463        2.04239987477000
H           -3.03470196579695        2.37625234085990       -1.88409860723310
H           -1.65560126651963        3.23888431954200       -1.20538958067463
H           -1.79837071346758        0.22261911726767       -1.62493845863762
H           -1.01998265531986        1.37350935645986       -2.72272520001530
H           -0.68228599396664        1.64963053136814        0.65287527946336
H            0.63932974431668        1.99517044852627       -0.94000968892274
H            2.12168933592208       -0.66543122171404        0.73127120055969
H            2.29209449080569        0.98491371206158        0.11040259657970
H            2.75861129025615        0.06804831642290       -2.16745060429259
H            2.67542521703462       -1.57468727157048       -1.51221708011444
H            4.61258984097133        1.56174294610989       -1.56100409913639
H            6.91737470257612        1.75946116879561       -0.79225250664174
H            8.64381365025773        1.81015721096888        0.81770408987274
H            9.19696751251973        1.14553740854290       -0.74691681586149
H           10.03054074661767        0.69384749150412        0.76121049311437
H            7.05990054727175       -4.23833429579415        1.64510278494719
H            5.44097084079647       -3.51204795130875        1.79133459859777
H            6.02275889269689       -4.09573495041042        0.20454134027539
H            4.39765724671687       -2.40045577314235       -0.00935732681282
H           -0.22224680453784       -1.62391894250822       -1.65821979344133
H           -1.01962167083532       -1.25227332751461       -0.11378158614336
H            0.55810146203785       -2.05932791811370       -0.12479824287327
H           -4.65163397746685        2.92819276137600       -0.17970272831501
H           -3.76396808417408        2.90483909000104        2.73074953281963
H           -4.87022793236350        1.74302295406826        1.98934766430405
H           -5.33438168404080        3.44094420544298        2.12237775173504
H           -2.61808289056956        4.68215830193368        1.25720328954722
H           -3.06502082348153        4.79734993283465       -0.45251227382775
H           -4.24958837450015        5.16448604311347        0.79443770936501
H           -0.59062405074225        2.78547577054800        2.71362004111661
72
 energy: -103.315071181733 gnorm: 0.010239307241 xtb: 6.6.1 (8d0f1dd)
N           -1.50892943848708        2.79004058217186        2.23870674948999
C           -1.55598223465388        2.15604145526951        1.15508843120950
C           -2.74619668645210        2.05593751600787        0.25217079704729
C           -3.30119080713246        0.64472357144307        0.34745428950027
C           -4.27084583429563        0.23995177783904       -0.56471776451216
C           -4.81613730953251       -1.02333261008156       -0.53898672269861
O           -5.75550735982763       -1.43801081631407       -1.43861136204590
C           -6.36245938757993       -0.54251525131344       -2.33123900829966
C           -4.39084908589684       -1.94837741166061        0.45106545856219
O           -4.97847617505173       -3.17882585061641        0.42938863084534
C           -4.65520657480330       -4.10235975815614        1.43962486657042
C           -3.42870230306803       -1.54292515401817        1.35997764781361
C           -2.88820541722578       -0.26197153954944        1.30469211729141
C           -2.19817878990009        2.29573848906170       -1.17992850741136
C           -1.26755023190418        1.17357172188309       -1.66673978661747
C            0.00018778872091        1.12784308899662       -0.89582176147109
N            0.63232615235218       -0.05122843626053       -0.56255381268279
C            2.00286069592646       -0.03753047859882       -0.16514727927776
C            2.93684919836179       -0.54542424057347       -1.28521464684540
C            4.36024862147623       -0.43669205457968       -0.84212315002032
C            5.07544892499569        0.72847831100202       -1.04579057280545
C            6.38551018388783        0.84136722327443       -0.60553541296834
C            6.99772755488422       -0.20966113866010        0.05316004703494
O            8.27685158659165       -0.21081859628822        0.52484001030977
C            9.06670105494311        0.93187113540809        0.32025613272708
C            6.27276044297772       -1.40307853221517        0.27329873165045
O            6.95698040008866       -2.38588159326594        0.92390300473083
C            6.31965715476611       -3.61730591394813        1.14519454599901
C            4.96806327047319       -1.49702066392809       -0.16931698727747
C           -0.05278762934946       -1.30863001559559       -0.62226433929217
C           -3.87952906331849        3.06396618394204        0.58355190712753
C           -4.50376653182676        2.76680273228256        1.94563065716702
C           -3.41598453150243        4.51787320256358        0.53780469221574
H           -4.61182347910744        0.92422228319655       -1.32094723613317
H           -6.84208554397264        0.30686738294090       -1.82899982406536
H           -7.12872286301040       -1.13372229191932       -2.83281931802795
H           -5.66732216313596       -0.17237826237064       -3.09362827161885
H           -4.88555710899513       -3.71347997965542        2.43760081577668
H           -5.27732103396511       -4.97463201751211        1.24279545606113
H           -3.60092768997202       -4.39828067376180        1.40075980366320
H           -3.08425279012752       -2.21318707421567        2.13495748250481
H           -2.15913120773149        0.02606362308771        2.04572193978198
H           -3.03056618130166        2.37807616439474       -1.87930374925988
H           -1.65336385348103        3.24201115307214       -1.19792385122510
H           -1.80274846363512        0.22382041163624       -1.62599240575828
H           -1.01285387444327        1.37644954436093       -2.71404379642425
H           -0.68823435997309        1.65203331326552        0.65968663899780
H            0.64553788592609        1.98702295238618       -0.95097752671206
H            2.12225457788561       -0.67150754875206        0.72017583602966
H            2.30154178054011        0.97986425078546        0.10362127751193
H            2.76690660760290        0.06234022290972       -2.17569547360447
H            2.68340612528567       -1.58019118037011       -1.52067377621116
H            4.61956368199457        1.55865687925231       -1.56455912660289
H            6.92099964661722        1.75884066079508       -0.79004878073437
H            8.64586927470315        1.81216980308906        0.81820143854694
H            9.19980876085104        1.14619667439020       -0.74568730632498
H           10.03340762078633        0.69715418062686        0.76279508845685
H            7.05850578621150       -4.23958595297891        1.64784032841394
H            5.44051820492868       -3.51051435018990        1.79046092518365
H            6.02499451949119       -4.09606560408519        0.20486613130769
H            4.40584035409757       -2.40547284092937       -0.01550046979492
H           -0.22490314733111       -1.62952141178872       -1.65547981930449
H           -1.01829126472937       -1.24885757001094       -0.11132495542407
H            0.55818951146099       -2.05578984279359       -0.12253140383544
H           -4.65485655786029        2.93033883292676       -0.18037085715367
H           -3.76821963354219        2.90636734357462        2.73021284119182
H           -4.87454342819040        1.74554194701348        1.98916550845305
H           -5.33593692378965        3.44352990676232        2.12359406183229
H           -2.62059889467049        4.68310846528513        1.25783640665175
H           -3.06618525762737        4.79890380987854       -0.45241667697647
H           -4.25049182605889        5.16613590507158        0.79446102299008
H           -0.61830303367130        2.79821665543562        2.72968714883500
72
 energy: -103.315057628510 gnorm: 0.011151303495 xtb: 6.6.1 (8d0f1dd)
N           -1.49537909636148        2.79709597884432        2.23721401241413
C           -1.54867442092143        2.15971405680838        1.15681677739930
C           -2.74230474878248        2.05563334212709        0.25503327189929
C           -3.30274461120966        0.64515399523152        0.34663000962022
C           -4.27103174737379        0.23931223391963       -0.56626695667265
C           -4.81500463257745       -1.02386465548094       -0.53981621480675
O           -5.75214076666645       -1.43501166245066       -1.44093351942818
C           -6.36146381110540       -0.54255247513103       -2.32975441637239
C           -4.39124408190046       -1.94964272077539        0.45082727495063
O           -4.97973496269668       -3.17909726109766        0.42821126606494
C           -4.65661917707483       -4.10093671770804        1.43864210530271
C           -3.42845842050550       -1.54383153911895        1.35735620152584
C           -2.88878645166799       -0.26273014562053        1.30129915108046
C           -2.19889670502266        2.29280879099713       -1.18026542831340
C           -1.26716479978658        1.17519957128160       -1.67591260539653
C            0.00192049756856        1.12599610258912       -0.90693207613745
N            0.63048149378346       -0.04922307259247       -0.56500248622484
C            1.99939390820563       -0.03678028646099       -0.15735359105061
C            2.93274068978090       -0.54288039571563       -1.27878550357191
C            4.35811119457642       -0.43461209807103       -0.84002612186235
C            5.07333385183992        0.73035219093036       -1.04426840602664
C            6.38328041769254        0.84302777378401       -0.60376595112030
C            6.99551742085067       -0.20858903781833        0.05436341614215
O            8.27479945113385       -0.21067107782777        0.52429214966951
C            9.06488188643999        0.93148405158556        0.31858320959922
C            6.27031249981094       -1.40181102030397        0.27478317431849
O            6.95418702366962       -2.38464713588525        0.92482166401481
C            6.31763571923950       -3.61667221906803        1.14463974695980
C            4.96550601672935       -1.49516182460139       -0.16744768245925
C           -0.05194370890957       -1.30913866893420       -0.62152825889189
C           -3.87787760917401        3.06314245477739        0.58355924692567
C           -4.50109478478443        2.76518184481375        1.94561923006293
C           -3.41451890360944        4.51623699203512        0.53802848183840
H           -4.61260662286214        0.92108129151340       -1.32387542338651
H           -6.83344046018632        0.30454092947835       -1.82086173781506
H           -7.12864913686956       -1.13173902066063       -2.83065260870208
H           -5.66157127374636       -0.17486275488591       -3.08604541045679
H           -4.88575203536789       -3.70855878700373        2.43502634734500
H           -5.27907793732154       -4.97361163082937        1.24404658817264
H           -3.60229579535233       -4.39530398960047        1.39804654348143
H           -3.08177665039814       -2.21521308600235        2.12912038716458
H           -2.15427278039372        0.02411937927345        2.03821891003659
H           -3.03494052359407        2.37569375520228       -1.87520364554891
H           -1.65552698742737        3.23948400820253       -1.20081616751390
H           -1.80144582075443        0.22590607873572       -1.63315768341247
H           -1.02349402166616        1.38012457468999       -2.72600250950779
H           -0.68558250741260        1.63927714284329        0.66621332767708
H            0.64998799763258        1.98322548319888       -0.96616461802839
H            2.11960367221143       -0.67164893677870        0.72838560769930
H            2.29723050751654        0.98021414127245        0.11206257971486
H            2.75913484770303        0.06647228220435       -2.16760293233035
H            2.67893460021432       -1.57757854096908       -1.51455583183390
H            4.61650314245260        1.56200818599086       -1.56010334926644
H            6.91896009008939        1.76039431894011       -0.78800627505278
H            8.64435046719871        1.81126926427967        0.81721629516628
H            9.19598030921033        1.14575412523241       -0.74759488525712
H           10.03242801777481        0.69671262396620        0.75959015167547
H            7.05719615506653       -4.23985052260244        1.64520437501070
H            5.43914098989906       -3.51106073720873        1.79097750113405
H            6.02197387842651       -4.09348692796817        0.20365004679226
H            4.40144116108221       -2.40174954657973       -0.00956952015304
H           -0.22008683790057       -1.63092107437262       -1.65447694394507
H           -1.01892688219804       -1.25127178446837       -0.11358734247253
H            0.55692997027150       -2.05792871769663       -0.12064208756460
H           -4.65390578392487        2.92882785800242       -0.18032981019561
H           -3.76432441280139        2.90490533605193        2.72810216507728
H           -4.87041599629761        1.74340747545965        1.98893337663393
H           -5.33395482637841        3.44063902294964        2.12567277416180
H           -2.61907357393122        4.67930714125468        1.25772168793028
H           -3.06507190133266        4.79666068023909       -0.45227460193019
H           -4.24823082466272        5.16533907102533        0.79525476933425
H           -0.60659944846354        2.80029922288323        2.73275190877725
72
 energy: -103.315280884122 gnorm: 0.004247488913 xtb: 6.6.1 (8d0f1dd)
N           -1.49791493670716        2.79308454352818        2.23839597984679
C           -1.55150788907569        2.15599348238419        1.15783511870858
C           -2.74422069971665        2.05674505362652        0.25394827434821
C           -3.30248159481058        0.64571973386674        0.34546797440506
C           -4.27128565826826        0.23922811452034       -0.56711825755682
C           -4.81715316100913       -1.02449129644044       -0.53948234700927
O           -5.75485779492835       -1.43920917646022       -1.43927325903847
C           -6.36224152870842       -0.54412553707384       -2.33064369352074
C           -4.39243309130435       -1.94929219100217        0.45020598735947
O           -4.98008884386278       -3.17977996180608        0.42850792306418
C           -4.65587469015557       -4.10178122437159        1.43900810957450
C           -3.42998136669117       -1.54252724185162        1.35723897385733
C           -2.88988463661700       -0.26140971185632        1.30203020391585
C           -2.19939642771442        2.29385335711700       -1.18094600716976
C           -1.26550879712942        1.17562268843714       -1.67104539974751
C            0.00166473905993        1.12802632491008       -0.89802308424873
N            0.63190781390194       -0.04957364228956       -0.55981169191778
C            2.00210007173900       -0.03733440936951       -0.15919933983605
C            2.93429010796119       -0.54362947525330       -1.28209202528904