72
 energy: -99.544052676641 xtb: 6.6.1 (8d0f1dd)
N           -1.58588452195285        3.10356194113189        2.19093605589165
C           -1.57610169473405        2.24998600535169        1.27658781774383
C           -2.72790877539309        1.97444552921928        0.37669122706214
C           -3.14160486706721        0.54394750619129        0.60604180698966
C           -3.94810094656382        0.01243210805195       -0.36975554360967
C           -4.48061478088323       -1.22293052017092       -0.37513371750354
O           -4.81600892179904       -0.20583703290766       -2.51418572952630
C           -5.98845206367543        0.31850798309303       -2.89487001839396
C           -4.25257711400046       -2.10491635724315        0.67942117389943
O           -4.77572856849173       -3.35411433269025        0.71935470542448
C           -4.54748045108704       -4.12985638176851        1.86608455746732
C           -3.46049007698202       -1.57320748657393        1.69795024857338
C           -2.90267774068214       -0.30101098415193        1.65622875143450
C           -2.23197827755688        2.17668482611551       -1.09013903429812
C           -1.33439379666326        1.06157498608347       -1.67302923362727
C            0.00114144600347        0.96178833940303       -1.04933640280211
N            0.58085246639819       -0.14842677828186       -0.57612906014975
C            1.97384967864068       -0.12682294448817       -0.19835689935197
C            2.90859326664447       -0.59449977206885       -1.33588413063237
C            4.34002134982984       -0.47449038003191       -0.90012309761975
C            5.03285140321076        0.70479693035253       -1.08549529953646
C            6.34062629128546        0.83534124157832       -0.64140556999859
C            6.97430833388312       -0.21433502100120       -0.00119305228755
O            8.24682893967377       -0.19939431778029        0.47930512288106
C            9.01533675241899        0.96667291972541        0.32303218548088
C            6.27324816142110       -1.42674747450387        0.19686803555076
O            6.97329581795691       -2.40385341796486        0.83428374163509
C            6.35719030458347       -3.64821554671858        1.04739187486512
C            4.96892045008449       -1.53336498351997       -0.24513105602469
C           -0.07812446927048       -1.42217839616363       -0.65017028611521
C           -3.98546480307558        2.86948785800081        0.60134918230422
C           -4.58042682180518        2.64492624225377        1.98846581379839
C           -3.69718819284628        4.34919720262909        0.39283354764811
H           -4.09506109453976        0.60539576491238       -1.25208970521838
H           -6.62198377899811        0.85759591799160       -2.15643661928900
H           -6.59206080673413       -0.44379689708357       -3.39416256320465
H           -5.73176504409189        1.07912370557548       -3.66141402110934
H           -4.92319114021719       -3.65680816712389        2.78507467394618
H           -5.09262495685385       -5.05768031696725        1.69066172488872
H           -3.48485956429109       -4.36784606938182        1.99156786399336
H           -3.28269856321229       -2.17564610821316        2.56922700509462
H           -2.30231965541987        0.02829131880208        2.48835055267431
H           -3.10067627401703        2.26385395798221       -1.74738757273993
H           -1.69571976058518        3.12816391785281       -1.14307524713295
H           -1.85811704849560        0.10597751250010       -1.63665113488274
H           -1.19335947279459        1.32568564567970       -2.73585317162788
H           -0.72588147327754        1.59804523247064        0.99553068540912
H            0.60642399091057        1.85856765384854       -1.01520751482882
H            2.12131369036478       -0.77757514144205        0.66952296553795
H            2.24962124279253        0.89390515362224        0.08712503120039
H            2.72552299165222        0.02747210941751       -2.21411898224016
H            2.67793694274010       -1.62840964126817       -1.59137695346163
H            4.56304121345310        1.53710880473685       -1.58629763766842
H            6.85635100400807        1.76828876783819       -0.80293511172274
H            8.56546209301619        1.82196920115135        0.83708451632681
H            9.16353966947676        1.21136374424572       -0.73381221261717
H            9.98140561235427        0.74540051870195        0.77631644237883
H            7.10359400649126       -4.26228065046217        1.54927930298062
H            5.47301381277176       -3.56098243520378        1.68926091476671
H            6.07563907898610       -4.12463004971129        0.10230111565066
H            4.42129879083569       -2.45206687017802       -0.10306217339244
H           -0.24146292983334       -1.71977780690804       -1.68604858104694
H           -1.04588378842887       -1.37651400540817       -0.14789608377895
H            0.53837161027263       -2.16252501795670       -0.14884646822809
H           -4.73891144911596        2.55434234036231       -0.13339276007220
H           -3.87936103223084        2.94763823073705        2.75644105461938
H           -4.83715759124273        1.59723938663274        2.13368359894712
H           -5.48706600813463        3.23215979087612        2.10648320853656
H           -2.89226834989108        4.65135188311554        1.04627553451529
H           -3.42330070056288        4.55806662679716       -0.63680421387431
H           -4.58503633777355        4.92839996692526        0.63495788219102
H           -0.73424139073573        3.18903825211282        2.73669237754550
