      -----------------------------------------------------------      
     |                   =====================                   |     
     |                           x T B                           |     
     |                   =====================                   |     
     |                         S. Grimme                         |     
     |          Mulliken Center for Theoretical Chemistry        |     
     |                    University of Bonn                     |     
      -----------------------------------------------------------      

   * xtb version 6.6.1 (8d0f1dd) compiled by 'conda@1efc2f54142f' on 2023-08-01

   xtb is free software: you can redistribute it and/or modify it under
   the terms of the GNU Lesser General Public License as published by
   the Free Software Foundation, either version 3 of the License, or
   (at your option) any later version.
   
   xtb is distributed in the hope that it will be useful,
   but WITHOUT ANY WARRANTY; without even the implied warranty of
   MERCHANTABILITY or FITNESS FOR A PARTICULAR PURPOSE.  See the
   GNU Lesser General Public License for more details.
   
   Cite this work as:
   * C. Bannwarth, E. Caldeweyher, S. Ehlert, A. Hansen, P. Pracht,
     J. Seibert, S. Spicher, S. Grimme, WIREs Comput. Mol. Sci., 2020, 11,
     e01493. DOI: 10.1002/wcms.1493
   
   for GFN2-xTB:
   * C. Bannwarth, S. Ehlert and S. Grimme., J. Chem. Theory Comput., 2019,
     15, 1652-1671. DOI: 10.1021/acs.jctc.8b01176
   for GFN1-xTB:
   * S. Grimme, C. Bannwarth, P. Shushkov, J. Chem. Theory Comput., 2017,
     13, 1989-2009. DOI: 10.1021/acs.jctc.7b00118
   for GFN0-xTB:
   * P. Pracht, E. Caldeweyher, S. Ehlert, S. Grimme, ChemRxiv, 2019, preprint.
     DOI: 10.26434/chemrxiv.8326202.v1
   for GFN-FF:
   * S. Spicher and S. Grimme, Angew. Chem. Int. Ed., 2020, 59, 15665-15673.
     DOI: 10.1002/anie.202004239
   
   for ALPB and GBSA implicit solvation:
   * S. Ehlert, M. Stahn, S. Spicher, S. Grimme, J. Chem. Theory Comput.,
     2021, 17, 4250-4261. DOI: 10.1021/acs.jctc.1c00471
   
   for DFT-D4:
   * E. Caldeweyher, C. Bannwarth and S. Grimme, J. Chem. Phys., 2017,
     147, 034112. DOI: 10.1063/1.4993215
   * E. Caldeweyher, S. Ehlert, A. Hansen, H. Neugebauer, S. Spicher,
     C. Bannwarth and S. Grimme, J. Chem. Phys., 2019, 150, 154122.
     DOI: 10.1063/1.5090222
   * E. Caldeweyher, J.-M. Mewes, S. Ehlert and S. Grimme, Phys. Chem. Chem. Phys.
     2020, 22, 8499-8512. DOI: 10.1039/D0CP00502A
   
   for sTDA-xTB:
   * S. Grimme and C. Bannwarth, J. Chem. Phys., 2016, 145, 054103.
     DOI: 10.1063/1.4959605
   
   in the mass-spec context:
   * V. Asgeirsson, C. Bauer and S. Grimme, Chem. Sci., 2017, 8, 4879.
     DOI: 10.1039/c7sc00601b
   * J. Koopman and S. Grimme, ACS Omega 2019, 4, 12, 15120-15133.
     DOI: 10.1021/acsomega.9b02011
   
   for metadynamics refer to:
   * S. Grimme, J. Chem. Theory Comput., 2019, 155, 2847-2862
     DOI: 10.1021/acs.jctc.9b00143
   
   for SPH calculations refer to:
   * S. Spicher and S. Grimme, J. Chem. Theory Comput., 2021, 17, 1701-1714
     DOI: 10.1021/acs.jctc.0c01306
   
   with help from (in alphabetical order)
   P. Atkinson, C. Bannwarth, F. Bohle, G. Brandenburg, E. Caldeweyher
   M. Checinski, S. Dohm, S. Ehlert, S. Ehrlich, I. Gerasimov, C. Hölzer
   A. Katbashev, J. Koopman, C. Lavigne, S. Lehtola, F. März, M. Müller,
   F. Musil, H. Neugebauer, J. Pisarek, C. Plett, P. Pracht, F. Pultar,
   J. Seibert, P. Shushkov, S. Spicher, M. Stahn, M. Steiner, T. Strunk,
   J. Stückrath, T. Rose, and J. Unsleber
   
 * started run on 2024/06/05 at 19:59:15.266     

           -------------------------------------------------
          |                Calculation Setup                |
           -------------------------------------------------

          program call               : xtb struc.xyz --opt loose --input .xc1 --gfn2
          hostname                   : n-62-31-11
          coordinate file            : struc.xyz
          omp threads                :                     1

   ID    Z sym.   atoms
    1    6 C      1, 3, 5-7, 10, 11, 14
    2    7 N      2, 4, 9, 13
    3    8 O      8, 12
    4    1 H      15-25
constraining bond 9 11 to    3.9200000 Å, actual value:    1.3842352 Å

           -------------------------------------------------
          |                 G F N 2 - x T B                 |
           -------------------------------------------------

        Reference                      10.1021/acs.jctc.8b01176
      * Hamiltonian:
        H0-scaling (s, p, d)           1.850000    2.230000    2.230000
        zeta-weighting                 0.500000
      * Dispersion:
        s8                             2.700000
        a1                             0.520000
        a2                             5.000000
        s9                             5.000000
      * Repulsion:
        kExp                           1.500000    1.000000
        rExp                           1.000000
      * Coulomb:
        alpha                          2.000000
        third order                    shell-resolved
        anisotropic                    true
        a3                             3.000000
        a5                             4.000000
        cn-shift                       1.200000
        cn-exp                         4.000000
        max-rad                        5.000000


          ...................................................
          :                      SETUP                      :
          :.................................................:
          :  # basis functions                  67          :
          :  # atomic orbitals                  67          :
          :  # shells                           39          :
          :  # electrons                        74          :
          :  max. iterations                   250          :
          :  Hamiltonian                  GFN2-xTB          :
          :  restarted?                      false          :
          :  GBSA solvation                  false          :
          :  PC potential                    false          :
          :  electronic temp.         5000.0000000     K    :
          :  accuracy                    1.0000000          :
          :  -> integral cutoff          0.2500000E+02      :
          :  -> integral neglect         0.1000000E-07      :
          :  -> SCF convergence          0.1000000E-05 Eh   :
          :  -> wf. convergence          0.1000000E-03 e    :
          :  Broyden damping             0.4000000          :
          ...................................................

 iter      E             dE          RMSdq      gap      omega  full diag
   1    -42.5894031 -0.425894E+02  0.445E+00    3.52       0.0  T
   2    -42.7683054 -0.178902E+00  0.251E+00    3.36       1.0  T
   3    -42.7759211 -0.761567E-02  0.147E+00    3.35       1.0  T
   4    -42.7728404  0.308066E-02  0.553E-01    3.33       1.0  T
   5    -42.7789548 -0.611444E-02  0.112E-01    3.35       1.0  T
   6    -42.7790473 -0.924914E-04  0.614E-02    3.33       1.0  T
   7    -42.7790721 -0.247928E-04  0.258E-02    3.34       1.0  T
   8    -42.7790772 -0.508996E-05  0.938E-03    3.34       2.1  T
   9    -42.7790779 -0.669422E-06  0.448E-03    3.34       4.5  T
  10    -42.7790780 -0.821510E-07  0.115E-03    3.34      17.4  T
  11    -42.7790780 -0.322663E-08  0.553E-04    3.34      36.2  T
  12    -42.7790780 -0.287051E-08  0.180E-04    3.34     111.1  T

   *** convergence criteria satisfied after 12 iterations ***

         #    Occupation            Energy/Eh            Energy/eV
      -------------------------------------------------------------
         1        2.0000           -0.9185990             -24.9964
       ...           ...                  ...                  ...
        31        1.9996           -0.6230278             -16.9534
        32        1.9995           -0.6194601             -16.8564
        33        1.9979           -0.5974976             -16.2587
        34        1.9932           -0.5789629             -15.7544
        35        1.9817           -0.5631863             -15.3251
        36        1.9779           -0.5602245             -15.2445
        37        1.9748           -0.5581234             -15.1873 (HOMO)
        38        0.0652           -0.4353579             -11.8467 (LUMO)
        39        0.0099           -0.4050467             -11.0219
        40        0.0013           -0.3732218             -10.1559
        41        0.0000           -0.2886859              -7.8555
        42                         -0.2065804              -5.6213
       ...                                ...                  ...
        67                          0.5625656              15.3082
      -------------------------------------------------------------
                  HL-Gap            0.1227656 Eh            3.3406 eV
             Fermi-level           -0.4890455 Eh          -13.3076 eV

 SCC (total)                   0 d,  0 h,  0 min,  0.037 sec
 SCC setup                      ...        0 min,  0.000 sec (  0.869%)
 Dispersion                     ...        0 min,  0.000 sec (  0.982%)
 classical contributions        ...        0 min,  0.000 sec (  0.280%)
 integral evaluation            ...        0 min,  0.006 sec ( 15.470%)
 iterations                     ...        0 min,  0.017 sec ( 45.513%)
 molecular gradient             ...        0 min,  0.014 sec ( 36.466%)
 printout                       ...        0 min,  0.000 sec (  0.385%)

         :::::::::::::::::::::::::::::::::::::::::::::::::::::
         ::                     SUMMARY                     ::
         :::::::::::::::::::::::::::::::::::::::::::::::::::::
         :: total energy             -19.285547441895 Eh    ::
         :: gradient norm             13.552894910368 Eh/a0 ::
         :: HOMO-LUMO gap              3.340621582928 eV    ::
         ::.................................................::
         :: SCC energy               -42.779077977399 Eh    ::
         :: -> isotropic ES            0.141123876439 Eh    ::
         :: -> anisotropic ES         -0.005230418907 Eh    ::
         :: -> anisotropic XC          0.011966818540 Eh    ::
         :: -> dispersion             -0.022657731803 Eh    ::
         :: repulsion energy           0.531105277918 Eh    ::
         :: add. restraining          22.962311098577 Eh    ::
         :: total charge               1.000000000002 e     ::
         :::::::::::::::::::::::::::::::::::::::::::::::::::::

      ----------------------------------------------------------- 
     |                   =====================                   |
     |                        A N C O P T                        |
     |                   =====================                   |
     |               Approximate Normal Coordinate               |
     |                Rational Function Optimizer                |
      ----------------------------------------------------------- 

          ...................................................
          :                      SETUP                      :
          :.................................................:
          :   optimization level             loose          :
          :   max. optcycles                   200          :
          :   ANC micro-cycles                  20          :
          :   degrees of freedom                69          :
          :.................................................:
          :   RF solver                   davidson          :
          :   write xtbopt.log                true          :
          :   linear?                        false          :
          :   energy convergence         0.5000000E-04 Eh   :
          :   grad. convergence          0.4000000E-02 Eh/α :
          :   maxmium RF displ.          1.0000000          :
          :   Hlow (freq-cutoff)         0.1000000E-01      :
          :   Hmax (freq-cutoff)         5.0000000          :
          :   S6 in model hess.         20.0000000          :
          ...................................................

generating ANC from model Hessian ...
Using Lindh-Hessian (1995)
 Shifting diagonal of input Hessian by    7.0143404793087223     
 Lowest  eigenvalues of input Hessian
    0.010000    1.225589    0.000000    0.000000    0.000000    0.000000
    0.000000    0.000000    7.017222    7.018538    7.022942    7.023248
    7.024196    7.026095    7.026148    7.031022    7.033930    7.037438
 Highest eigenvalues
    9.105379    9.165440    9.235394    9.356655    9.399010   12.966995


........................................................................
.............................. CYCLE    1 ..............................
........................................................................

 iter      E             dE          RMSdq      gap      omega  full diag
   1    -42.7790780 -0.427791E+02  0.626E-05    3.34       0.0  T
   2    -42.7790780 -0.124416E-10  0.329E-05    3.34     607.4  T
   3    -42.7790780  0.127898E-12  0.193E-05    3.34    1034.2  T
     SCC iter.                  ...        0 min,  0.005 sec
     gradient                   ...        0 min,  0.014 sec
 * total energy  :   -19.2855474 Eh     change       -0.6650680E-10 Eh
   gradient norm :    13.5528950 Eh/α   predicted     0.0000000E+00 (-100.00%)
   displ. norm   :     0.8324143 α      lambda       -0.1128161E+02
   maximum displ.:     0.8260393 α      in ANC's #3, #10, #69, ...

........................................................................
.............................. CYCLE    2 ..............................
........................................................................

 iter      E             dE          RMSdq      gap      omega  full diag
   1    -42.6892534 -0.426893E+02  0.210E+00    2.48       0.0  T
   2    -42.7413054 -0.520519E-01  0.100E+00    2.28       1.0  T
   3    -42.7493435 -0.803808E-02  0.552E-01    2.56       1.0  T
   4    -42.7508653 -0.152187E-02  0.320E-01    2.33       1.0  T
   5    -42.7521574 -0.129204E-02  0.877E-02    2.48       1.0  T
   6    -42.7522830 -0.125660E-03  0.363E-02    2.42       1.0  T
   7    -42.7522951 -0.120260E-04  0.156E-02    2.44       1.3  T
   8    -42.7522965 -0.145742E-05  0.641E-03    2.44       3.1  T
   9    -42.7522971 -0.567256E-06  0.255E-03    2.44       7.9  T
  10    -42.7522971 -0.926948E-08  0.982E-04    2.44      20.4  T
  11    -42.7522971 -0.112866E-07  0.371E-04    2.44      53.9  T
     SCC iter.                  ...        0 min,  0.015 sec
     gradient                   ...        0 min,  0.014 sec
 * total energy  :   -29.0272613 Eh     change       -0.9741714E+01 Eh
   gradient norm :     9.9258869 Eh/α   predicted    -0.9549394E+01 (  -1.97%)
   displ. norm   :     0.8074385 α      lambda       -0.8002404E+01
   maximum displ.:     0.7930244 α      in ANC's #3, #10, #20, ...

........................................................................
.............................. CYCLE    3 ..............................
........................................................................

 iter      E             dE          RMSdq      gap      omega  full diag
   1    -42.4593408 -0.424593E+02  0.246E+00    0.38       0.0  T
   2    -42.3993743  0.599664E-01  0.263E+00    2.00       1.0  T
   3    -42.6194508 -0.220076E+00  0.881E-01    0.78       1.0  T
   4    -42.6245781 -0.512734E-02  0.674E-01    0.80       1.0  T
   5    -42.6274704 -0.289231E-02  0.469E-01    0.46       1.0  T
   6    -42.6356024 -0.813201E-02  0.509E-02    0.69       1.0  T
   7    -42.6356156 -0.131359E-04  0.336E-02    0.68       1.0  T
   8    -42.6356326 -0.170101E-04  0.206E-02    0.68       1.0  T
   9    -42.6356440 -0.113960E-04  0.408E-03    0.68       4.9  T
  10    -42.6356440 -0.199187E-07  0.277E-03    0.68       7.2  T
  11    -42.6356442 -0.182584E-06  0.728E-04    0.68      27.5  T
  12    -42.6356442 -0.784382E-09  0.478E-04    0.68      41.9  T
     SCC iter.                  ...        0 min,  0.016 sec
     gradient                   ...        0 min,  0.014 sec
 * total energy  :   -35.7575085 Eh     change       -0.6730247E+01 Eh
   gradient norm :     6.7926897 Eh/α   predicted    -0.6612805E+01 (  -1.74%)
   displ. norm   :     0.7616901 α      lambda       -0.5155996E+01
   maximum displ.:     0.7389774 α      in ANC's #3, #2, #20, ...

........................................................................
.............................. CYCLE    4 ..............................
........................................................................

 iter      E             dE          RMSdq      gap      omega  full diag
   1    -42.2989052 -0.422989E+02  0.240E+00    0.97       0.0  T
   2    -42.2533369  0.455683E-01  0.251E+00    0.43       1.0  T
   3    -42.4543762 -0.201039E+00  0.903E-01    0.39       1.0  T
   4    -42.4730215 -0.186453E-01  0.619E-01    0.42       1.0  T
   5    -42.4788139 -0.579241E-02  0.271E-01    0.45       1.0  T
   6    -42.4787569  0.570149E-04  0.171E-01    0.53       1.0  T
   7    -42.4793645 -0.607665E-03  0.403E-02    0.49       1.0  T
   8    -42.4793919 -0.274257E-04  0.183E-02    0.50       1.1  T
   9    -42.4793956 -0.364213E-05  0.105E-02    0.50       1.9  T
  10    -42.4793992 -0.356627E-05  0.195E-03    0.50      10.2  T
  11    -42.4793992 -0.187246E-07  0.101E-03    0.50      19.8  T
  12    -42.4793992  0.164739E-08  0.521E-04    0.50      38.4  T
  13    -42.4793992 -0.554411E-08  0.295E-04    0.50      67.8  T
     SCC iter.                  ...        0 min,  0.017 sec
     gradient                   ...        0 min,  0.014 sec
 * total energy  :   -39.8166311 Eh     change       -0.4059123E+01 Eh
   gradient norm :     3.8803174 Eh/α   predicted    -0.4073679E+01 (   0.36%)
   displ. norm   :     0.6255722 α      lambda       -0.2423425E+01
   maximum displ.:     0.6100658 α      in ANC's #3, #20, #2, ...

........................................................................
.............................. CYCLE    5 ..............................
........................................................................

 iter      E             dE          RMSdq      gap      omega  full diag
   1    -42.2528391 -0.422528E+02  0.192E+00    1.16       0.0  T
   2    -42.2028386  0.500005E-01  0.213E+00    0.87       1.0  T
   3    -42.3336099 -0.130771E+00  0.629E-01    1.02       1.0  T
   4    -42.3347908 -0.118088E-02  0.393E-01    0.80       1.0  T
   5    -42.3356821 -0.891296E-03  0.272E-01    0.98       1.0  T
   6    -42.3369467 -0.126455E-02  0.664E-02    0.90       1.0  T
   7    -42.3370483 -0.101635E-03  0.259E-02    0.91       1.0  T
   8    -42.3370521 -0.383678E-05  0.130E-02    0.90       1.5  T
   9    -42.3370559 -0.374507E-05  0.352E-03    0.91       5.7  T
  10    -42.3370559 -0.451720E-07  0.170E-03    0.91      11.8  T
  11    -42.3370559 -0.849694E-08  0.740E-04    0.91      27.0  T
  12    -42.3370559 -0.560277E-08  0.283E-04    0.91      70.7  T
     SCC iter.                  ...        0 min,  0.016 sec
     gradient                   ...        0 min,  0.013 sec
 * total energy  :   -41.4710655 Eh     change       -0.1654434E+01 Eh
   gradient norm :     1.4063908 Eh/α   predicted    -0.1685906E+01 (   1.90%)
   displ. norm   :     0.3307131 α      lambda       -0.4603334E+00
   maximum displ.:     0.3137529 α      in ANC's #3, #69, #2, ...

........................................................................
.............................. CYCLE    6 ..............................
........................................................................

 iter      E             dE          RMSdq      gap      omega  full diag
   1    -42.2629337 -0.422629E+02  0.819E-01    0.99       0.0  T
   2    -42.2431497  0.197840E-01  0.975E-01    0.85       1.0  T
   3    -42.2716145 -0.284648E-01  0.382E-01    0.97       1.0  T
   4    -42.2744001 -0.278556E-02  0.175E-01    0.95       1.0  T
   5    -42.2745804 -0.180350E-03  0.715E-02    0.92       1.0  T
   6    -42.2746860 -0.105575E-03  0.319E-02    0.94       1.0  T
   7    -42.2747083 -0.222815E-04  0.102E-02    0.93       2.0  T
   8    -42.2747090 -0.694116E-06  0.398E-03    0.93       5.0  T
   9    -42.2747091 -0.132417E-06  0.133E-03    0.93      15.1  T
  10    -42.2747091 -0.201733E-07  0.569E-04    0.93      35.2  T
  11    -42.2747091 -0.125809E-08  0.173E-04    0.93     115.8  T
     SCC iter.                  ...        0 min,  0.015 sec
     gradient                   ...        0 min,  0.013 sec
 * total energy  :   -41.7258928 Eh     change       -0.2548274E+00 Eh
   gradient norm :     0.2446000 Eh/α   predicted    -0.2553417E+00 (   0.20%)
   displ. norm   :     0.0866397 α      lambda       -0.1788448E-01
   maximum displ.:     0.0510058 α      in ANC's #2, #3, #1, ...

........................................................................
.............................. CYCLE    7 ..............................
........................................................................

 iter      E             dE          RMSdq      gap      omega  full diag
   1    -42.2760233 -0.422760E+02  0.282E-01    0.95       0.0  T
   2    -42.2715858  0.443751E-02  0.457E-01    0.94       1.0  T
   3    -42.2777285 -0.614268E-02  0.980E-02    0.93       1.0  T
   4    -42.2778669 -0.138476E-03  0.530E-02    0.94       1.0  T
   5    -42.2778655  0.148691E-05  0.361E-02    0.92       1.0  T
   6    -42.2778952 -0.297767E-04  0.559E-03    0.93       3.6  T
   7    -42.2778955 -0.273708E-06  0.242E-03    0.93       8.3  T
   8    -42.2778955 -0.195748E-07  0.101E-03    0.93      19.7  T
   9    -42.2778955 -0.138877E-07  0.420E-04    0.93      47.6  T
  10    -42.2778955 -0.178922E-08  0.182E-04    0.93     109.6  T
     SCC iter.                  ...        0 min,  0.013 sec
     gradient                   ...        0 min,  0.013 sec
 * total energy  :   -41.7397755 Eh     change       -0.1388266E-01 Eh
   gradient norm :     0.2023721 Eh/α   predicted    -0.9012064E-02 ( -35.08%)
   displ. norm   :     0.3085294 α      lambda       -0.2799801E-01
   maximum displ.:     0.2595173 α      in ANC's #1, #2, #69, ...

........................................................................
.............................. CYCLE    8 ..............................
........................................................................

 iter      E             dE          RMSdq      gap      omega  full diag
   1    -42.2915500 -0.422916E+02  0.679E-01    0.96       0.0  T
   2    -42.2809050  0.106450E-01  0.800E-01    0.90       1.0  T
   3    -42.2950486 -0.141436E-01  0.362E-01    0.92       1.0  T
   4    -42.2965310 -0.148241E-02  0.211E-01    0.92       1.0  T
   5    -42.2973585 -0.827463E-03  0.919E-02    0.88       1.0  T
   6    -42.2975563 -0.197813E-03  0.207E-02    0.91       1.0  T
   7    -42.2975587 -0.247259E-05  0.838E-03    0.90       2.4  T
   8    -42.2975591 -0.346707E-06  0.247E-03    0.90       8.1  T
   9    -42.2975591 -0.486366E-07  0.130E-03    0.90      15.4  T
  10    -42.2975592 -0.189440E-07  0.603E-04    0.90      33.2  T
  11    -42.2975592 -0.274563E-08  0.183E-04    0.90     109.3  T
     SCC iter.                  ...        0 min,  0.015 sec
     gradient                   ...        0 min,  0.013 sec
 * total energy  :   -41.7641979 Eh     change       -0.2442246E-01 Eh
   gradient norm :     0.2530400 Eh/α   predicted    -0.1533199E-01 ( -37.22%)
   displ. norm   :     0.8483531 α      lambda       -0.6205906E-01
   maximum displ.:     0.7683331 α      in ANC's #1, #2, #56, ...

........................................................................
.............................. CYCLE    9 ..............................
........................................................................

 iter      E             dE          RMSdq      gap      omega  full diag
   1    -42.2833083 -0.422833E+02  0.178E+00    1.06       0.0  T
   2    -42.1604322  0.122876E+00  0.213E+00    1.13       1.0  T
   3    -42.3187575 -0.158325E+00  0.952E-01    0.96       1.0  T
   4    -42.3343432 -0.155856E-01  0.302E-01    0.78       1.0  T
   5    -42.3354262 -0.108300E-02  0.653E-02    0.79       1.0  T
   6    -42.3354355 -0.933682E-05  0.268E-02    0.79       1.0  T
   7    -42.3354381 -0.263027E-05  0.107E-02    0.79       1.9  T
   8    -42.3354399 -0.173108E-05  0.500E-03    0.79       4.0  T
   9    -42.3354402 -0.283564E-06  0.302E-03    0.79       6.6  T
  10    -42.3354402 -0.846433E-07  0.125E-03    0.79      16.0  T
  11    -42.3354403 -0.237517E-07  0.547E-04    0.79      36.6  T
  12    -42.3354403 -0.213407E-08  0.257E-04    0.79      77.7  T
     SCC iter.                  ...        0 min,  0.016 sec
     gradient                   ...        0 min,  0.013 sec
 * total energy  :   -41.7779292 Eh     change       -0.1373131E-01 Eh
   gradient norm :     0.7370137 Eh/α   predicted    -0.5336306E-01 ( 288.62%)
   displ. norm   :     0.5790900 α      lambda       -0.1573750E+00
   maximum displ.:     0.3093585 α      in ANC's #1, #56, #49, ...

........................................................................
.............................. CYCLE   10 ..............................
........................................................................

 iter      E             dE          RMSdq      gap      omega  full diag
   1    -42.3425087 -0.423425E+02  0.149E+00    0.88       0.0  T
   2    -42.2678929  0.746158E-01  0.194E+00    1.34       1.0  T
   3    -42.4047952 -0.136902E+00  0.593E-01    0.76       1.0  T
   4    -42.4092664 -0.447123E-02  0.306E-01    0.72       1.0  T
   5    -42.4092082  0.581658E-04  0.130E-01    0.74       1.0  T
   6    -42.4096572 -0.448931E-03  0.337E-02    0.72       1.0  T
   7    -42.4096657 -0.849390E-05  0.187E-02    0.73       1.1  T
   8    -42.4096709 -0.526714E-05  0.871E-03    0.72       2.3  T
   9    -42.4096719 -0.970310E-06  0.436E-03    0.72       4.6  T
  10    -42.4096721 -0.200201E-06  0.229E-03    0.72       8.7  T
  11    -42.4096722 -0.655489E-07  0.776E-04    0.72      25.8  T
  12    -42.4096722 -0.330651E-08  0.353E-04    0.72      56.6  T
     SCC iter.                  ...        0 min,  0.016 sec
     gradient                   ...        0 min,  0.013 sec
 * total energy  :   -41.8003677 Eh     change       -0.2243847E-01 Eh
   gradient norm :     0.5834988 Eh/α   predicted    -0.1050757E+00 ( 368.28%)
   displ. norm   :     0.2622263 α      lambda       -0.7641232E-01
   maximum displ.:     0.1314247 α      in ANC's #2, #69, #56, ...

........................................................................
.............................. CYCLE   11 ..............................
........................................................................

 iter      E             dE          RMSdq      gap      omega  full diag
   1    -42.3503811 -0.423504E+02  0.962E-01    0.93       0.0  T
   2    -42.3050297  0.453514E-01  0.140E+00    0.98       1.0  T
   3    -42.3752263 -0.701966E-01  0.379E-01    0.78       1.0  T
   4    -42.3783972 -0.317085E-02  0.162E-01    0.76       1.0  T
   5    -42.3784362 -0.390019E-04  0.789E-02    0.76       1.0  T
   6    -42.3785198 -0.836399E-04  0.301E-02    0.75       1.0  T
   7    -42.3785315 -0.117019E-04  0.122E-02    0.76       1.6  T
   8    -42.3785332 -0.169836E-05  0.640E-03    0.76       3.1  T
   9    -42.3785339 -0.658659E-06  0.240E-03    0.76       8.3  T
  10    -42.3785339 -0.358688E-07  0.118E-03    0.76      17.0  T
  11    -42.3785339 -0.999011E-08  0.398E-04    0.76      50.2  T
  12    -42.3785339 -0.516970E-09  0.156E-04    0.76     128.2  T
     SCC iter.                  ...        0 min,  0.016 sec
     gradient                   ...        0 min,  0.013 sec
 * total energy  :   -41.8455348 Eh     change       -0.4516705E-01 Eh
   gradient norm :     0.2423953 Eh/α   predicted    -0.4083604E-01 (  -9.59%)
   displ. norm   :     0.2869477 α      lambda       -0.3075835E-01
   maximum displ.:     0.2656961 α      in ANC's #1, #49, #56, ...

........................................................................
.............................. CYCLE   12 ..............................
........................................................................

 iter      E             dE          RMSdq      gap      omega  full diag
   1    -42.3509475 -0.423509E+02  0.836E-01    1.03       0.0  T
   2    -42.2859112  0.650363E-01  0.142E+00    0.91       1.0  T
   3    -42.3711783 -0.852672E-01  0.256E-01    0.83       1.0  T
   4    -42.3717005 -0.522171E-03  0.110E-01    0.79       1.0  T
   5    -42.3718347 -0.134179E-03  0.418E-02    0.80       1.0  T
   6    -42.3718754 -0.407342E-04  0.140E-02    0.79       1.4  T
   7    -42.3718778 -0.240601E-05  0.681E-03    0.80       2.9  T
   8    -42.3718786 -0.743174E-06  0.238E-03    0.80       8.4  T
   9    -42.3718786 -0.619295E-07  0.992E-04    0.80      20.2  T
  10    -42.3718786 -0.741806E-08  0.451E-04    0.80      44.3  T
     SCC iter.                  ...        0 min,  0.013 sec
     gradient                   ...        0 min,  0.013 sec
 * total energy  :   -41.8671433 Eh     change       -0.2160855E-01 Eh
   gradient norm :     0.2669066 Eh/α   predicted    -0.1664576E-01 ( -22.97%)
   displ. norm   :     0.2069982 α      lambda       -0.2962329E-01
   maximum displ.:     0.1440065 α      in ANC's #1, #49, #56, ...

........................................................................
.............................. CYCLE   13 ..............................
........................................................................

 iter      E             dE          RMSdq      gap      omega  full diag
   1    -42.3531680 -0.423532E+02  0.648E-01    1.05       0.0  T
   2    -42.3109522  0.422159E-01  0.115E+00    0.78       1.0  T
   3    -42.3661794 -0.552272E-01  0.182E-01    0.85       1.0  T
   4    -42.3665514 -0.371973E-03  0.842E-02    0.82       1.0  T
   5    -42.3665878 -0.364140E-04  0.296E-02    0.83       1.0  T
   6    -42.3666071 -0.192773E-04  0.113E-02    0.83       1.8  T
   7    -42.3666089 -0.179647E-05  0.521E-03    0.83       3.8  T
   8    -42.3666093 -0.387505E-06  0.173E-03    0.83      11.5  T
   9    -42.3666093 -0.191029E-07  0.763E-04    0.83      26.2  T
  10    -42.3666093 -0.315809E-08  0.418E-04    0.83      47.8  T
     SCC iter.                  ...        0 min,  0.013 sec
     gradient                   ...        0 min,  0.013 sec
 * total energy  :   -41.8886496 Eh     change       -0.2150632E-01 Eh
   gradient norm :     0.2257699 Eh/α   predicted    -0.1544663E-01 ( -28.18%)
   displ. norm   :     0.1895177 α      lambda       -0.2271090E-01
   maximum displ.:     0.0847023 α      in ANC's #49, #56, #1, ...

........................................................................
.............................. CYCLE   14 ..............................
........................................................................

 iter      E             dE          RMSdq      gap      omega  full diag
   1    -42.3642712 -0.423643E+02  0.459E-01    1.01       0.0  T
   2    -42.3466918  0.175793E-01  0.752E-01    0.74       1.0  T
   3    -42.3695432 -0.228514E-01  0.153E-01    0.89       1.0  T
   4    -42.3698108 -0.267621E-03  0.707E-02    0.85       1.0  T
   5    -42.3698810 -0.701582E-04  0.259E-02    0.87       1.0  T
   6    -42.3698976 -0.165519E-04  0.923E-03    0.86       2.2  T
   7    -42.3698981 -0.574125E-06  0.498E-03    0.86       4.0  T
   8    -42.3698985 -0.404138E-06  0.160E-03    0.86      12.5  T
   9    -42.3698986 -0.141710E-07  0.760E-04    0.86      26.3  T
  10    -42.3698986 -0.309819E-08  0.312E-04    0.86      64.1  T
     SCC iter.                  ...        0 min,  0.013 sec
     gradient                   ...        0 min,  0.013 sec
 * total energy  :   -41.9043719 Eh     change       -0.1572224E-01 Eh
   gradient norm :     0.1775405 Eh/α   predicted    -0.1176420E-01 ( -25.17%)
   displ. norm   :     0.2279921 α      lambda       -0.1549883E-01
   maximum displ.:     0.1280968 α      in ANC's #1, #49, #56, ...

........................................................................
.............................. CYCLE   15 ..............................
........................................................................

 iter      E             dE          RMSdq      gap      omega  full diag
   1    -42.3660813 -0.423661E+02  0.459E-01    1.05       0.0  T
   2    -42.3553791  0.107022E-01  0.606E-01    0.78       1.0  T
   3    -42.3690068 -0.136277E-01  0.216E-01    0.99       1.0  T
   4    -42.3698541 -0.847264E-03  0.754E-02    0.93       1.0  T
   5    -42.3699340 -0.799668E-04  0.200E-02    0.93       1.0  T
   6    -42.3699404 -0.636545E-05  0.981E-03    0.93       2.0  T
   7    -42.3699413 -0.930929E-06  0.400E-03    0.94       5.0  T
   8    -42.3699415 -0.170470E-06  0.207E-03    0.94       9.7  T
   9    -42.3699416 -0.569494E-07  0.905E-04    0.94      22.1  T
  10    -42.3699416 -0.682414E-08  0.289E-04    0.94      69.3  T
     SCC iter.                  ...        0 min,  0.013 sec
     gradient                   ...        0 min,  0.013 sec
 * total energy  :   -41.9162457 Eh     change       -0.1187381E-01 Eh
   gradient norm :     0.1874977 Eh/α   predicted    -0.8152509E-02 ( -31.34%)
   displ. norm   :     0.2544722 α      lambda       -0.2149000E-01
   maximum displ.:     0.1267018 α      in ANC's #49, #56, #1, ...

........................................................................
.............................. CYCLE   16 ..............................
........................................................................

 iter      E             dE          RMSdq      gap      omega  full diag
   1    -42.3792739 -0.423793E+02  0.493E-01    1.08       0.0  T
   2    -42.3761845  0.308942E-02  0.474E-01    0.91       1.0  T
   3    -42.3810527 -0.486821E-02  0.269E-01    1.12       1.0  T
   4    -42.3825770 -0.152430E-02  0.122E-01    0.99       1.0  T
   5    -42.3828628 -0.285721E-03  0.457E-02    1.03       1.0  T
   6    -42.3829200 -0.572827E-04  0.133E-02    1.02       1.5  T
   7    -42.3829214 -0.135831E-05  0.679E-03    1.02       2.9  T
   8    -42.3829220 -0.564604E-06  0.260E-03    1.02       7.7  T
   9    -42.3829220 -0.539995E-07  0.117E-03    1.02      17.1  T
  10    -42.3829220 -0.848128E-08  0.475E-04    1.02      42.1  T
  11    -42.3829220 -0.186949E-08  0.195E-04    1.02     102.5  T
     SCC iter.                  ...        0 min,  0.015 sec
     gradient                   ...        0 min,  0.013 sec
 * total energy  :   -41.9320385 Eh     change       -0.1579286E-01 Eh
   gradient norm :     0.1907884 Eh/α   predicted    -0.1144118E-01 ( -27.55%)
   displ. norm   :     0.2576070 α      lambda       -0.2074458E-01
   maximum displ.:     0.1218739 α      in ANC's #49, #1, #56, ...

........................................................................
.............................. CYCLE   17 ..............................
........................................................................

 iter      E             dE          RMSdq      gap      omega  full diag
   1    -42.3953387 -0.423953E+02  0.478E-01    1.11       0.0  T
   2    -42.3973107 -0.197195E-02  0.321E-01    1.12       1.0  T
   3    -42.3979681 -0.657395E-03  0.194E-01    1.18       1.0  T
   4    -42.3972336  0.734435E-03  0.181E-01    1.07       1.0  T
   5    -42.3983448 -0.111112E-02  0.554E-02    1.15       1.0  T
   6    -42.3984488 -0.104025E-03  0.124E-02    1.13       1.6  T
   7    -42.3984500 -0.116180E-05  0.601E-03    1.14       3.3  T
   8    -42.3984504 -0.428876E-06  0.236E-03    1.13       8.5  T
   9    -42.3984504 -0.600435E-07  0.102E-03    1.13      19.7  T
  10    -42.3984504 -0.777030E-08  0.331E-04    1.14      60.4  T
  11    -42.3984504 -0.944056E-09  0.138E-04    1.14     145.1  T
     SCC iter.                  ...        0 min,  0.015 sec
     gradient                   ...        0 min,  0.013 sec
 * total energy  :   -41.9466020 Eh     change       -0.1456349E-01 Eh
   gradient norm :     0.1431581 Eh/α   predicted    -0.1106079E-01 ( -24.05%)
   displ. norm   :     0.1358355 α      lambda       -0.1230819E-01
   maximum displ.:     0.0560450 α      in ANC's #49, #8, #56, ...

........................................................................
.............................. CYCLE   18 ..............................
........................................................................

 iter      E             dE          RMSdq      gap      omega  full diag
   1    -42.4206595 -0.424207E+02  0.319E-01    1.06       0.0  T
   2    -42.4189694  0.169015E-02  0.378E-01    1.36       1.0  T
   3    -42.4235507 -0.458138E-02  0.128E-01    1.17       1.0  T
   4    -42.4236426 -0.918979E-04  0.885E-02    1.21       1.0  T
   5    -42.4237422 -0.995203E-04  0.277E-02    1.19       1.0  T
   6    -42.4237583 -0.161121E-04  0.655E-03    1.18       3.1  T
   7    -42.4237588 -0.484130E-06  0.378E-03    1.19       5.3  T
   8    -42.4237589 -0.168016E-06  0.156E-03    1.19      12.8  T
   9    -42.4237590 -0.456450E-07  0.473E-04    1.19      42.3  T
  10    -42.4237590 -0.123909E-08  0.236E-04    1.19      84.9  T
     SCC iter.                  ...        0 min,  0.013 sec
     gradient                   ...        0 min,  0.013 sec
 * total energy  :   -41.9540817 Eh     change       -0.7479699E-02 Eh
   gradient norm :     0.1376835 Eh/α   predicted    -0.6268054E-02 ( -16.20%)
   displ. norm   :     0.0858211 α      lambda       -0.5944169E-02
   maximum displ.:     0.0491174 α      in ANC's #1, #49, #8, ...

........................................................................
.............................. CYCLE   19 ..............................
........................................................................

 iter      E             dE          RMSdq      gap      omega  full diag
   1    -42.4278201 -0.424278E+02  0.137E-01    1.24       0.0  T
   2    -42.4278069  0.132734E-04  0.849E-02    1.21       1.0  T
   3    -42.4277196  0.873008E-04  0.830E-02    1.26       1.0  T
   4    -42.4278814 -0.161833E-03  0.343E-02    1.22       1.0  T
   5    -42.4279163 -0.349090E-04  0.830E-03    1.23       2.4  T
   6    -42.4279180 -0.173662E-05  0.255E-03    1.23       7.8  T
   7    -42.4279181 -0.238179E-07  0.133E-03    1.23      15.0  T
   8    -42.4279181 -0.216015E-07  0.344E-04    1.23      58.2  T
   9    -42.4279181 -0.113472E-08  0.167E-04    1.23     120.1  T
     SCC iter.                  ...        0 min,  0.012 sec
     gradient                   ...        0 min,  0.013 sec
 * total energy  :   -41.9582291 Eh     change       -0.4147326E-02 Eh
   gradient norm :     0.1111302 Eh/α   predicted    -0.2994212E-02 ( -27.80%)
   displ. norm   :     0.1138163 α      lambda       -0.7574607E-02
   maximum displ.:     0.0462887 α      in ANC's #2, #31, #15, ...

........................................................................
.............................. CYCLE   20 ..............................
........................................................................

 iter      E             dE          RMSdq      gap      omega  full diag
   1    -42.4419327 -0.424419E+02  0.156E-01    1.25       0.0  T
   2    -42.4420028 -0.700818E-04  0.979E-02    1.26       1.0  T
   3    -42.4419796  0.232235E-04  0.761E-02    1.23       1.0  T
   4    -42.4420032 -0.235463E-04  0.498E-02    1.27       1.0  T
   5    -42.4420972 -0.940412E-04  0.990E-03    1.25       2.0  T
   6    -42.4420999 -0.272319E-05  0.344E-03    1.25       5.8  T
   7    -42.4421000 -0.402918E-07  0.177E-03    1.25      11.3  T
   8    -42.4421000 -0.450402E-07  0.586E-04    1.25      34.1  T
   9    -42.4421000 -0.444690E-08  0.263E-04    1.25      75.9  T
     SCC iter.                  ...        0 min,  0.012 sec
     gradient                   ...        0 min,  0.013 sec
 * total energy  :   -41.9633625 Eh     change       -0.5133490E-02 Eh
   gradient norm :     0.1036418 Eh/α   predicted    -0.3836391E-02 ( -25.27%)
   displ. norm   :     0.0852615 α      lambda       -0.5626972E-02
   maximum displ.:     0.0261607 α      in ANC's #37, #2, #49, ...
 * RMSD in coord.:     0.7918057 α      energy gain  -0.2267782E+02 Eh

generating ANC from model Hessian ...
Using Lindh-Hessian (1995)
 Shifting diagonal of input Hessian by    9.2355549949765560E-003
 Lowest  eigenvalues of input Hessian
    0.000000    0.000000    0.000000    0.000000    0.000000    0.000000
    0.010000    0.010976    0.011525    0.013838    0.015253    0.017665
    0.019393    0.020256    0.023614    0.026053    0.027928    0.033487
 Highest eigenvalues
    2.008296    2.033959    2.123086    2.238984    2.524991    4.429226


........................................................................
.............................. CYCLE   21 ..............................
........................................................................

 iter      E             dE          RMSdq      gap      omega  full diag
   1    -42.4451708 -0.424452E+02  0.144E-01    1.29       0.0  T
   2    -42.4452691 -0.983776E-04  0.121E-01    1.21       1.0  T
   3    -42.4454990 -0.229879E-03  0.650E-02    1.27       1.0  T
   4    -42.4455101 -0.110640E-04  0.543E-02    1.23       1.0  T
   5    -42.4455722 -0.621656E-04  0.157E-02    1.25       1.3  T
   6    -42.4455791 -0.682588E-05  0.294E-03    1.25       6.8  T
   7    -42.4455791 -0.429766E-07  0.167E-03    1.25      12.0  T
   8    -42.4455792 -0.385172E-07  0.555E-04    1.25      36.1  T
   9    -42.4455792 -0.214983E-08  0.226E-04    1.25      88.4  T
     SCC iter.                  ...        0 min,  0.012 sec
     gradient                   ...        0 min,  0.013 sec
 * total energy  :   -41.9676564 Eh     change       -0.4293806E-02 Eh
   gradient norm :     0.0989268 Eh/α   predicted     0.0000000E+00 (-100.00%)
   displ. norm   :     0.5268368 α      lambda       -0.2783809E-01
   maximum displ.:     0.2585752 α      in ANC's #14, #17, #16, ...

........................................................................
.............................. CYCLE   22 ..............................
........................................................................

 iter      E             dE          RMSdq      gap      omega  full diag
   1    -42.4772421 -0.424772E+02  0.430E-01    1.20       0.0  T
   2    -42.4772944 -0.523524E-04  0.265E-01    1.28       1.0  T
   3    -42.4756968  0.159765E-02  0.262E-01    1.14       1.0  T
   4    -42.4773928 -0.169604E-02  0.956E-02    1.27       1.0  T
   5    -42.4777584 -0.365546E-03  0.124E-02    1.24       1.6  T
   6    -42.4777599 -0.150160E-05  0.611E-03    1.23       3.3  T
   7    -42.4777600 -0.111550E-06  0.263E-03    1.23       7.6  T
   8    -42.4777601 -0.997145E-07  0.114E-03    1.23      17.6  T
   9    -42.4777601 -0.849595E-08  0.594E-04    1.23      33.6  T
  10    -42.4777601 -0.349380E-08  0.261E-04    1.23      76.7  T
     SCC iter.                  ...        0 min,  0.013 sec
     gradient                   ...        0 min,  0.013 sec
 * total energy  :   -41.9893353 Eh     change       -0.2167894E-01 Eh
   gradient norm :     0.0557135 Eh/α   predicted    -0.1781369E-01 ( -17.83%)
   displ. norm   :     0.5882557 α      lambda       -0.1811817E-01
   maximum displ.:     0.2452571 α      in ANC's #14, #17, #11, ...

........................................................................
.............................. CYCLE   23 ..............................
........................................................................

 iter      E             dE          RMSdq      gap      omega  full diag
   1    -42.4998271 -0.424998E+02  0.429E-01    1.14       0.0  T
   2    -42.4984992  0.132794E-02  0.321E-01    1.29       1.0  T
   3    -42.4989816 -0.482371E-03  0.283E-01    1.12       1.0  T
   4    -42.5008759 -0.189434E-02  0.707E-02    1.21       1.0  T
   5    -42.5010035 -0.127608E-03  0.124E-02    1.19       1.6  T
   6    -42.5010052 -0.168764E-05  0.597E-03    1.19       3.4  T
   7    -42.5010053 -0.523919E-07  0.268E-03    1.19       7.5  T
   8    -42.5010054 -0.116976E-06  0.110E-03    1.19      18.2  T
   9    -42.5010054 -0.112736E-07  0.580E-04    1.19      34.5  T
  10    -42.5010054 -0.139376E-08  0.275E-04    1.19      72.7  T
     SCC iter.                  ...        0 min,  0.013 sec
     gradient                   ...        0 min,  0.013 sec
 * total energy  :   -42.0026897 Eh     change       -0.1335440E-01 Eh
   gradient norm :     0.0412986 Eh/α   predicted    -0.1219793E-01 (  -8.66%)
   displ. norm   :     0.5615571 α      lambda       -0.1007589E-01
   maximum displ.:     0.2094237 α      in ANC's #11, #2, #14, ...

........................................................................
.............................. CYCLE   24 ..............................
........................................................................

 iter      E             dE          RMSdq      gap      omega  full diag
   1    -42.5074303 -0.425074E+02  0.439E-01    1.09       0.0  T
   2    -42.5021691  0.526116E-02  0.475E-01    1.27       1.0  T
   3    -42.5090782 -0.690907E-02  0.224E-01    1.10       1.0  T
   4    -42.5099384 -0.860197E-03  0.579E-02    1.15       1.0  T
   5    -42.5099938 -0.553694E-04  0.136E-02    1.14       1.5  T
   6    -42.5099973 -0.351075E-05  0.669E-03    1.14       3.0  T
   7    -42.5099977 -0.439746E-06  0.344E-03    1.14       5.8  T
   8    -42.5099979 -0.142521E-06  0.103E-03    1.14      19.4  T
   9    -42.5099979 -0.611119E-08  0.500E-04    1.14      40.0  T
  10    -42.5099979 -0.195096E-08  0.246E-04    1.14      81.2  T
     SCC iter.                  ...        0 min,  0.013 sec
     gradient                   ...        0 min,  0.013 sec
 * total energy  :   -42.0107982 Eh     change       -0.8108499E-02 Eh
   gradient norm :     0.0514777 Eh/α   predicted    -0.6626661E-02 ( -18.28%)
   displ. norm   :     0.6145857 α      lambda       -0.9814231E-02
   maximum displ.:     0.2783493 α      in ANC's #2, #11, #12, ...

........................................................................
.............................. CYCLE   25 ..............................
........................................................................

 iter      E             dE          RMSdq      gap      omega  full diag
   1    -42.5067457 -0.425067E+02  0.657E-01    1.09       0.0  T
   2    -42.4819166  0.248291E-01  0.969E-01    1.28       1.0  T
   3    -42.5153872 -0.334705E-01  0.247E-01    1.07       1.0  T
   4    -42.5159121 -0.524982E-03  0.787E-02    1.09       1.0  T
   5    -42.5159995 -0.873540E-04  0.226E-02    1.09       1.0  T
   6    -42.5160110 -0.114631E-04  0.920E-03    1.09       2.2  T
   7    -42.5160121 -0.118307E-05  0.398E-03    1.09       5.0  T
   8    -42.5160123 -0.156481E-06  0.155E-03    1.09      12.9  T
   9    -42.5160123 -0.299499E-07  0.472E-04    1.09      42.4  T
  10    -42.5160123 -0.193148E-08  0.250E-04    1.09      80.0  T
     SCC iter.                  ...        0 min,  0.013 sec
     gradient                   ...        0 min,  0.013 sec
 * total energy  :   -42.0183828 Eh     change       -0.7584593E-02 Eh
   gradient norm :     0.0470121 Eh/α   predicted    -0.6760691E-02 ( -10.86%)
   displ. norm   :     0.5089678 α      lambda       -0.6783931E-02
   maximum displ.:     0.3186895 α      in ANC's #2, #12, #11, ...

........................................................................
.............................. CYCLE   26 ..............................
........................................................................

 iter      E             dE          RMSdq      gap      omega  full diag
   1    -42.5097077 -0.425097E+02  0.717E-01    1.20       0.0  T
   2    -42.4693785  0.403291E-01  0.117E+00    1.21       1.0  T
   3    -42.5203468 -0.509683E-01  0.283E-01    1.12       1.0  T
   4    -42.5213811 -0.103428E-02  0.664E-02    1.12       1.0  T
   5    -42.5214141 -0.329774E-04  0.211E-02    1.11       1.0  T
   6    -42.5214208 -0.669463E-05  0.890E-03    1.11       2.2  T
   7    -42.5214225 -0.165868E-05  0.333E-03    1.11       6.0  T
   8    -42.5214226 -0.122218E-06  0.144E-03    1.11      13.9  T
   9    -42.5214226 -0.261269E-07  0.536E-04    1.11      37.3  T
  10    -42.5214226 -0.415993E-08  0.221E-04    1.11      90.7  T
     SCC iter.                  ...        0 min,  0.013 sec
     gradient                   ...        0 min,  0.013 sec
 * total energy  :   -42.0226007 Eh     change       -0.4217904E-02 Eh
   gradient norm :     0.0437708 Eh/α   predicted    -0.4270649E-02 (   1.25%)
   displ. norm   :     0.3449474 α      lambda       -0.3727112E-02
   maximum displ.:     0.2483339 α      in ANC's #2, #4, #3, ...

........................................................................
.............................. CYCLE   27 ..............................
........................................................................

 iter      E             dE          RMSdq      gap      omega  full diag
   1    -42.5228359 -0.425228E+02  0.397E-01    1.17       0.0  T
   2    -42.5148758  0.796007E-02  0.529E-01    1.12       1.0  T
   3    -42.5243078 -0.943193E-02  0.208E-01    1.15       1.0  T
   4    -42.5250273 -0.719548E-03  0.448E-02    1.14       1.0  T
   5    -42.5250610 -0.336642E-04  0.140E-02    1.14       1.4  T
   6    -42.5250661 -0.511007E-05  0.434E-03    1.14       4.6  T
   7    -42.5250661 -0.478027E-07  0.223E-03    1.14       9.0  T
   8    -42.5250662 -0.757969E-07  0.736E-04    1.14      27.2  T
   9    -42.5250662 -0.900987E-08  0.325E-04    1.14      61.5  T
     SCC iter.                  ...        0 min,  0.012 sec
     gradient                   ...        0 min,  0.013 sec
 * total energy  :   -42.0254576 Eh     change       -0.2856896E-02 Eh
   gradient norm :     0.0296536 Eh/α   predicted    -0.2085299E-02 ( -27.01%)
   displ. norm   :     0.5065286 α      lambda       -0.3892172E-02
   maximum displ.:     0.3408504 α      in ANC's #2, #4, #12, ...

........................................................................
.............................. CYCLE   28 ..............................
........................................................................

 iter      E             dE          RMSdq      gap      omega  full diag
   1    -42.5236739 -0.425237E+02  0.527E-01    1.07       0.0  T
   2    -42.5238522 -0.178255E-03  0.315E-01    1.06       1.0  T
   3    -42.5231891  0.663031E-03  0.160E-01    1.10       1.0  T
   4    -42.5232418 -0.526696E-04  0.133E-01    1.05       1.0  T
   5    -42.5239218 -0.680023E-03  0.135E-02    1.07       1.5  T
   6    -42.5239257 -0.383258E-05  0.553E-03    1.07       3.6  T
   7    -42.5239257 -0.646727E-07  0.338E-03    1.07       5.9  T
   8    -42.5239259 -0.176459E-06  0.679E-04    1.07      29.5  T
   9    -42.5239259 -0.503663E-08  0.356E-04    1.07      56.2  T
     SCC iter.                  ...        0 min,  0.012 sec
     gradient                   ...        0 min,  0.013 sec
 * total energy  :   -42.0282211 Eh     change       -0.2763560E-02 Eh
   gradient norm :     0.0558630 Eh/α   predicted    -0.2445401E-02 ( -11.51%)
   displ. norm   :     0.5470898 α      lambda       -0.5409131E-02
   maximum displ.:     0.2659419 α      in ANC's #2, #1, #12, ...

........................................................................
.............................. CYCLE   29 ..............................
........................................................................

 iter      E             dE          RMSdq      gap      omega  full diag
   1    -42.5330500 -0.425330E+02  0.483E-01    0.92       0.0  T
   2    -42.5326537  0.396301E-03  0.312E-01    0.88       1.0  T
   3    -42.5269512  0.570248E-02  0.415E-01    1.03       1.0  T
   4    -42.5332141 -0.626292E-02  0.588E-02    0.91       1.0  T
   5    -42.5333090 -0.948368E-04  0.140E-02    0.91       1.4  T
   6    -42.5333127 -0.368873E-05  0.574E-03    0.91       3.5  T
   7    -42.5333127 -0.632313E-07  0.270E-03    0.91       7.4  T
   8    -42.5333129 -0.133462E-06  0.907E-04    0.91      22.1  T
   9    -42.5333129 -0.136818E-07  0.364E-04    0.91      54.9  T
     SCC iter.                  ...        0 min,  0.012 sec
     gradient                   ...        0 min,  0.013 sec
 * total energy  :   -42.0311927 Eh     change       -0.2971590E-02 Eh
   gradient norm :     0.0328953 Eh/α   predicted    -0.3514064E-02 (  18.26%)
   displ. norm   :     0.4727774 α      lambda       -0.3665118E-02
   maximum displ.:     0.2417740 α      in ANC's #12, #2, #4, ...

........................................................................
.............................. CYCLE   30 ..............................
........................................................................

 iter      E             dE          RMSdq      gap      omega  full diag
   1    -42.5163310 -0.425163E+02  0.592E-01    0.63       0.0  T
   2    -42.4910964  0.252345E-01  0.977E-01    1.11       1.0  T
   3    -42.5248204 -0.337239E-01  0.223E-01    0.73       1.0  T
   4    -42.5247773  0.430252E-04  0.116E-01    0.74       1.0  T
   5    -42.5249355 -0.158174E-03  0.296E-02    0.74       1.0  T
   6    -42.5249620 -0.265100E-04  0.689E-03    0.74       2.9  T
   7    -42.5249629 -0.863926E-06  0.315E-03    0.74       6.4  T
   8    -42.5249629 -0.351378E-07  0.172E-03    0.74      11.6  T
   9    -42.5249630 -0.561073E-07  0.683E-04    0.74      29.3  T
  10    -42.5249630 -0.850843E-08  0.231E-04    0.74      86.6  T
     SCC iter.                  ...        0 min,  0.013 sec
     gradient                   ...        0 min,  0.013 sec
 * total energy  :   -42.0323686 Eh     change       -0.1175887E-02 Eh
   gradient norm :     0.0849968 Eh/α   predicted    -0.2242174E-02 (  90.68%)
   displ. norm   :     0.3085632 α      lambda       -0.6823495E-02
   maximum displ.:     0.1283814 α      in ANC's #17, #14, #16, ...

........................................................................
.............................. CYCLE   31 ..............................
........................................................................

 iter      E             dE          RMSdq      gap      omega  full diag
   1    -42.5309252 -0.425309E+02  0.661E-01    1.07       0.0  T
   2    -42.4773166  0.536085E-01  0.136E+00    0.63       1.0  T
   3    -42.5453861 -0.680695E-01  0.147E-01    0.82       1.0  T
   4    -42.5454692 -0.831316E-04  0.922E-02    0.79       1.0  T
   5    -42.5455399 -0.706977E-04  0.366E-02    0.79       1.0  T
   6    -42.5455814 -0.414336E-04  0.105E-02    0.80       1.9  T
   7    -42.5455835 -0.210469E-05  0.289E-03    0.80       6.9  T
   8    -42.5455835 -0.346175E-07  0.150E-03    0.80      13.3  T
   9    -42.5455835 -0.132755E-07  0.755E-04    0.80      26.5  T
  10    -42.5455835 -0.128431E-07  0.192E-04    0.80     104.4  T
     SCC iter.                  ...        0 min,  0.013 sec
     gradient                   ...        0 min,  0.013 sec
 * total energy  :   -42.0344625 Eh     change       -0.2093900E-02 Eh
   gradient norm :     0.0326548 Eh/α   predicted    -0.3736590E-02 (  78.45%)
   displ. norm   :     0.2358121 α      lambda       -0.2327116E-02
   maximum displ.:     0.1219608 α      in ANC's #2, #3, #1, ...

........................................................................
.............................. CYCLE   32 ..............................
........................................................................

 iter      E             dE          RMSdq      gap      omega  full diag
   1    -42.5425763 -0.425426E+02  0.182E-01    0.72       0.0  T
   2    -42.5408333  0.174308E-02  0.263E-01    0.86       1.0  T
   3    -42.5430858 -0.225249E-02  0.800E-02    0.75       1.0  T
   4    -42.5431321 -0.463926E-04  0.341E-02    0.76       1.0  T
   5    -42.5431526 -0.204301E-04  0.838E-03    0.76       2.4  T
   6    -42.5431540 -0.143590E-05  0.289E-03    0.76       6.9  T
   7    -42.5431541 -0.621240E-07  0.137E-03    0.76      14.6  T
   8    -42.5431541 -0.152116E-07  0.405E-04    0.76      49.4  T
   9    -42.5431541 -0.373337E-08  0.165E-04    0.76     121.4  T
     SCC iter.                  ...        0 min,  0.012 sec
     gradient                   ...        0 min,  0.013 sec
 * total energy  :   -42.0359167 Eh     change       -0.1454196E-02 Eh
   gradient norm :     0.0204066 Eh/α   predicted    -0.1228261E-02 ( -15.54%)
   displ. norm   :     0.2460266 α      lambda       -0.1199019E-02
   maximum displ.:     0.0936961 α      in ANC's #3, #2, #1, ...

........................................................................
.............................. CYCLE   33 ..............................
........................................................................

 iter      E             dE          RMSdq      gap      omega  full diag
   1    -42.5370587 -0.425371E+02  0.274E-01    0.61       0.0  T
   2    -42.5294272  0.763152E-02  0.515E-01    0.90       1.0  T
   3    -42.5391842 -0.975701E-02  0.765E-02    0.69       1.0  T
   4    -42.5391718  0.123982E-04  0.406E-02    0.69       1.0  T
   5    -42.5391922 -0.204735E-04  0.127E-02    0.69       1.6  T
   6    -42.5391967 -0.445604E-05  0.255E-03    0.69       7.9  T
   7    -42.5391967 -0.447629E-07  0.139E-03    0.69      14.4  T
   8    -42.5391967 -0.877533E-08  0.588E-04    0.69      34.0  T
   9    -42.5391968 -0.859009E-08  0.180E-04    0.69     111.0  T
     SCC iter.                  ...        0 min,  0.012 sec
     gradient                   ...        0 min,  0.013 sec
 * total energy  :   -42.0366383 Eh     change       -0.7215768E-03 Eh
   gradient norm :     0.0298379 Eh/α   predicted    -0.6357996E-03 ( -11.89%)
   displ. norm   :     0.2380240 α      lambda       -0.1080678E-02
   maximum displ.:     0.1094695 α      in ANC's #2, #3, #9, ...

........................................................................
.............................. CYCLE   34 ..............................
........................................................................

 iter      E             dE          RMSdq      gap      omega  full diag
   1    -42.5421200 -0.425421E+02  0.111E-01    0.66       0.0  T
   2    -42.5420978  0.221883E-04  0.731E-02    0.68       1.0  T
   3    -42.5419138  0.184010E-03  0.893E-02    0.64       1.0  T
   4    -42.5421108 -0.197011E-03  0.328E-02    0.68       1.0  T
   5    -42.5421487 -0.378707E-04  0.556E-03    0.67       3.6  T
   6    -42.5421492 -0.589520E-06  0.193E-03    0.67      10.4  T
   7    -42.5421493 -0.193434E-07  0.946E-04    0.67      21.1  T
   8    -42.5421493 -0.422732E-08  0.424E-04    0.67      47.2  T
     SCC iter.                  ...        0 min,  0.011 sec
     gradient                   ...        0 min,  0.013 sec
 * total energy  :   -42.0374135 Eh     change       -0.7752099E-03 Eh
   gradient norm :     0.0259004 Eh/α   predicted    -0.5709570E-03 ( -26.35%)
   displ. norm   :     0.2991442 α      lambda       -0.1696300E-02
   maximum displ.:     0.1553390 α      in ANC's #9, #6, #8, ...

........................................................................
.............................. CYCLE   35 ..............................
........................................................................

 iter      E             dE          RMSdq      gap      omega  full diag
   1    -42.5521049 -0.425521E+02  0.214E-01    0.61       0.0  T
   2    -42.5506983  0.140656E-02  0.241E-01    0.73       1.0  T
   3    -42.5521746 -0.147633E-02  0.130E-01    0.62       1.0  T
   4    -42.5524699 -0.295319E-03  0.484E-02    0.64       1.0  T
   5    -42.5525274 -0.574504E-04  0.859E-03    0.65       2.3  T
   6    -42.5525285 -0.113063E-05  0.355E-03    0.65       5.6  T
   7    -42.5525286 -0.570705E-07  0.206E-03    0.64       9.7  T
   8    -42.5525286 -0.647474E-07  0.498E-04    0.64      40.2  T
   9    -42.5525286 -0.304288E-08  0.241E-04    0.64      82.8  T
     SCC iter.                  ...        0 min,  0.012 sec
     gradient                   ...        0 min,  0.013 sec
 * total energy  :   -42.0377540 Eh     change       -0.3405382E-03 Eh
   gradient norm :     0.0279465 Eh/α   predicted    -0.9240479E-03 ( 171.35%)
   displ. norm   :     0.2854266 α      lambda       -0.2022325E-02
   maximum displ.:     0.1802654 α      in ANC's #2, #9, #3, ...

........................................................................
.............................. CYCLE   36 ..............................
........................................................................

 iter      E             dE          RMSdq      gap      omega  full diag
   1    -42.5435635 -0.425436E+02  0.153E-01    0.65       0.0  T
   2    -42.5435417  0.218204E-04  0.975E-02    0.63       1.0  T
   3    -42.5429911  0.550646E-03  0.130E-01    0.68       1.0  T
   4    -42.5435770 -0.585945E-03  0.259E-02    0.64       1.0  T
   5    -42.5435970 -0.199624E-04  0.636E-03    0.64       3.1  T
   6    -42.5435977 -0.706870E-06  0.282E-03    0.64       7.1  T
   7    -42.5435977 -0.333372E-07  0.123E-03    0.64      16.2  T
   8    -42.5435978 -0.265251E-07  0.355E-04    0.64      56.3  T
   9    -42.5435978 -0.128684E-08  0.227E-04    0.64      87.9  T
     SCC iter.                  ...        0 min,  0.012 sec
     gradient                   ...        0 min,  0.013 sec
 * total energy  :   -42.0386064 Eh     change       -0.8524030E-03 Eh
   gradient norm :     0.0170716 Eh/α   predicted    -0.1093550E-02 (  28.29%)
   displ. norm   :     0.0893700 α      lambda       -0.4695021E-03
   maximum displ.:     0.0386332 α      in ANC's #2, #4, #12, ...

........................................................................
.............................. CYCLE   37 ..............................
........................................................................

 iter      E             dE          RMSdq      gap      omega  full diag
   1    -42.5439748 -0.425440E+02  0.720E-02    0.62       0.0  T
   2    -42.5436594  0.315437E-03  0.112E-01    0.68       1.0  T
   3    -42.5440732 -0.413814E-03  0.310E-02    0.64       1.0  T
   4    -42.5440808 -0.763202E-05  0.166E-02    0.64       1.2  T
   5    -42.5440840 -0.313572E-05  0.406E-03    0.64       4.9  T
   6    -42.5440844 -0.453816E-06  0.119E-03    0.64      16.8  T
   7    -42.5440844 -0.150287E-07  0.572E-04    0.64      34.9  T
   8    -42.5440844 -0.153844E-08  0.253E-04    0.64      79.2  T
     SCC iter.                  ...        0 min,  0.011 sec
     gradient                   ...        0 min,  0.013 sec
 * total energy  :   -42.0389286 Eh     change       -0.3221118E-03 Eh
   gradient norm :     0.0147057 Eh/α   predicted    -0.2366294E-03 ( -26.54%)
   displ. norm   :     0.2147965 α      lambda       -0.7489162E-03
   maximum displ.:     0.1092151 α      in ANC's #1, #3, #2, ...

........................................................................
.............................. CYCLE   38 ..............................
........................................................................

 iter      E             dE          RMSdq      gap      omega  full diag
   1    -42.5477988 -0.425478E+02  0.113E-01    0.69       0.0  T
   2    -42.5473906  0.408192E-03  0.137E-01    0.63       1.0  T
   3    -42.5478802 -0.489511E-03  0.611E-02    0.68       1.0  T
   4    -42.5479325 -0.523546E-04  0.241E-02    0.67       1.0  T
   5    -42.5479436 -0.110562E-04  0.805E-03    0.67       2.5  T
   6    -42.5479452 -0.159590E-05  0.190E-03    0.67      10.5  T
   7    -42.5479452 -0.259265E-07  0.973E-04    0.67      20.6  T
   8    -42.5479452 -0.248361E-08  0.471E-04    0.67      42.5  T
     SCC iter.                  ...        0 min,  0.011 sec
     gradient                   ...        0 min,  0.013 sec
 * total energy  :   -42.0392792 Eh     change       -0.3506187E-03 Eh
   gradient norm :     0.0121085 Eh/α   predicted    -0.3917377E-03 (  11.73%)
   displ. norm   :     0.3876235 α      lambda       -0.8348642E-03
   maximum displ.:     0.2116357 α      in ANC's #2, #6, #1, ...

........................................................................
.............................. CYCLE   39 ..............................
........................................................................

 iter      E             dE          RMSdq      gap      omega  full diag
   1    -42.5363778 -0.425364E+02  0.357E-01    0.57       0.0  T
   2    -42.5231248  0.132530E-01  0.684E-01    0.89       1.0  T
   3    -42.5400735 -0.169487E-01  0.102E-01    0.64       1.0  T
   4    -42.5400565  0.169640E-04  0.605E-02    0.64       1.0  T
   5    -42.5400954 -0.388369E-04  0.181E-02    0.64       1.1  T
   6    -42.5401050 -0.960690E-05  0.365E-03    0.64       5.5  T
   7    -42.5401052 -0.206889E-06  0.168E-03    0.64      11.9  T
   8    -42.5401052 -0.451401E-08  0.988E-04    0.64      20.2  T
   9    -42.5401052 -0.196001E-07  0.314E-04    0.64      63.7  T
     SCC iter.                  ...        0 min,  0.012 sec
     gradient                   ...        0 min,  0.013 sec
 * total energy  :   -42.0396441 Eh     change       -0.3649002E-03 Eh
   gradient norm :     0.0248582 Eh/α   predicted    -0.4801581E-03 (  31.59%)
   displ. norm   :     0.1776940 α      lambda       -0.5902731E-03
   maximum displ.:     0.1236184 α      in ANC's #1, #2, #3, ...

........................................................................
.............................. CYCLE   40 ..............................
........................................................................

 iter      E             dE          RMSdq      gap      omega  full diag
   1    -42.5434546 -0.425435E+02  0.879E-02    0.69       0.0  T
   2    -42.5430332  0.421388E-03  0.125E-01    0.64       1.0  T
   3    -42.5435454 -0.512199E-03  0.422E-02    0.68       1.0  T
   4    -42.5435663 -0.209310E-04  0.145E-02    0.67       1.4  T
   5    -42.5435701 -0.380443E-05  0.315E-03    0.67       6.3  T
   6    -42.5435704 -0.264520E-06  0.114E-03    0.67      17.6  T
   7    -42.5435704 -0.591609E-08  0.529E-04    0.67      37.8  T
   8    -42.5435704 -0.314300E-08  0.124E-04    0.67     161.8  T
     SCC iter.                  ...        0 min,  0.011 sec
     gradient                   ...        0 min,  0.013 sec
 * total energy  :   -42.0401017 Eh     change       -0.4575923E-03 Eh
   gradient norm :     0.0165684 Eh/α   predicted    -0.3044564E-03 ( -33.47%)
   displ. norm   :     0.4825831 α      lambda       -0.9412194E-03
   maximum displ.:     0.3068819 α      in ANC's #1, #2, #3, ...

........................................................................
.............................. CYCLE   41 ..............................
........................................................................

 iter      E             dE          RMSdq      gap      omega  full diag
   1    -42.5442272 -0.425442E+02  0.174E-01    0.74       0.0  T
   2    -42.5438181  0.409043E-03  0.153E-01    0.70       1.0  T
   3    -42.5439353 -0.117200E-03  0.130E-01    0.75       1.0  T
   4    -42.5443561 -0.420789E-03  0.300E-02    0.73       1.0  T
   5    -42.5443782 -0.221082E-04  0.705E-03    0.73       2.8  T
   6    -42.5443795 -0.127518E-05  0.242E-03    0.73       8.3  T
   7    -42.5443795 -0.318042E-07  0.118E-03    0.73      16.9  T
   8    -42.5443795 -0.693083E-08  0.511E-04    0.73      39.1  T
   9    -42.5443795 -0.478843E-08  0.203E-04    0.73      98.3  T
     SCC iter.                  ...        0 min,  0.012 sec
     gradient                   ...        0 min,  0.013 sec
 * total energy  :   -42.0407580 Eh     change       -0.6563752E-03 Eh
   gradient norm :     0.0183280 Eh/α   predicted    -0.5802097E-03 ( -11.60%)
   displ. norm   :     0.4568259 α      lambda       -0.8380141E-03
   maximum displ.:     0.2866161 α      in ANC's #1, #2, #3, ...

........................................................................
.............................. CYCLE   42 ..............................
........................................................................

 iter      E             dE          RMSdq      gap      omega  full diag
   1    -42.5477889 -0.425478E+02  0.158E-01    0.75       0.0  T
   2    -42.5474412  0.347684E-03  0.146E-01    0.79       1.0  T
   3    -42.5476023 -0.161097E-03  0.107E-01    0.75       1.0  T
   4    -42.5478823 -0.280049E-03  0.221E-02    0.77       1.0  T
   5    -42.5478962 -0.138583E-04  0.470E-03    0.76       4.3  T
   6    -42.5478966 -0.433587E-06  0.205E-03    0.76       9.8  T
   7    -42.5478966 -0.570943E-08  0.108E-03    0.76      18.5  T
   8    -42.5478967 -0.188451E-07  0.370E-04    0.76      54.0  T
   9    -42.5478967 -0.220908E-08  0.162E-04    0.76     123.5  T
     SCC iter.                  ...        0 min,  0.012 sec
     gradient                   ...        0 min,  0.013 sec
 * total energy  :   -42.0413095 Eh     change       -0.5514263E-03 Eh
   gradient norm :     0.0245306 Eh/α   predicted    -0.5064528E-03 (  -8.16%)
   displ. norm   :     0.3751198 α      lambda       -0.8809325E-03
   maximum displ.:     0.1883151 α      in ANC's #1, #2, #3, ...
 * RMSD in coord.:     1.1527799 α      energy gain  -0.7794693E-01 Eh

generating ANC from model Hessian ...
Using Lindh-Hessian (1995)
 Shifting diagonal of input Hessian by    8.9251253007904228E-003
 Lowest  eigenvalues of input Hessian
    0.000000    0.000000    0.000000    0.000000    0.000000    0.000000
    0.010000    0.011347    0.011564    0.012993    0.016197    0.018044
    0.020049    0.021620    0.024596    0.026703    0.029664    0.042684
 Highest eigenvalues
    2.073092    2.128870    2.219194    2.340282    2.502828    4.771002


........................................................................
.............................. CYCLE   43 ..............................
........................................................................

 iter      E             dE          RMSdq      gap      omega  full diag
   1    -42.5495428 -0.425495E+02  0.132E-01    0.77       0.0  T
   2    -42.5493774  0.165427E-03  0.112E-01    0.79       1.0  T
   3    -42.5493708  0.661210E-05  0.940E-02    0.76       1.0  T
   4    -42.5495904 -0.219577E-03  0.324E-02    0.78       1.0  T
   5    -42.5496179 -0.275795E-04  0.609E-03    0.78       3.3  T
   6    -42.5496188 -0.893755E-06  0.189E-03    0.78      10.6  T
   7    -42.5496189 -0.121546E-07  0.936E-04    0.78      21.4  T
   8    -42.5496189 -0.534227E-08  0.328E-04    0.78      61.0  T
     SCC iter.                  ...        0 min,  0.011 sec
     gradient                   ...        0 min,  0.013 sec
 * total energy  :   -42.0419043 Eh     change       -0.5947933E-03 Eh
   gradient norm :     0.0133818 Eh/α   predicted     0.0000000E+00 (-100.00%)
   displ. norm   :     0.1255785 α      lambda       -0.5072605E-03
   maximum displ.:     0.0881023 α      in ANC's #1, #2, #9, ...

........................................................................
.............................. CYCLE   44 ..............................
........................................................................

 iter      E             dE          RMSdq      gap      omega  full diag
   1    -42.5506661 -0.425507E+02  0.642E-02    0.78       0.0  T
   2    -42.5506088  0.573216E-04  0.608E-02    0.77       1.0  T
   3    -42.5506457 -0.368934E-04  0.415E-02    0.78       1.0  T
   4    -42.5506799 -0.341860E-04  0.142E-02    0.77       1.4  T
   5    -42.5506866 -0.667429E-05  0.268E-03    0.78       7.5  T
   6    -42.5506867 -0.120652E-06  0.957E-04    0.78      20.9  T
   7    -42.5506867  0.130255E-08  0.559E-04    0.78      35.8  T
     SCC iter.                  ...        0 min,  0.010 sec
     gradient                   ...        0 min,  0.013 sec
 * total energy  :   -42.0422843 Eh     change       -0.3800666E-03 Eh
   gradient norm :     0.0063540 Eh/α   predicted    -0.2576387E-03 ( -32.21%)
   displ. norm   :     0.2212572 α      lambda       -0.4030440E-03
   maximum displ.:     0.1628189 α      in ANC's #1, #2, #3, ...

........................................................................
.............................. CYCLE   45 ..............................
........................................................................

 iter      E             dE          RMSdq      gap      omega  full diag
   1    -42.5505825 -0.425506E+02  0.935E-02    0.78       0.0  T
   2    -42.5505805  0.201686E-05  0.584E-02    0.77       1.0  T
   3    -42.5504661  0.114402E-03  0.658E-02    0.79       1.0  T
   4    -42.5505731 -0.106997E-03  0.245E-02    0.77       1.0  T
   5    -42.5505955 -0.224190E-04  0.454E-03    0.78       4.4  T
   6    -42.5505960 -0.512752E-06  0.123E-03    0.78      16.3  T
   7    -42.5505960  0.439186E-09  0.719E-04    0.78      27.8  T
   8    -42.5505960 -0.790229E-08  0.209E-04    0.78      95.9  T
     SCC iter.                  ...        0 min,  0.011 sec
     gradient                   ...        0 min,  0.013 sec
 * total energy  :   -42.0425837 Eh     change       -0.2994044E-03 Eh
   gradient norm :     0.0049644 Eh/α   predicted    -0.2114183E-03 ( -29.39%)
   displ. norm   :     0.2679577 α      lambda       -0.3109388E-03
   maximum displ.:     0.1930345 α      in ANC's #1, #2, #3, ...

........................................................................
.............................. CYCLE   46 ..............................
........................................................................

 iter      E             dE          RMSdq      gap      omega  full diag
   1    -42.5499082 -0.425499E+02  0.104E-01    0.79       0.0  T
   2    -42.5499129 -0.478846E-05  0.620E-02    0.78       1.0  T
   3    -42.5498727  0.402455E-04  0.441E-02    0.80       1.0  T
   4    -42.5499059 -0.331740E-04  0.186E-02    0.78       1.1  T
   5    -42.5499174 -0.114825E-04  0.670E-03    0.79       3.0  T
   6    -42.5499189 -0.154976E-05  0.122E-03    0.79      16.3  T
   7    -42.5499189 -0.312249E-08  0.584E-04    0.79      34.2  T
   8    -42.5499189 -0.311784E-08  0.169E-04    0.79     118.7  T
     SCC iter.                  ...        0 min,  0.011 sec
     gradient                   ...        0 min,  0.013 sec
 * total energy  :   -42.0428456 Eh     change       -0.2618661E-03 Eh
   gradient norm :     0.0099232 Eh/α   predicted    -0.1666329E-03 ( -36.37%)
   displ. norm   :     0.3552683 α      lambda       -0.3910622E-03
   maximum displ.:     0.2471789 α      in ANC's #1, #2, #3, ...

........................................................................
.............................. CYCLE   47 ..............................
........................................................................

 iter      E             dE          RMSdq      gap      omega  full diag
   1    -42.5492118 -0.425492E+02  0.133E-01    0.81       0.0  T
   2    -42.5491949  0.168738E-04  0.811E-02    0.80       1.0  T
   3    -42.5489125  0.282491E-03  0.104E-01    0.83       1.0  T
   4    -42.5492002 -0.287780E-03  0.300E-02    0.80       1.0  T
   5    -42.5492332 -0.329255E-04  0.413E-03    0.81       4.8  T
   6    -42.5492335 -0.353677E-06  0.145E-03    0.81      13.8  T
   7    -42.5492335  0.135588E-08  0.697E-04    0.81      28.7  T
   8    -42.5492335 -0.670391E-08  0.229E-04    0.81      87.2  T
     SCC iter.                  ...        0 min,  0.011 sec
     gradient                   ...        0 min,  0.013 sec
 * total energy  :   -42.0431727 Eh     change       -0.3270770E-03 Eh
   gradient norm :     0.0152634 Eh/α   predicted    -0.2202118E-03 ( -32.67%)
   displ. norm   :     0.4443053 α      lambda       -0.4702849E-03
   maximum displ.:     0.3131408 α      in ANC's #1, #2, #3, ...

........................................................................
.............................. CYCLE   48 ..............................
........................................................................

 iter      E             dE          RMSdq      gap      omega  full diag
   1    -42.5490308 -0.425490E+02  0.166E-01    0.85       0.0  T
   2    -42.5488644  0.166487E-03  0.117E-01    0.82       1.0  T
   3    -42.5485694  0.294945E-03  0.141E-01    0.87       1.0  T
   4    -42.5490613 -0.491901E-03  0.377E-02    0.83       1.0  T
   5    -42.5491080 -0.466447E-04  0.397E-03    0.84       5.0  T
   6    -42.5491082 -0.206588E-06  0.186E-03    0.84      10.8  T
   7    -42.5491082  0.368370E-08  0.109E-03    0.84      18.4  T
   8    -42.5491082 -0.214554E-07  0.258E-04    0.84      77.5  T
   9    -42.5491082 -0.841212E-09  0.122E-04    0.84     163.6  T
     SCC iter.                  ...        0 min,  0.012 sec
     gradient                   ...        0 min,  0.013 sec
 * total energy  :   -42.0435192 Eh     change       -0.3464932E-03 Eh
   gradient norm :     0.0190114 Eh/α   predicted    -0.2815669E-03 ( -18.74%)
   displ. norm   :     0.3382930 α      lambda       -0.3695769E-03
   maximum displ.:     0.2515260 α      in ANC's #1, #2, #3, ...

........................................................................
.............................. CYCLE   49 ..............................
........................................................................

 iter      E             dE          RMSdq      gap      omega  full diag
   1    -42.5514119 -0.425514E+02  0.134E-01    0.88       0.0  T
   2    -42.5510561  0.355791E-03  0.128E-01    0.84       1.0  T
   3    -42.5513451 -0.288990E-03  0.930E-02    0.88       1.0  T
   4    -42.5515107 -0.165661E-03  0.302E-02    0.87       1.0  T
   5    -42.5515373 -0.265524E-04  0.333E-03    0.87       6.0  T
   6    -42.5515375 -0.178125E-06  0.153E-03    0.87      13.1  T
   7    -42.5515375 -0.356123E-08  0.905E-04    0.87      22.1  T
   8    -42.5515375 -0.127391E-07  0.197E-04    0.87     101.6  T
     SCC iter.                  ...        0 min,  0.011 sec
     gradient                   ...        0 min,  0.013 sec
 * total energy  :   -42.0437850 Eh     change       -0.2658029E-03 Eh
   gradient norm :     0.0109497 Eh/α   predicted    -0.2059426E-03 ( -22.52%)
   displ. norm   :     0.3200852 α      lambda       -0.2678974E-03
   maximum displ.:     0.2448757 α      in ANC's #1, #2, #3, ...

........................................................................
.............................. CYCLE   50 ..............................
........................................................................

 iter      E             dE          RMSdq      gap      omega  full diag
   1    -42.5532307 -0.425532E+02  0.120E-01    0.90       0.0  T
   2    -42.5532030  0.276917E-04  0.735E-02    0.88       1.0  T
   3    -42.5529491  0.253944E-03  0.101E-01    0.91       1.0  T
   4    -42.5532327 -0.283638E-03  0.237E-02    0.89       1.0  T
   5    -42.5532508 -0.180789E-04  0.290E-03    0.89       6.9  T
   6    -42.5532509 -0.141503E-06  0.138E-03    0.89      14.4  T
   7    -42.5532510 -0.107655E-07  0.727E-04    0.89      27.5  T
   8    -42.5532510 -0.749766E-08  0.196E-04    0.89     102.1  T
     SCC iter.                  ...        0 min,  0.011 sec
     gradient                   ...        0 min,  0.013 sec
 * total energy  :   -42.0439834 Eh     change       -0.1983738E-03 Eh
   gradient norm :     0.0085099 Eh/α   predicted    -0.1476758E-03 ( -25.56%)
[...]
H            3.34441310814063       -1.58192631229749       -0.59690409134266
H           -2.22320832149470        3.62542812338287        0.66819998211732
H           -1.68985200052916        2.84625682810725       -0.84743426300129
H           -2.79439422999486        1.99543983725077        0.25941171998628
H           -0.98059636529496       -3.10838860949460        1.45688232961786
H           -1.19507516417814       -3.82925787401340       -0.15968862409165
H           -2.55766547492095       -3.04425628072417        0.65061633380430
H            1.25097912338016       -2.99807566630439       -0.43002557288361

 Bond Distances (Angstroems)
 ---------------------------
C1-N2=1.4350         C1-H15=1.0912        C1-H16=1.0869        C1-H17=1.0912        N2-C1=1.4350         N2-C3=1.3298         
N2-C6=1.4077         C3-N2=1.3298         C3-N4=1.3340         C3-H18=1.0721        N4-C3=1.3340         N4-C5=1.3853         
N4-H25=1.0089        C5-N4=1.3853         C5-C6=1.4315         C5-N13=1.3966        C6-N2=1.4077         C6-C5=1.4315         
C6-C7=1.3528         C7-C6=1.3528         C7-O8=1.3494         C7-N9=1.3643         O8-C7=1.3494         O8-N9=1.4744         
N9-C7=1.3643         N9-O8=1.4744         N9-C10=1.4394        C10-N9=1.4394        C10-H19=1.0873       C10-H20=1.0922       
C10-H21=1.0878       C11-O12=1.1787       C11-N13=1.3136       O12-C11=1.1787       N13-C5=1.3966        N13-C11=1.3136       
N13-C14=1.4584       C14-N13=1.4584       C14-H22=1.0886       C14-H23=1.0921       C14-H24=1.0882       H15-C1=1.0912        
H16-C1=1.0869        H17-C1=1.0912        H18-C3=1.0721        H19-C10=1.0873       H20-C10=1.0922       H21-C10=1.0878       
H22-C14=1.0886       H23-C14=1.0921       H24-C14=1.0882       H25-N4=1.0089        
 C  H  Rav=1.0877 sigma=0.0056  Rmin=1.0721  Rmax=1.0922    10
 C  C  Rav=1.3922 sigma=0.0393  Rmin=1.3528  Rmax=1.4315     2
 N  H  Rav=1.0089 sigma=0.0000  Rmin=1.0089  Rmax=1.0089     1
 N  C  Rav=1.3864 sigma=0.0476  Rmin=1.3136  Rmax=1.4584    10
 O  C  Rav=1.2640 sigma=0.0854  Rmin=1.1787  Rmax=1.3494     2
 O  N  Rav=1.4744 sigma=0.0000  Rmin=1.4744  Rmax=1.4744     1

 selected bond angles (degree)
 --------------------
H15-C1-N2=110.13               H16-C1-N2=109.53               H16-C1-H15=109.50              H17-C1-N2=110.36               
H17-C1-H15=107.84              H17-C1-H16=109.45              C3-N2-C1=126.81                C6-N2-C1=124.08                
C6-N2-C3=109.12                N4-C3-N2=109.82                H18-C3-N2=124.95               H18-C3-N4=125.23               
C5-N4-C3=109.97                H25-N4-C3=125.10               H25-N4-C5=124.85               C6-C5-N4=105.63                
N13-C5-N4=121.45               N13-C5-C6=130.24               C5-C6-N2=105.42                C7-C6-N2=121.07                
C7-C6-C5=133.52                O8-C7-C6=136.51                N9-C7-C6=154.13                N9-C7-O8= 65.81                
N9-O8-C7= 57.58                O8-N9-C7= 56.61                C10-N9-C7=121.97               C10-N9-O8=115.43               
H19-C10-N9=107.56              H20-C10-N9=113.39              H20-C10-H19=110.04             H21-C10-N9=106.87              
H21-C10-H19=109.38             H21-C10-H20=109.49             

 selected dihedral angles (degree)
 ---------------------------------
C3-N2-C1-H15=240.10           C3-N2-C1-H16=  0.59           C3-N2-C1-H17=121.15           C6-N2-C1-H15= 59.80           
C6-N2-C1-H16=180.29           C6-N2-C1-H17=300.85           N4-C3-N2-C1=180.15            N4-C3-N2-C6=  0.41            
H18-C3-N2-C1=  1.19           H18-C3-N2-C6=181.45           C5-N4-C3-N2=358.28            C5-N4-C3-H18=177.24           
H25-N4-C3-N2=181.53           H25-N4-C3-H18=  0.49          C6-C5-N4-C3=  2.26            C6-C5-N4-H25=179.03           
N13-C5-N4-C3=165.48           N13-C5-N4-H25=342.25          C5-C6-N2-C1=181.23            C5-C6-N2-C3=  0.98            
C7-C6-N2-C1=  1.66            C7-C6-N2-C3=181.40            N2-C6-C5-N4=358.07            N2-C6-C5-N13=196.89           
C7-C6-C5-N4=177.58            C7-C6-C5-N13= 16.40           O8-C7-C6-N2=351.65            O8-C7-C6-C5=172.21            
N9-C7-C6-N2=207.63            N9-C7-C6-C5= 28.18            N9-O8-C7-C6=196.32            O8-N9-C7-C6=153.69            
C10-N9-C7-C6=254.92           C10-N9-C7-O8=101.23           C10-N9-O8-C7=247.13           H19-C10-N9-C7=210.00          
H19-C10-N9-O8=275.06          H20-C10-N9-C7=331.90          H20-C10-N9-O8= 36.96          H21-C10-N9-C7= 92.64          
H21-C10-N9-O8=157.70          
           -------------------------------------------------
          |                Final Singlepoint                |
           -------------------------------------------------

          ...................................................
          :                      SETUP                      :
          :.................................................:
          :  # basis functions                  67          :
          :  # atomic orbitals                  67          :
          :  # shells                           39          :
          :  # electrons                        74          :
          :  max. iterations                   250          :
          :  Hamiltonian                  GFN2-xTB          :
          :  restarted?                      false          :
          :  GBSA solvation                  false          :
          :  PC potential                    false          :
          :  electronic temp.         5000.0000000     K    :
          :  accuracy                    1.0000000          :
          :  -> integral cutoff          0.2500000E+02      :
          :  -> integral neglect         0.1000000E-07      :
          :  -> SCF convergence          0.1000000E-05 Eh   :
          :  -> wf. convergence          0.1000000E-03 e    :
          :  Broyden damping             0.4000000          :
          ...................................................

 iter      E             dE          RMSdq      gap      omega  full diag
   1    -42.5566721 -0.425567E+02  0.149E-04    0.94       0.0  T
   2    -42.5566721 -0.451337E-10  0.128E-04    0.94     156.0  T
   3    -42.5566721 -0.346681E-09  0.577E-05    0.94     346.4  T

   *** convergence criteria satisfied after 3 iterations ***

         #    Occupation            Energy/Eh            Energy/eV
      -------------------------------------------------------------
         1        2.0000           -0.8938823             -24.3238
       ...           ...                  ...                  ...
        31        1.9998           -0.6126557             -16.6712
        32        1.9997           -0.6044710             -16.4485
        33        1.9996           -0.5991555             -16.3039
        34        1.9993           -0.5904424             -16.0668
        35        1.9980           -0.5732144             -15.5980
        36        1.9798           -0.5367092             -14.6046
        37        1.4862           -0.4809654             -13.0877 (HOMO)
        38        0.4914           -0.4463864             -12.1468 (LUMO)
        39        0.0404           -0.4026903             -10.9578
        40        0.0056           -0.3711823             -10.1004
        41        0.0003           -0.3248164              -8.8387
        42        0.0001           -0.3062098              -8.3324
       ...           ...                  ...                  ...
        67                          0.6484314              17.6447
      -------------------------------------------------------------
                  HL-Gap            0.0345790 Eh            0.9409 eV
             Fermi-level           -0.4641485 Eh          -12.6301 eV

 SCC (total)                   0 d,  0 h,  0 min,  0.023 sec
 SCC setup                      ...        0 min,  0.000 sec (  0.892%)
 Dispersion                     ...        0 min,  0.000 sec (  0.773%)
 classical contributions        ...        0 min,  0.000 sec (  0.316%)
 integral evaluation            ...        0 min,  0.005 sec ( 20.282%)
 iterations                     ...        0 min,  0.005 sec ( 20.406%)
 molecular gradient             ...        0 min,  0.013 sec ( 56.773%)
 printout                       ...        0 min,  0.000 sec (  0.509%)

         :::::::::::::::::::::::::::::::::::::::::::::::::::::
         ::                     SUMMARY                     ::
         :::::::::::::::::::::::::::::::::::::::::::::::::::::
         :: total energy             -42.044317858609 Eh    ::
         :: gradient norm              0.003656695809 Eh/a0 ::
         :: HOMO-LUMO gap              0.940942293539 eV    ::
         ::.................................................::
         :: SCC energy               -42.556672106653 Eh    ::
         :: -> isotropic ES            0.105263493196 Eh    ::
         :: -> anisotropic ES         -0.004613130061 Eh    ::
         :: -> anisotropic XC          0.018974322920 Eh    ::
         :: -> dispersion             -0.021719505599 Eh    ::
         :: repulsion energy           0.512153820661 Eh    ::
         :: add. restraining           0.000002658823 Eh    ::
         :: total charge               0.999999999998 e     ::
         :::::::::::::::::::::::::::::::::::::::::::::::::::::

           -------------------------------------------------
          |                Property Printout                |
           -------------------------------------------------

    * Orbital Energies and Occupations

         #    Occupation            Energy/Eh            Energy/eV
      -------------------------------------------------------------
         1        2.0000           -0.8938823             -24.3238
       ...           ...                  ...                  ...
        25        2.0000           -0.6766732             -18.4132
        26        2.0000           -0.6670030             -18.1501
        27        2.0000           -0.6614332             -17.9985
        28        2.0000           -0.6494539             -17.6725
        29        2.0000           -0.6344152             -17.2633
        30        1.9999           -0.6292245             -17.1221
        31        1.9998           -0.6126557             -16.6712
        32        1.9997           -0.6044710             -16.4485
        33        1.9996           -0.5991555             -16.3039
        34        1.9993           -0.5904424             -16.0668
        35        1.9980           -0.5732144             -15.5980
        36        1.9798           -0.5367092             -14.6046
        37        1.4862           -0.4809654             -13.0877 (HOMO)
        38        0.4914           -0.4463864             -12.1468 (LUMO)
        39        0.0404           -0.4026903             -10.9578
        40        0.0056           -0.3711823             -10.1004
        41        0.0003           -0.3248164              -8.8387
        42        0.0001           -0.3062098              -8.3324
        43        0.0000           -0.2105589              -5.7296
        44                         -0.1897890              -5.1644
        45                         -0.1628444              -4.4312
        46                         -0.1139823              -3.1016
        47                         -0.0706859              -1.9235
        48                         -0.0503298              -1.3695
       ...                                ...                  ...
        67                          0.6484314              17.6447
      -------------------------------------------------------------
                  HL-Gap            0.0345790 Eh            0.9409 eV
             Fermi-level           -0.4641485 Eh          -12.6301 eV

     #   Z          covCN         q      C6AA      α(0)
     1   6 C        3.691    -0.082    22.257     6.751
     2   7 N        2.827     0.044    20.464     6.719
     3   6 C        2.973     0.058    26.694     8.475
     4   7 N        2.782    -0.059    22.384     7.027
     5   6 C        3.004     0.051    26.849     8.500
     6   6 C        3.029     0.009    27.799     8.648
     7   6 C        2.759     0.176    24.204     8.057
     8   8 O        1.748    -0.230    17.804     5.697
     9   7 N        2.712    -0.014    21.517     6.889
    10   6 C        3.690    -0.055    21.760     6.676
    11   6 C        1.824     0.218    26.054     8.247
    12   8 O        0.856    -0.220    18.400     5.751
    13   7 N        2.729    -0.009    21.423     6.874
    14   6 C        3.701    -0.077    22.139     6.728
    15   1 H        0.924     0.111     1.691     2.034
    16   1 H        0.925     0.097     1.816     2.107
    17   1 H        0.924     0.107     1.719     2.050
    18   1 H        0.926     0.115     1.657     2.013
    19   1 H        0.925     0.098     1.800     2.098
    20   1 H        0.924     0.073     2.054     2.241
    21   1 H        0.925     0.088     1.898     2.155
    22   1 H        0.925     0.095     1.833     2.117
    23   1 H        0.924     0.082     1.960     2.190
    24   1 H        0.925     0.105     1.744     2.065
    25   1 H        0.860     0.220     1.008     1.573

 Mol. C6AA /au·bohr⁶  :       6571.775338
 Mol. C8AA /au·bohr⁸  :     150883.911960
 Mol. α(0) /au        :        123.682754


Wiberg/Mayer (AO) data.
largest (>0.10) Wiberg bond orders for each atom

 ---------------------------------------------------------------------------
     #   Z sym  total        # sym  WBO       # sym  WBO       # sym  WBO
 ---------------------------------------------------------------------------
     1   6 C    3.931 --     2 N    0.995    16 H    0.974    17 H    0.960
                            15 H    0.958
     2   7 N    3.584 --     3 C    1.351     6 C    1.065     1 C    0.995
     3   6 C    3.822 --     2 N    1.351     4 N    1.321    18 H    0.952
     4   7 N    3.570 --     3 C    1.321     5 C    1.139    25 H    0.923
     5   6 C    3.661 --     6 C    1.197     4 N    1.139    13 N    1.029
     6   6 C    3.913 --     7 C    1.430     5 C    1.197     2 N    1.065
     7   6 C    3.640 --     6 C    1.430     9 N    1.068     8 O    1.006
     8   8 O    2.025 --     7 C    1.006     9 N    0.883
     9   7 N    3.039 --     7 C    1.068    10 C    1.001     8 O    0.883
    10   6 C    3.939 --     9 N    1.001    20 H    0.970    19 H    0.969
                            21 H    0.958
    11   6 C    3.410 --    12 O    1.921    13 N    1.311
    12   8 O    2.172 --    11 C    1.921    13 N    0.156
    13   7 N    3.522 --    11 C    1.311     5 C    1.029    14 C    0.963
                            12 O    0.156
    14   6 C    3.926 --    22 H    0.977    24 H    0.973    23 H    0.972
                            13 N    0.963
    15   1 H    0.982 --     1 C    0.958
    16   1 H    0.990 --     1 C    0.974
    17   1 H    0.983 --     1 C    0.960
    18   1 H    0.985 --     3 C    0.952
    19   1 H    0.988 --    10 C    0.969
    20   1 H    0.988 --    10 C    0.970
    21   1 H    0.992 --    10 C    0.958
    22   1 H    0.991 --    14 C    0.977
    23   1 H    0.992 --    14 C    0.972
    24   1 H    0.988 --    14 C    0.973
    25   1 H    0.951 --     4 N    0.923
 ---------------------------------------------------------------------------

Topologies differ in total number of bonds
Writing topology from bond orders to xtbtopo.mol

molecular dipole:
                 x           y           z       tot (Debye)
 q only:        1.326      -2.238       0.049
   full:        1.520      -2.524      -0.287       7.524
molecular quadrupole (traceless):
                xx          xy          yy          xz          yz          zz
 q only:       11.066      -2.176      10.137      -5.971      -0.822     -21.203
  q+dip:       10.066      -4.783      11.951      -6.173      -0.247     -22.017
   full:       10.754      -3.869      11.094      -6.265      -0.457     -21.849

           -------------------------------------------------
          |                Geometry Summary                 |
           -------------------------------------------------

      molecular mass/u    :      195.1988581
   center of mass at/Å    :        0.0288919      -0.0030681      -0.0496367
  moments of inertia/u·Å² :        0.6092523E+03   0.7122708E+03   0.1175246E+04
rotational constants/cm⁻¹ :        0.2766938E-01   0.2366745E-01   0.1434391E-01

 * 25 selected distances

     #   Z          #   Z                                           value/Å
     1   6 C        2   7 N                                       1.4350474
     2   7 N        3   6 C                                       1.3297798
     3   6 C        4   7 N                                       1.3339744
     4   7 N        5   6 C                                       1.3853229
     2   7 N        6   6 C                                       1.4077442
     5   6 C        6   6 C                                       1.4314993
     6   6 C        7   6 C                                       1.3528427
     7   6 C        8   8 O                                       1.3494165
     7   6 C        9   7 N                                       1.3643466
     9   7 N       10   6 C                                       1.4394401
    11   6 C       12   8 O                                       1.1786640
     5   6 C       13   7 N                                       1.3966197
    11   6 C       13   7 N                                       1.3136107
    13   7 N       14   6 C                                       1.4584484 (max)
     1   6 C       15   1 H                                       1.0911798
     1   6 C       16   1 H                                       1.0868510
     1   6 C       17   1 H                                       1.0911913
     3   6 C       18   1 H                                       1.0721122
    10   6 C       19   1 H                                       1.0872646
    10   6 C       20   1 H                                       1.0921885
    10   6 C       21   1 H                                       1.0877596
    14   6 C       22   1 H                                       1.0885858
    14   6 C       23   1 H                                       1.0920761
    14   6 C       24   1 H                                       1.0881992
     4   7 N       25   1 H                                       1.0088587 (min)

 * 5 distinct bonds (by element types)

   Z      Z             #   av. dist./Å        max./Å        min./Å
   1 H    6 C          10     1.0877408     1.0921885     1.0721122
   6 C    6 C           2     1.3921710     1.4314993     1.3528427
   1 H    7 N           1     1.0088587     1.0088587     1.0088587
   6 C    7 N          10     1.3864334     1.4584484     1.3136107
   6 C    8 O           2     1.2640402     1.3494165     1.1786640


optimized geometry written to: xtbopt.xyz


           -------------------------------------------------
          | TOTAL ENERGY              -42.044317858609 Eh   |
          | GRADIENT NORM               0.003656695809 Eh/α |
          | HOMO-LUMO GAP               0.940942293539 eV   |
           -------------------------------------------------

------------------------------------------------------------------------
 * finished run on 2024/06/05 at 19:59:17.082     
------------------------------------------------------------------------
 total:
 * wall-time:     0 d,  0 h,  0 min,  1.815 sec
 *  cpu-time:     0 d,  0 h,  0 min,  1.787 sec
 * ratio c/w:     0.985 speedup
 SCF:
 * wall-time:     0 d,  0 h,  0 min,  0.037 sec
 *  cpu-time:     0 d,  0 h,  0 min,  0.037 sec
 * ratio c/w:     1.000 speedup
 ANC optimizer:
 * wall-time:     0 d,  0 h,  0 min,  1.741 sec
 *  cpu-time:     0 d,  0 h,  0 min,  1.737 sec
 * ratio c/w:     0.998 speedup

