      -----------------------------------------------------------      
     |                   =====================                   |     
     |                           x T B                           |     
     |                   =====================                   |     
     |                         S. Grimme                         |     
     |          Mulliken Center for Theoretical Chemistry        |     
     |                    University of Bonn                     |     
      -----------------------------------------------------------      

   * xtb version 6.6.1 (8d0f1dd) compiled by 'conda@1efc2f54142f' on 2023-08-01

   xtb is free software: you can redistribute it and/or modify it under
   the terms of the GNU Lesser General Public License as published by
   the Free Software Foundation, either version 3 of the License, or
   (at your option) any later version.
   
   xtb is distributed in the hope that it will be useful,
   but WITHOUT ANY WARRANTY; without even the implied warranty of
   MERCHANTABILITY or FITNESS FOR A PARTICULAR PURPOSE.  See the
   GNU Lesser General Public License for more details.
   
   Cite this work as:
   * C. Bannwarth, E. Caldeweyher, S. Ehlert, A. Hansen, P. Pracht,
     J. Seibert, S. Spicher, S. Grimme, WIREs Comput. Mol. Sci., 2020, 11,
     e01493. DOI: 10.1002/wcms.1493
   
   for GFN2-xTB:
   * C. Bannwarth, S. Ehlert and S. Grimme., J. Chem. Theory Comput., 2019,
     15, 1652-1671. DOI: 10.1021/acs.jctc.8b01176
   for GFN1-xTB:
   * S. Grimme, C. Bannwarth, P. Shushkov, J. Chem. Theory Comput., 2017,
     13, 1989-2009. DOI: 10.1021/acs.jctc.7b00118
   for GFN0-xTB:
   * P. Pracht, E. Caldeweyher, S. Ehlert, S. Grimme, ChemRxiv, 2019, preprint.
     DOI: 10.26434/chemrxiv.8326202.v1
   for GFN-FF:
   * S. Spicher and S. Grimme, Angew. Chem. Int. Ed., 2020, 59, 15665-15673.
     DOI: 10.1002/anie.202004239
   
   for ALPB and GBSA implicit solvation:
   * S. Ehlert, M. Stahn, S. Spicher, S. Grimme, J. Chem. Theory Comput.,
     2021, 17, 4250-4261. DOI: 10.1021/acs.jctc.1c00471
   
   for DFT-D4:
   * E. Caldeweyher, C. Bannwarth and S. Grimme, J. Chem. Phys., 2017,
     147, 034112. DOI: 10.1063/1.4993215
   * E. Caldeweyher, S. Ehlert, A. Hansen, H. Neugebauer, S. Spicher,
     C. Bannwarth and S. Grimme, J. Chem. Phys., 2019, 150, 154122.
     DOI: 10.1063/1.5090222
   * E. Caldeweyher, J.-M. Mewes, S. Ehlert and S. Grimme, Phys. Chem. Chem. Phys.
     2020, 22, 8499-8512. DOI: 10.1039/D0CP00502A
   
   for sTDA-xTB:
   * S. Grimme and C. Bannwarth, J. Chem. Phys., 2016, 145, 054103.
     DOI: 10.1063/1.4959605
   
   in the mass-spec context:
   * V. Asgeirsson, C. Bauer and S. Grimme, Chem. Sci., 2017, 8, 4879.
     DOI: 10.1039/c7sc00601b
   * J. Koopman and S. Grimme, ACS Omega 2019, 4, 12, 15120-15133.
     DOI: 10.1021/acsomega.9b02011
   
   for metadynamics refer to:
   * S. Grimme, J. Chem. Theory Comput., 2019, 155, 2847-2862
     DOI: 10.1021/acs.jctc.9b00143
   
   for SPH calculations refer to:
   * S. Spicher and S. Grimme, J. Chem. Theory Comput., 2021, 17, 1701-1714
     DOI: 10.1021/acs.jctc.0c01306
   
   with help from (in alphabetical order)
   P. Atkinson, C. Bannwarth, F. Bohle, G. Brandenburg, E. Caldeweyher
   M. Checinski, S. Dohm, S. Ehlert, S. Ehrlich, I. Gerasimov, C. Hölzer
   A. Katbashev, J. Koopman, C. Lavigne, S. Lehtola, F. März, M. Müller,
   F. Musil, H. Neugebauer, J. Pisarek, C. Plett, P. Pracht, F. Pultar,
   J. Seibert, P. Shushkov, S. Spicher, M. Stahn, M. Steiner, T. Strunk,
   J. Stückrath, T. Rose, and J. Unsleber
   
 * started run on 2024/04/06 at 11:13:44.547     

           -------------------------------------------------
          |                Calculation Setup                |
           -------------------------------------------------

          program call               : xtb xtbopt.xyz --opt crude --input .xc2 --gfn2
          hostname                   : n-62-30-23
          coordinate file            : xtbopt.xyz
          omp threads                :                     1

   ID    Z sym.   atoms
    1    7 N      1, 17
    2    6 C      2-6, 8, 9, 11-16, 18-23, 25, 26, 28-33
    3    8 O      7, 10, 24, 27
    4    1 H      34-72

molecular fragmentation (1/2 indicates fragments):
111111111111111111222222222221111111111111111111112222222222211111111111
# atoms in fragment 1/2:    50    22
 fragment masses (1/2) :      304.43      151.18
CMA distance (Bohr)    :  17.622
constraining FC (au)   :  0.0500
########################################################################
[WARNING] Please study the warnings concerning your input carefully
-1- readin_getIntValue: could not parse ''
########################################################################

           -------------------------------------------------
          |                 G F N 2 - x T B                 |
           -------------------------------------------------

        Reference                      10.1021/acs.jctc.8b01176
      * Hamiltonian:
        H0-scaling (s, p, d)           1.850000    2.230000    2.230000
        zeta-weighting                 0.500000
      * Dispersion:
        s8                             2.700000
        a1                             0.520000
        a2                             5.000000
        s9                             5.000000
      * Repulsion:
        kExp                           1.500000    1.000000
        rExp                           1.000000
      * Coulomb:
        alpha                          2.000000
        third order                    shell-resolved
        anisotropic                    true
        a3                             3.000000
        a5                             4.000000
        cn-shift                       1.200000
        cn-exp                         4.000000
        max-rad                        5.000000

q/qsh data taken from xtbrestart
CAMM data taken from xtbrestart

          ...................................................
          :                      SETUP                      :
          :.................................................:
          :  # basis functions                 171          :
          :  # atomic orbitals                 171          :
          :  # shells                          105          :
          :  # electrons                       180          :
          :  max. iterations                   250          :
          :  Hamiltonian                  GFN2-xTB          :
          :  restarted?                       true          :
          :  GBSA solvation                  false          :
          :  PC potential                    false          :
          :  electronic temp.         5000.0000000     K    :
          :  accuracy                    1.0000000          :
          :  -> integral cutoff          0.2500000E+02      :
          :  -> integral neglect         0.1000000E-07      :
          :  -> SCF convergence          0.1000000E-05 Eh   :
          :  -> wf. convergence          0.1000000E-03 e    :
          :  Broyden damping             0.4000000          :
          ...................................................

 iter      E             dE          RMSdq      gap      omega  full diag
   1   -100.7308518 -0.100731E+03  0.233E-05    0.71       0.0  T
   2   -100.7308518  0.682121E-10  0.297E-05    0.71     397.4  T
   3   -100.7308518 -0.934790E-10  0.127E-05    0.71     925.3  T

   *** convergence criteria satisfied after 3 iterations ***

         #    Occupation            Energy/Eh            Energy/eV
      -------------------------------------------------------------
         1        2.0000           -0.8161874             -22.2096
       ...           ...                  ...                  ...
        84        1.9920           -0.5081420             -13.8272
        85        1.9888           -0.5027880             -13.6816
        86        1.9759           -0.4905530             -13.3486
        87        1.9280           -0.4728372             -12.8666
        88        1.9197           -0.4710560             -12.8181
        89        1.8437           -0.4598603             -12.5134
        90        1.5537           -0.4405435             -11.9878 (HOMO)
        91        0.8026           -0.4144572             -11.2780 (LUMO)
        92        0.0139           -0.3422066              -9.3119
        93        0.0090           -0.3352309              -9.1221
        94        0.0028           -0.3167802              -8.6200
        95        0.0023           -0.3137921              -8.5387
       ...           ...                  ...                  ...
       171                          0.5868332              15.9685
      -------------------------------------------------------------
                  HL-Gap            0.0260864 Eh            0.7098 eV
             Fermi-level           -0.4207906 Eh          -11.4503 eV

 SCC (total)                   0 d,  0 h,  0 min,  0.118 sec
 SCC setup                      ...        0 min,  0.001 sec (  0.822%)
 Dispersion                     ...        0 min,  0.002 sec (  1.450%)
 classical contributions        ...        0 min,  0.000 sec (  0.363%)
 integral evaluation            ...        0 min,  0.018 sec ( 15.401%)
 iterations                     ...        0 min,  0.027 sec ( 23.063%)
 molecular gradient             ...        0 min,  0.069 sec ( 58.345%)
 printout                       ...        0 min,  0.001 sec (  0.542%)

         :::::::::::::::::::::::::::::::::::::::::::::::::::::
         ::                     SUMMARY                     ::
         :::::::::::::::::::::::::::::::::::::::::::::::::::::
         :: total energy             -99.328059178267 Eh    ::
         :: gradient norm              0.003219077896 Eh/a0 ::
         :: HOMO-LUMO gap              0.709845715379 eV    ::
         ::.................................................::
         :: SCC energy              -100.730851780636 Eh    ::
         :: -> isotropic ES            0.104885841050 Eh    ::
         :: -> anisotropic ES          0.004797978279 Eh    ::
         :: -> anisotropic XC          0.048205541211 Eh    ::
         :: -> dispersion             -0.073216048363 Eh    ::
         :: repulsion energy           1.401100800902 Eh    ::
         :: add. restraining           0.000000000000 Eh    ::
         :: total charge               1.000000000000 e     ::
         :::::::::::::::::::::::::::::::::::::::::::::::::::::

      ----------------------------------------------------------- 
     |                   =====================                   |
     |                        A N C O P T                        |
     |                   =====================                   |
     |               Approximate Normal Coordinate               |
     |                Rational Function Optimizer                |
      ----------------------------------------------------------- 

          ...................................................
          :                      SETUP                      :
          :.................................................:
          :   optimization level             crude          :
          :   max. optcycles                   200          :
          :   ANC micro-cycles                  20          :
          :   degrees of freedom               210          :
          :.................................................:
          :   RF solver                   davidson          :
          :   write xtbopt.log                true          :
          :   linear?                        false          :
          :   energy convergence         0.5000000E-03 Eh   :
          :   grad. convergence          0.1000000E-01 Eh/α :
          :   maxmium RF displ.          1.0000000          :
          :   Hlow (freq-cutoff)         0.1000000E-01      :
          :   Hmax (freq-cutoff)         5.0000000          :
          :   S6 in model hess.         20.0000000          :
          ...................................................

generating ANC from model Hessian ...
Using Lindh-Hessian (1995)
 Shifting diagonal of input Hessian by    1.0053453221490908E-002
 Lowest  eigenvalues of input Hessian
    0.010000    0.010021    0.000000    0.000000    0.000000    0.000000
    0.000000    0.000000    0.010092    0.010105    0.010181    0.010238
    0.010320    0.010449    0.010563    0.010920    0.011061    0.011216
 Highest eigenvalues
    2.019166    2.041565    2.108032    2.181898    2.184741    2.194528


........................................................................
.............................. CYCLE    1 ..............................
........................................................................

 iter      E             dE          RMSdq      gap      omega  full diag
   1   -100.7308518 -0.100731E+03  0.939E-06    0.71       0.0  T
   2   -100.7308518  0.675016E-11  0.122E-05    0.71     963.9  T
   3   -100.7308518 -0.108429E-10  0.403E-06    0.71    2927.8  T
     SCC iter.                  ...        0 min,  0.026 sec
     gradient                   ...        0 min,  0.068 sec
 * total energy  :   -99.3280592 Eh     change       -0.7361223E-11 Eh
   gradient norm :     0.0032190 Eh/α   predicted     0.0000000E+00 (-100.00%)
   displ. norm   :     0.0599088 α      lambda       -0.6926180E-04
   maximum displ.:     0.0278761 α      in ANC's #8, #14, #36, ...

   *** GEOMETRY OPTIMIZATION CONVERGED AFTER 1 ITERATIONS ***

------------------------------------------------------------------------
 total energy gain   :        -0.0000000 Eh       -0.0000 kcal/mol
 total RMSD          :         0.0000002 a0        0.0000 Å
 total power (kW/mol):        -0.0000000 (step)   -0.0000 (real)
------------------------------------------------------------------------

 ANCopt (total)                0 d,  0 h,  0 min,  0.178 sec
 optimizer setup                ...        0 min,  0.000 sec (  0.126%)
 model hessian                  ...        0 min,  0.050 sec ( 28.046%)
 ANC generation                 ...        0 min,  0.006 sec (  3.600%)
 coordinate transformation      ...        0 min,  0.000 sec (  0.027%)
 single point calculation       ...        0 min,  0.118 sec ( 66.534%)
 optimization log               ...        0 min,  0.002 sec (  1.183%)
 hessian update                 ...        0 min,  0.000 sec (  0.001%)
 rational function              ...        0 min,  0.000 sec (  0.102%)

================
 final structure:
================
72
 xtb: 6.6.1 (8d0f1dd)
N           -2.30287417121452        3.07493832887245        2.41889904451490
C           -2.10394702482364        2.32623980075819        1.43916511379220
C           -3.12356019166995        2.03889594697482        0.37104571765319
C           -3.51485596486439        0.56992748342972        0.41955166564799
C           -4.33514901847111        0.04243785793192       -0.57945551418886
C           -4.75173737835846       -1.27802230636180       -0.55469417311853
O           -5.56340158566572       -1.85473239527101       -1.46413095628934
C           -6.15868674831944       -1.05559195470231       -2.45980524722641
C           -4.31731186808559       -2.12922226122906        0.49817952848484
O           -4.76493706109599       -3.39833949130567        0.43802057944738
C           -4.46023139859990       -4.28639117698776        1.48806269421611
C           -3.49746692359520       -1.60133390908240        1.48350702912279
C           -3.10854884466538       -0.26838220232015        1.44732113486225
C           -2.43567026168085        2.36139568762644       -0.98287549846294
C           -1.39339342725707        1.32796809965138       -1.44456647749613
C           -0.11336179264236        1.42128514590422       -0.69677529478668
N            0.63142381676749        0.39810701153544       -0.29113806478056
C            1.81577489341250        0.54695088970181        0.28599826435207
C            3.48336729388542       -1.26006509570472       -2.39769301167552
C            4.53426867571245       -0.81624400547433       -1.62918809119168
C            4.96881687198081        0.53731410109092       -1.68677397573278
C            6.04991320703669        0.97121337557875       -0.96439872663892
C            6.75561947371444        0.09704715282558       -0.13109295419018
O            7.83274848515756        0.41410465747223        0.59747649628028
C            8.36484554275380        1.71894333312752        0.53087142386226
C            6.32353710396794       -1.26549659028542       -0.02805683227295
O            7.06230993199940       -2.02131974783630        0.81116076417959
C            6.76905942790570       -3.39248834315900        0.93613061562438
C            5.24505719079441       -1.69515717210430       -0.75947945068235
C            0.12398413270158       -0.95441105655410       -0.45513546908741
C           -4.41930364863535        2.89136683334851        0.51666969280207
C           -5.17326583656804        2.55431285327891        1.80057530628093
C           -4.16234999560690        4.39419910724961        0.44844210734272
H           -4.66457929637716        0.68085923400619       -1.38203727773335
H           -6.74089928121051       -0.23938317930611       -2.02138409974642
H           -6.82464694274058       -1.71933722509003       -3.00770340842255
H           -5.41240368440281       -0.64599523742461       -3.14819148932079
H           -4.82997022141449       -3.91369928045562        2.44793879913097
H           -4.96998387605090       -5.21569301735703        1.24091149922545
H           -3.38360526329394       -4.47199264286880        1.55806579205594
H           -3.16649583529939       -2.21874400194529        2.30296449030124
H           -2.50148442448436        0.11241210629531        2.25402279290100
H           -3.20555013029344        2.43356884965347       -1.75070621947181
H           -1.95490129599905        3.33718943085350       -0.90708262377313
H           -1.82674054447125        0.33070235488742       -1.39053536831886
H           -1.18818755972244        1.54048657692747       -2.50233335691752
H           -1.14006540315055        1.82678870488854        1.23596461745072
H            0.32672978920133        2.40088725086510       -0.58972228874025
H            2.37381399548372       -0.30788053008896        0.60511658917324
H            2.23027986611888        1.52742487616269        0.41264536860611
H            2.96594198462475       -0.59123267915518       -3.06104483939556
H            3.17950024468795       -2.29155125946079       -2.39654269534542
H            4.44216892012879        1.22209965654588       -2.33278949800420
H            6.36519119580729        1.99883246918574       -1.04997867973064
H            7.63656729381781        2.46397694249819        0.86456533698588
H            8.69981334762510        1.96113594430150       -0.48241135388757
H            9.21903140533306        1.72175577083800        1.20563359937662
H            7.49188439636278       -3.78242050242057        1.64958302177660
H            5.75814729588986       -3.55528784050281        1.32074169652666
H            6.88414658121408       -3.91328156056327       -0.01865547549284
H            4.91849632208863       -2.72174352367457       -0.70682872295772
H           -0.00346673923330       -1.18121870679800       -1.51289754311443
H           -0.83638869374869       -1.06185956334004        0.05217731286849
H            0.82990500702217       -1.66188044077931       -0.02815606289415
H           -5.06291642157186        2.62311015717845       -0.32885520988957
H           -4.58351913228678        2.84180229330694        2.66498924985950
H           -5.39334638672330        1.49098402312947        1.86065476950102
H           -6.11262640613696        3.10037608037430        1.82513262201975
H           -3.50073016402765        4.70091014609465        1.25256508580601
H           -3.73048999707982        4.68917342350611       -0.50400081706783
H           -5.10536320137015        4.92200055521644        0.56404354565064
H           -1.53741405327354        3.22141390903217        3.06958824296563

 Bond Distances (Angstroems)
 ---------------------------
N1-C2=1.2490         N1-H72=1.0153        C2-N1=1.2490         C2-C3=1.5043         C2-H47=1.1045        C3-C2=1.5043         
C3-C4=1.5210         C3-C14=1.5525        C3-C31=1.5578        C4-C3=1.5210         C4-C5=1.3961         C4-C13=1.3871        
C5-C4=1.3961         C5-C6=1.3848         C5-H34=1.0771        C6-C5=1.3848         C6-O7=1.3485         C6-C9=1.4219         
O7-C6=1.3485         O7-C8=1.4087         C8-O7=1.4087         C8-H35=1.0942        C8-H36=1.0882        C8-H37=1.0948        
C9-C6=1.4219         C9-O10=1.3471        C9-C12=1.3862        O10-C9=1.3471        O10-C11=1.4086       C11-O10=1.4086       
C11-H38=1.0941       C11-H39=1.0884       C11-H40=1.0947       C12-C9=1.3862        C12-C13=1.3890       C12-H41=1.0781       
C13-C4=1.3871        C13-C12=1.3890       C13-H42=1.0790       C14-C3=1.5525        C14-C15=1.5387       C14-H43=1.0897       
C14-H44=1.0904       C15-C14=1.5387       C15-C16=1.4854       C15-H45=1.0887       C15-H46=1.0982       C16-C15=1.4854       
C16-N17=1.3290       C16-H48=1.0792       N17-C16=1.3290       N17-C18=1.3259       N17-C30=1.4539       C18-N17=1.3259       
C18-H49=1.0696       C18-H50=1.0720       C19-C20=1.3755       C19-H51=1.0748       C19-H52=1.0753       C20-C19=1.3755       
C20-C21=1.4228       C20-C29=1.4262       C21-C20=1.4228       C21-C22=1.3707       C21-H53=1.0787       C22-C21=1.3707       
C22-C23=1.3988       C22-H54=1.0783       C23-C22=1.3988       C23-O24=1.3385       C23-C26=1.4331       O24-C23=1.3385       
O24-C25=1.4107       C25-O24=1.4107       C25-H55=1.0940       C25-H56=1.0944       C25-H57=1.0886       C26-C23=1.4331       
C26-O27=1.3496       C26-C29=1.3721       O27-C26=1.3496       O27-C28=1.4077       C28-O27=1.4077       C28-H58=1.0879       
C28-H59=1.0938       C28-H60=1.0937       C29-C20=1.4262       C29-C26=1.3721       C29-H61=1.0786       C30-N17=1.4539       
C30-H62=1.0893       C30-H63=1.0914       C30-H64=1.0868       C31-C3=1.5578        C31-C32=1.5266       C31-C33=1.5262       
C31-H65=1.0960       C32-C31=1.5266       C32-H66=1.0852       C32-H67=1.0875       C32-H68=1.0868       C33-C31=1.5262       
C33-H69=1.0856       C33-H70=1.0866       C33-H71=1.0868       H34-C5=1.0771        H35-C8=1.0942        H36-C8=1.0882        
H37-C8=1.0948        H38-C11=1.0941       H39-C11=1.0884       H40-C11=1.0947       H41-C12=1.0781       H42-C13=1.0790       
H43-C14=1.0897       H44-C14=1.0904       H45-C15=1.0887       H46-C15=1.0982       H47-C2=1.1045        H48-C16=1.0792       
H49-C18=1.0696       H50-C18=1.0720       H51-C19=1.0748       H52-C19=1.0753       H53-C21=1.0787       H54-C22=1.0783       
H55-C25=1.0940       H56-C25=1.0944       H57-C25=1.0886       H58-C28=1.0879       H59-C28=1.0938       H60-C28=1.0937       
H61-C29=1.0786       H62-C30=1.0893       H63-C30=1.0914       H64-C30=1.0868       H65-C31=1.0960       H66-C32=1.0852       
H67-C32=1.0875       H68-C32=1.0868       H69-C33=1.0856       H70-C33=1.0866       H71-C33=1.0868       H72-N1=1.0153        
 C  H  Rav=1.0869 sigma=0.0078  Rmin=1.0696  Rmax=1.1045    38
 C  C  Rav=1.4465 sigma=0.0663  Rmin=1.3707  Rmax=1.5578    21
 N  H  Rav=1.0153 sigma=0.0000  Rmin=1.0153  Rmax=1.0153     1
 N  C  Rav=1.3394 sigma=0.0734  Rmin=1.2490  Rmax=1.4539     4
 O  C  Rav=1.3774 sigma=0.0317  Rmin=1.3385  Rmax=1.4107     8

 selected bond angles (degree)
 --------------------
H72-N1-C2=117.98               C3-C2-N1=124.30                H47-C2-N1=123.67               H47-C2-C3=111.99               
C4-C3-C2=109.65                C14-C3-C2=106.21               C14-C3-C4=110.02               C31-C3-C2=113.13               
C31-C3-C4=108.15               C31-C3-C14=109.66              C5-C4-C3=119.55                C13-C4-C3=122.14               
C13-C4-C5=118.29               C6-C5-C4=121.62                H34-C5-C4=119.27               H34-C5-C6=119.11               
O7-C6-C5=125.23                C9-C6-C5=119.48                C9-C6-O7=115.29                C8-O7-C6=119.24                
H35-C8-O7=111.40               H36-C8-O7=105.57               H36-C8-H35=109.33              H37-C8-O7=111.63               
H37-C8-H35=109.61              H37-C8-H36=109.19              O10-C9-C6=115.43               C12-C9-C6=118.62               
C12-C9-O10=125.95              C11-O10-C9=119.26              

 selected dihedral angles (degree)
 ---------------------------------
C3-C2-N1-H72=181.65           H47-C2-N1-H72=359.20          C4-C3-C2-N1=245.43            C4-C3-C2-H47= 67.64           
C14-C3-C2-N1=126.58           C14-C3-C2-H47=308.79          C31-C3-C2-N1=  6.24           C31-C3-C2-H47=188.45          
C5-C4-C3-C2=187.29            C5-C4-C3-C14=303.75           C5-C4-C3-C31= 63.51           C13-C4-C3-C2=  8.84           
C13-C4-C3-C14=125.30          C13-C4-C3-C31=245.06          C6-C5-C4-C3=182.05            C6-C5-C4-C13=  0.56           
H34-C5-C4-C3=  1.14           H34-C5-C4-C13=179.65          O7-C6-C5-C4=178.60            O7-C6-C5-H34=359.51           
C9-C6-C5-C4=358.84            C9-C6-C5-H34=179.75           C8-O7-C6-C5=353.44            C8-O7-C6-C9=173.21            
H35-C8-O7-C6=303.39           H36-C8-O7-C6=184.81           H37-C8-O7-C6= 66.28           O10-C9-C6-C5=180.36           
O10-C9-C6-O7=  0.58           C12-C9-C6-C5=  0.81           C12-C9-C6-O7=181.02           C11-O10-C9-C6=184.34          
C11-O10-C9-C12=  3.86         

 CMA Distance (Angstroems)
 ---------------------------
R(CMA):  9.3253
           -------------------------------------------------
          |                Final Singlepoint                |
           -------------------------------------------------

          ...................................................
          :                      SETUP                      :
          :.................................................:
          :  # basis functions                 171          :
          :  # atomic orbitals                 171          :
          :  # shells                          105          :
          :  # electrons                       180          :
          :  max. iterations                   250          :
          :  Hamiltonian                  GFN2-xTB          :
          :  restarted?                      false          :
          :  GBSA solvation                  false          :
          :  PC potential                    false          :
          :  electronic temp.         5000.0000000     K    :
          :  accuracy                    1.0000000          :
          :  -> integral cutoff          0.2500000E+02      :
          :  -> integral neglect         0.1000000E-07      :
          :  -> SCF convergence          0.1000000E-05 Eh   :
          :  -> wf. convergence          0.1000000E-03 e    :
          :  Broyden damping             0.4000000          :
          ...................................................

 iter      E             dE          RMSdq      gap      omega  full diag
   1   -100.7308518 -0.100731E+03  0.378E-06    0.71       0.0  T
   2   -100.7308518  0.450484E-11  0.666E-06    0.71    1768.6  T
   3   -100.7308518 -0.612488E-11  0.148E-06    0.71    7963.0  T

   *** convergence criteria satisfied after 3 iterations ***

         #    Occupation            Energy/Eh            Energy/eV
      -------------------------------------------------------------
         1        2.0000           -0.8161874             -22.2096
       ...           ...                  ...                  ...
        84        1.9920           -0.5081419             -13.8272
        85        1.9888           -0.5027881             -13.6816
        86        1.9759           -0.4905530             -13.3486
        87        1.9280           -0.4728373             -12.8666
        88        1.9197           -0.4710560             -12.8181
        89        1.8437           -0.4598603             -12.5134
        90        1.5537           -0.4405434             -11.9878 (HOMO)
        91        0.8026           -0.4144573             -11.2780 (LUMO)
        92        0.0139           -0.3422065              -9.3119
        93        0.0090           -0.3352309              -9.1221
        94        0.0028           -0.3167801              -8.6200
        95        0.0023           -0.3137921              -8.5387
       ...           ...                  ...                  ...
       171                          0.5868331              15.9685
      -------------------------------------------------------------
                  HL-Gap            0.0260861 Eh            0.7098 eV
             Fermi-level           -0.4207906 Eh          -11.4503 eV

 SCC (total)                   0 d,  0 h,  0 min,  0.116 sec
 SCC setup                      ...        0 min,  0.001 sec (  0.750%)
 Dispersion                     ...        0 min,  0.002 sec (  1.357%)
 classical contributions        ...        0 min,  0.000 sec (  0.370%)
 integral evaluation            ...        0 min,  0.018 sec ( 15.304%)
 iterations                     ...        0 min,  0.026 sec ( 22.701%)
 molecular gradient             ...        0 min,  0.068 sec ( 59.021%)
 printout                       ...        0 min,  0.001 sec (  0.484%)

         :::::::::::::::::::::::::::::::::::::::::::::::::::::
         ::                     SUMMARY                     ::
         :::::::::::::::::::::::::::::::::::::::::::::::::::::
         :: total energy             -99.328059178275 Eh    ::
         :: gradient norm              0.003219036982 Eh/a0 ::
         :: HOMO-LUMO gap              0.709838395355 eV    ::
         ::.................................................::
         :: SCC energy              -100.730851780644 Eh    ::
         :: -> isotropic ES            0.104885940463 Eh    ::
         :: -> anisotropic ES          0.004797980801 Eh    ::
         :: -> anisotropic XC          0.048205531469 Eh    ::
         :: -> dispersion             -0.073216046898 Eh    ::
         :: repulsion energy           1.401100800902 Eh    ::
         :: add. restraining           0.000000000000 Eh    ::
         :: total charge               1.000000000000 e     ::
         :::::::::::::::::::::::::::::::::::::::::::::::::::::

           -------------------------------------------------
          |                Property Printout                |
           -------------------------------------------------

    * Orbital Energies and Occupations

         #    Occupation            Energy/Eh            Energy/eV
      -------------------------------------------------------------
         1        2.0000           -0.8161874             -22.2096
       ...           ...                  ...                  ...
        78        1.9977           -0.5277065             -14.3596
        79        1.9976           -0.5271693             -14.3450
        80        1.9967           -0.5220067             -14.2045
        81        1.9964           -0.5209140             -14.1748
        82        1.9944           -0.5138194             -13.9817
        83        1.9935           -0.5115731             -13.9206
        84        1.9920           -0.5081419             -13.8272
        85        1.9888           -0.5027881             -13.6816
        86        1.9759           -0.4905530             -13.3486
        87        1.9280           -0.4728373             -12.8666
        88        1.9197           -0.4710560             -12.8181
        89        1.8437           -0.4598603             -12.5134
        90        1.5537           -0.4405434             -11.9878 (HOMO)
        91        0.8026           -0.4144573             -11.2780 (LUMO)
        92        0.0139           -0.3422065              -9.3119
        93        0.0090           -0.3352309              -9.1221
        94        0.0028           -0.3167801              -8.6200
        95        0.0023           -0.3137921              -8.5387
        96        0.0020           -0.3117112              -8.4821
        97        0.0005           -0.2878564              -7.8330
        98        0.0000           -0.1913193              -5.2061
        99        0.0000           -0.1807816              -4.9193
       100                         -0.1040116              -2.8303
       101                         -0.0673456              -1.8326
       ...                                ...                  ...
       171                          0.5868331              15.9685
      -------------------------------------------------------------
                  HL-Gap            0.0260861 Eh            0.7098 eV
             Fermi-level           -0.4207906 Eh          -11.4503 eV

     #   Z          covCN         q      C6AA      α(0)
     1   7 N        1.774    -0.264    27.677     7.790
     2   6 C        2.826     0.102    25.741     8.314
     3   6 C        3.907     0.007    20.404     6.420
     4   6 C        2.974     0.005    27.898     8.664
     5   6 C        2.921    -0.078    29.951     8.975
     6   6 C        2.862     0.130    25.141     8.219
     7   8 O        1.706    -0.228    17.777     5.693
     8   6 C        3.645     0.027    20.459     6.501
     9   6 C        2.863     0.130    25.160     8.222
    10   8 O        1.706    -0.226    17.747     5.688
    11   6 C        3.645     0.026    20.468     6.502
    12   6 C        2.913    -0.073    29.833     8.957
    13   6 C        2.921    -0.052    29.289     8.875
    14   6 C        3.812    -0.065    21.736     6.636
    15   6 C        3.801    -0.066    21.768     6.643
    16   6 C        2.870    -0.041    29.018     8.830
    17   7 N        2.729     0.101    19.498     6.558
    18   6 C        2.822    -0.106    30.655     9.072
    19   6 C        2.852    -0.097    30.435     9.042
    20   6 C        2.959     0.022    27.519     8.604
    21   6 C        2.921    -0.040    28.983     8.828
    22   6 C        2.906    -0.063    29.577     8.918
    23   6 C        2.864     0.140    24.949     8.187
    24   8 O        1.706    -0.205    17.407     5.633
    25   6 C        3.644     0.022    20.542     6.514
    26   6 C        2.856     0.135    25.047     8.203
    27   8 O        1.706    -0.230    17.816     5.699
    28   6 C        3.645     0.027    20.459     6.501
    29   6 C        2.917    -0.080    29.988     8.980
    30   6 C        3.719    -0.077    22.095     6.714
    31   6 C        3.853    -0.008    20.679     6.468
    32   6 C        3.756    -0.118    22.816     6.811
    33   6 C        3.755    -0.119    22.831     6.813
    34   1 H        0.926     0.054     2.268     2.355
    35   1 H        0.924     0.055     2.262     2.352
    36   1 H        0.925     0.082     1.960     2.189
    37   1 H        0.924     0.049     2.327     2.385
    38   1 H        0.924     0.056     2.246     2.344
    39   1 H        0.925     0.082     1.959     2.189
    40   1 H        0.924     0.050     2.324     2.384
    41   1 H        0.926     0.053     2.281     2.362
    42   1 H        0.926     0.041     2.439     2.442
    43   1 H        0.925     0.056     2.244     2.343
    44   1 H        0.924     0.053     2.279     2.361
    45   1 H        0.925     0.057     2.236     2.338
    46   1 H        0.923     0.066     2.129     2.282
    47   1 H        0.923     0.016     2.803     2.618
    48   1 H        0.926     0.058     2.225     2.332
    49   1 H        0.927     0.060     2.202     2.320
    50   1 H        0.926     0.060     2.201     2.320
    51   1 H        0.926     0.047     2.353     2.399
    52   1 H        0.926     0.050     2.321     2.383
    53   1 H        0.926     0.054     2.272     2.357
    54   1 H        0.926     0.058     2.220     2.330
    55   1 H        0.924     0.058     2.221     2.331
    56   1 H        0.924     0.062     2.176     2.307
    57   1 H        0.925     0.086     1.915     2.164
    58   1 H        0.925     0.082     1.962     2.190
    59   1 H        0.924     0.049     2.333     2.389
    60   1 H        0.924     0.055     2.257     2.349
    61   1 H        0.926     0.055     2.257     2.349
    62   1 H        0.925     0.084     1.943     2.180
    63   1 H        0.924     0.083     1.950     2.184
    64   1 H        0.925     0.085     1.929     2.172
    65   1 H        0.924     0.038     2.475     2.460
    66   1 H        0.925     0.070     2.090     2.261
    67   1 H        0.925     0.035     2.519     2.482
    68   1 H        0.925     0.051     2.304     2.374
    69   1 H        0.925     0.063     2.169     2.303
    70   1 H        0.925     0.037     2.495     2.470
    71   1 H        0.925     0.054     2.265     2.354
    72   1 H        0.860     0.159     1.341     1.814

 Mol. C6AA /au·bohr⁶  :      48142.516657
 Mol. C8AA /au·bohr⁸  :    1099973.101640
 Mol. α(0) /au        :        338.991314


Wiberg/Mayer (AO) data.
largest (>0.10) Wiberg bond orders for each atom

 ---------------------------------------------------------------------------
     #   Z sym  total        # sym  WBO       # sym  WBO       # sym  WBO
 ---------------------------------------------------------------------------
     1   7 N    3.022 --     2 C    1.957    72 H    0.940
     2   6 C    3.931 --     1 N    1.957     3 C    0.993    47 H    0.908
     3   6 C    3.970 --     2 C    0.993     4 C    0.971    14 C    0.954
                            31 C    0.943
     4   6 C    3.943 --    13 C    1.409     5 C    1.370     3 C    0.971
     5   6 C    3.959 --     6 C    1.399     4 C    1.370    34 H    0.957
     6   6 C    3.899 --     5 C    1.399     9 C    1.218     7 O    1.102
     7   8 O    2.251 --     6 C    1.102     8 C    0.977
     8   6 C    3.930 --     7 O    0.977    36 H    0.976    35 H    0.973
                            37 H    0.973
     9   6 C    3.894 --    12 C    1.388     6 C    1.218    10 O    1.104
    10   8 O    2.250 --     9 C    1.104    11 C    0.977
    11   6 C    3.930 --    10 O    0.977    39 H    0.977    40 H    0.973
                            38 H    0.973
    12   6 C    3.959 --    13 C    1.407     9 C    1.388    41 H    0.964
    13   6 C    3.948 --     4 C    1.409    12 C    1.407    42 H    0.962
    14   6 C    3.976 --    15 C    0.988    44 H    0.972    43 H    0.969
                             3 C    0.954
    15   6 C    3.986 --    16 C    1.050    14 C    0.988    45 H    0.962
                            46 H    0.937
    16   6 C    3.669 --    17 N    1.347    15 C    1.050    48 H    0.960
                            18 C    0.213
    17   7 N    3.745 --    18 C    1.368    16 C    1.347    30 C    0.984
    18   6 C    3.595 --    17 N    1.368    49 H    0.975    50 H    0.974
                            16 C    0.213
    19   6 C    3.536 --    20 C    1.495    51 H    0.979    52 H    0.979
    20   6 C    3.979 --    19 C    1.495    21 C    1.208    29 C    1.202
    21   6 C    3.808 --    22 C    1.521    20 C    1.208    53 H    0.967
    22   6 C    3.969 --    21 C    1.521    23 C    1.317    54 H    0.962
    23   6 C    3.767 --    22 C    1.317    26 C    1.174    24 O    1.140
    24   8 O    2.255 --    23 C    1.140    25 C    0.972
    25   6 C    3.924 --    57 H    0.976    24 O    0.972    55 H    0.972
                            56 H    0.971
    26   6 C    3.914 --    29 C    1.480    23 C    1.174    27 O    1.099
    27   8 O    2.255 --    26 C    1.099    28 C    0.978
    28   6 C    3.931 --    27 O    0.978    58 H    0.977    59 H    0.973
                            60 H    0.973
    29   6 C    3.853 --    26 C    1.480    20 C    1.202    61 H    0.962
    30   6 C    3.955 --    17 N    0.984    64 H    0.977    62 H    0.970
                            63 H    0.966
    31   6 C    3.969 --    33 C    1.009    32 C    1.008    65 H    0.958
                             3 C    0.943
    32   6 C    3.975 --    31 C    1.008    67 H    0.981    68 H    0.981
                            66 H    0.972
    33   6 C    3.979 --    31 C    1.009    70 H    0.982    71 H    0.979
                            69 H    0.974
    34   1 H    0.996 --     5 C    0.957
    35   1 H    0.993 --     8 C    0.973
    36   1 H    0.992 --     8 C    0.976
    37   1 H    0.993 --     8 C    0.973
    38   1 H    0.992 --    11 C    0.973
    39   1 H    0.993 --    11 C    0.977
    40   1 H    0.992 --    11 C    0.973
    41   1 H    0.995 --    12 C    0.964
    42   1 H    0.997 --    13 C    0.962
    43   1 H    0.995 --    14 C    0.969
    44   1 H    0.996 --    14 C    0.972
    45   1 H    0.995 --    15 C    0.962
    46   1 H    0.974 --    15 C    0.937
    47   1 H    0.978 --     2 C    0.908
    48   1 H    0.996 --    16 C    0.960
    49   1 H    0.996 --    18 C    0.975
    50   1 H    0.996 --    18 C    0.974
    51   1 H    0.997 --    19 C    0.979
    52   1 H    0.997 --    19 C    0.979
    53   1 H    0.996 --    21 C    0.967
    54   1 H    0.995 --    22 C    0.962
    55   1 H    0.990 --    25 C    0.972
    56   1 H    0.989 --    25 C    0.971
    57   1 H    0.992 --    25 C    0.976
    58   1 H    0.993 --    28 C    0.977
    59   1 H    0.994 --    28 C    0.973
    60   1 H    0.993 --    28 C    0.973
    61   1 H    0.995 --    29 C    0.962
    62   1 H    0.992 --    30 C    0.970
    63   1 H    0.993 --    30 C    0.966
    64   1 H    0.993 --    30 C    0.977
    65   1 H    0.990 --    31 C    0.958
    66   1 H    0.989 --    32 C    0.972
    67   1 H    0.996 --    32 C    0.981
    68   1 H    0.993 --    32 C    0.981
    69   1 H    0.991 --    33 C    0.974
    70   1 H    0.996 --    33 C    0.982
    71   1 H    0.993 --    33 C    0.979
    72   1 H    0.967 --     1 N    0.940
 ---------------------------------------------------------------------------

Topologies differ in total number of bonds
Writing topology from bond orders to xtbtopo.mol

molecular dipole:
                 x           y           z       tot (Debye)
 q only:        1.008      -0.018      -0.427
   full:        1.418      -0.099      -0.571       3.893
molecular quadrupole (traceless):
                xx          xy          yy          xz          yz          zz
 q only:       58.423       1.708     -16.610       5.794      -8.172     -41.813
  q+dip:       54.286       6.010     -16.164       8.157     -10.905     -38.122
   full:       54.283       5.277     -16.739       4.709     -11.172     -37.545

           -------------------------------------------------
          |                Geometry Summary                 |
           -------------------------------------------------

      molecular mass/u    :      455.6105846
   center of mass at/Å    :        0.0077735      -0.0082665      -0.0046185
  moments of inertia/u·Å² :        0.2670097E+04   0.1109120E+05   0.1239167E+05
rotational constants/cm⁻¹ :        0.6313490E-02   0.1519910E-02   0.1360400E-02

 * 66 selected distances

     #   Z          #   Z                                           value/Å
     1   7 N        2   6 C                                       1.2489997
     4   6 C        5   6 C                                       1.3961167
     5   6 C        6   6 C                                       1.3848373
     6   6 C        7   8 O                                       1.3485062
     7   8 O        8   6 C                                       1.4086723
     6   6 C        9   6 C                                       1.4219038
     9   6 C       10   8 O                                       1.3470881
    10   8 O       11   6 C                                       1.4085702
     9   6 C       12   6 C                                       1.3862476
     4   6 C       13   6 C                                       1.3871406
    12   6 C       13   6 C                                       1.3890023
    14   6 C       15   6 C                                       1.5386593 (max)
    15   6 C       16   6 C                                       1.4853892
    16   6 C       17   7 N                                       1.3289624
    17   7 N       18   6 C                                       1.3258690
    19   6 C       20   6 C                                       1.3754894
    20   6 C       21   6 C                                       1.4227678
    21   6 C       22   6 C                                       1.3707167
    22   6 C       23   6 C                                       1.3987805
    23   6 C       24   8 O                                       1.3384865
    24   8 O       25   6 C                                       1.4107331
    23   6 C       26   6 C                                       1.4331216
    26   6 C       27   8 O                                       1.3495705
    27   8 O       28   6 C                                       1.4077347
    20   6 C       29   6 C                                       1.4262195
    26   6 C       29   6 C                                       1.3721175
    17   7 N       30   6 C                                       1.4538555
    31   6 C       32   6 C                                       1.5265905
    31   6 C       33   6 C                                       1.5261669
     5   6 C       34   1 H                                       1.0771462
     8   6 C       35   1 H                                       1.0942493
     8   6 C       36   1 H                                       1.0882341
     8   6 C       37   1 H                                       1.0947985
    11   6 C       38   1 H                                       1.0940605
    11   6 C       39   1 H                                       1.0883627
    11   6 C       40   1 H                                       1.0947476
    12   6 C       41   1 H                                       1.0780760
    13   6 C       42   1 H                                       1.0790270
    14   6 C       43   1 H                                       1.0897193
    14   6 C       44   1 H                                       1.0904389
    15   6 C       45   1 H                                       1.0886911
    15   6 C       46   1 H                                       1.0982461
    16   6 C       48   1 H                                       1.0792411
    18   6 C       49   1 H                                       1.0695705 (min)
    18   6 C       50   1 H                                       1.0719997
    19   6 C       51   1 H                                       1.0747565
    19   6 C       52   1 H                                       1.0753141
    21   6 C       53   1 H                                       1.0787148
    22   6 C       54   1 H                                       1.0782974
    25   6 C       55   1 H                                       1.0939909
    25   6 C       56   1 H                                       1.0943504
    25   6 C       57   1 H                                       1.0885521
    28   6 C       58   1 H                                       1.0879051
    28   6 C       59   1 H                                       1.0937883
    28   6 C       60   1 H                                       1.0936578
    29   6 C       61   1 H                                       1.0785610
    30   6 C       62   1 H                                       1.0892870
    30   6 C       63   1 H                                       1.0914337
    30   6 C       64   1 H                                       1.0868067
    31   6 C       65   1 H                                       1.0959524
    32   6 C       66   1 H                                       1.0852018
    32   6 C       67   1 H                                       1.0875263
    32   6 C       68   1 H                                       1.0868241
    33   6 C       69   1 H                                       1.0855535
    33   6 C       70   1 H                                       1.0865821
    33   6 C       71   1 H                                       1.0868359

 * 4 distinct bonds (by element types)

   Z      Z             #   av. dist./Å        max./Å        min./Å
   1 H    6 C          37     1.0863919     1.0982461     1.0695705
   6 C    6 C          17     1.4259569     1.5386593     1.3707167
   6 C    7 N           4     1.3394216     1.4538555     1.2489997
   6 C    8 O           8     1.3774202     1.4107331     1.3384865


optimized geometry written to: xtbopt.xyz


           -------------------------------------------------
          | TOTAL ENERGY              -99.328059178275 Eh   |
          | GRADIENT NORM               0.003219036982 Eh/α |
          | HOMO-LUMO GAP               0.709838395355 eV   |
           -------------------------------------------------

------------------------------------------------------------------------
 * finished run on 2024/04/06 at 11:13:45.015     
------------------------------------------------------------------------
 total:
 * wall-time:     0 d,  0 h,  0 min,  0.468 sec
 *  cpu-time:     0 d,  0 h,  0 min,  0.437 sec
 * ratio c/w:     0.934 speedup
 SCF:
 * wall-time:     0 d,  0 h,  0 min,  0.118 sec
 *  cpu-time:     0 d,  0 h,  0 min,  0.118 sec
 * ratio c/w:     0.999 speedup
 ANC optimizer:
 * wall-time:     0 d,  0 h,  0 min,  0.301 sec
 *  cpu-time:     0 d,  0 h,  0 min,  0.294 sec
 * ratio c/w:     0.975 speedup

