25
 energy: -41.981901985420 gnorm: 0.029446649895 xtb: 6.6.1 (8d0f1dd)
C            3.58181964307739        1.15288963324914        0.34960555940503
N            2.26294557890072        0.55144370698431        0.23382389523993
C            2.15163778692077       -0.60551160076843       -0.36836093330277
N            1.15942711984646       -1.47078382684329       -0.83503806071532
C           -0.09720379255593       -1.99588745495646       -0.77053950383146
C            1.32289970814336        1.29017872263435        0.98927037591632
C            0.04107467018989        1.36310882437457        0.42398604808045
O            0.69899637337308        2.46324146831118        0.23987424033533
N           -1.08716450436026        0.86368520458975        0.08439170934893
C           -2.13228236147698        1.66329990486864       -0.54489597715485
C           -1.54832309856176       -0.42550699894266        0.63695360982353
O           -2.42187184291494       -0.39409697940781        1.44624726117527
N           -1.10464119943692       -1.57992330302058        0.02237327188067
C           -2.07071178701455       -2.67225091247805        0.24737529025547
H            3.93625213171593        1.06742171859099        1.37682946526197
H            4.29733479080178        0.69695275886589       -0.32965825006422
H            3.48405700491186        2.21423282532395        0.11734484268947
H            3.12377210191339       -1.01067340389891       -0.63563110198472
H           -1.74742841449982        2.65938222753183       -0.74930930777782
H           -2.43747786926897        1.18442757099591       -1.47587735492570
H           -2.98882572820554        1.72901611968776        0.12700576619099
H           -2.09839825940174       -2.92297370862157        1.30653986694552
H           -1.74711432993042       -3.53509444103473       -0.32763993979474
H           -3.06841273322582       -2.36603375096995       -0.06499406850222
H            1.65007052515961       -2.10230576346679       -1.46850508659626
25
 energy: -41.985614217401 gnorm: 0.020795491912 xtb: 6.6.1 (8d0f1dd)
C            3.58404402024507        1.15339266445682        0.35517218416431
N            2.27470131674414        0.53492571211840        0.21975744472136
C            2.18049227718413       -0.61156119473775       -0.39025552098098
N            1.17892279306547       -1.46470326628231       -0.83273700194817
C           -0.08536001392214       -1.95210556297851       -0.74779525694432
C            1.30305217595148        1.22452316296412        0.97268177213517
C            0.02782075123052        1.33610371380726        0.40806985874122
O            0.70388282598365        2.42791863809297        0.24565195402196
N           -1.11066466390025        0.86364162806309        0.07616438604406
C           -2.14740084470260        1.67389684696050       -0.55003051733830
C           -1.57184640181788       -0.41412510787537        0.64281235314871
O           -2.44591118042897       -0.38555076375847        1.45080562082484
N           -1.10210100585922       -1.56066812909530        0.04254043510788
C           -2.05939363035289       -2.66603002700981        0.25432978444662
H            3.93127914035080        1.06248365831666        1.38459706501357
H            4.30916577430086        0.70921342784428       -0.32177246989336
H            3.47760622031675        2.21533298798331        0.12991456332345
H            3.15206869147484       -1.01670882235155       -0.65502479206561
H           -1.75117962066266        2.66586384093253       -0.75482680092730
H           -2.45591659101589        1.19471104989797       -1.47918677644368
H           -3.00099732333475        1.74579579826165        0.12430597512911
H           -2.09004630907767       -2.92227274678254        1.31209915056280
H           -1.73001498823555       -3.52440355109231       -0.32379524648670
H           -3.05892312886522       -2.36613403000556       -0.05814934918836
H            1.64715122942857       -2.10530138613102       -1.47415719726944
25
 energy: -41.988624152951 gnorm: 0.015559343205 xtb: 6.6.1 (8d0f1dd)
C            3.58185641307436        1.15516711330216        0.36986570864306
N            2.29264225153822        0.50051284443095        0.21076080633711
C            2.22476825343641       -0.63750135871785       -0.41215754581492
N            1.20294249398404       -1.46016927443611       -0.84057904009390
C           -0.06562235079575       -1.90277756751772       -0.71409794808325
C            1.27340667057909        1.12544505990594        0.94184235310953
C            0.01744341285308        1.29689791536354        0.36391284224753
O            0.71339445627521        2.38605598183695        0.25834324563219
N           -1.14515762695915        0.86823559203196        0.05367496111040
C           -2.17504129825506        1.69928104054173       -0.55264308971214
C           -1.60133800341501       -0.39525569611980        0.64442107313351
O           -2.48644352180598       -0.36624717639254        1.44042512540353
N           -1.09092694556040       -1.53671826748692        0.07200020813496
C           -2.03493172335248       -2.65897253538706        0.26956735219055
H            3.91990415516442        1.06072323323039        1.40203748554271
H            4.32134391105803        0.72878545840502       -0.30342072349628
H            3.45660995456856        2.21643811656843        0.15099640580225
H            3.19307846355583       -1.03409448843812       -0.69825880070578
H           -1.76446831692123        2.68575142790508       -0.75664025457743
H           -2.49501493804906        1.22599975073497       -1.48070817628820
H           -3.02206680834631        1.77806013699029        0.12834587967374
H           -2.06700956596595       -2.92117805081723        1.32583612315436
H           -1.69461581524098       -3.50888819194321       -0.31396187484624
H           -3.03648470911337       -2.36680490510698       -0.04412376698011
H            1.64216270179401       -2.12050761728486       -1.48426673161839
25
 energy: -41.989844584123 gnorm: 0.012179238766 xtb: 6.6.1 (8d0f1dd)
C            3.57380467159381        1.15395462046029        0.38570859338370
N            2.30102022451840        0.47445730836791        0.20260399500016
C            2.25389309609719       -0.66080019499703       -0.43190548828576
N            1.22073544190169       -1.47417693206227       -0.84901823500591
C           -0.05069026529044       -1.88851722900200       -0.69626185446538
C            1.25274216162287        1.06022932168325        0.91085841740057
C            0.01480767679296        1.27392468832280        0.31982980531215
O            0.72087038852765        2.36350401953146        0.26204901015411
N           -1.16814063144787        0.87781433783211        0.03132769362732
C           -2.19636168653615        1.72995646854956       -0.54778996082795
C           -1.61827401316918       -0.38153313897247        0.63121785081073
O           -2.52092541943694       -0.35230088489316        1.40821985635003
N           -1.07686392406648       -1.52559197253197        0.08581383605959
C           -2.00978601136821       -2.65713279178993        0.28751418706347
H            3.90120180415359        1.05902462739509        1.42146268261947
H            4.32858189833057        0.74383014280769       -0.28133488576325
H            3.43132134764079        2.21396315386500        0.17134924030360
H            3.22169756957824       -1.05258802764154       -0.72365075255270
H           -1.77827838595146        2.71435678903280       -0.74508604841944
H           -2.53433796121358        1.27191673830222       -1.47808968512021
H           -3.03447506180644        1.80929918662738        0.14387300538690
H           -2.03795436275275       -2.91753517435953        1.34410189691277
H           -1.66084296261512       -3.50329440610684       -0.29568673938856
H           -3.01394709946319       -2.37399920648549       -0.02615590321111
H            1.64063301846048       -2.14052290233635       -1.49977889944557
25
 energy: -41.990847886931 gnorm: 0.010310401937 xtb: 6.6.1 (8d0f1dd)
C            3.56090052563920        1.14736997034870        0.40514761872886
N            2.30393857867837        0.44964966608515        0.19373645465810
C            2.27558644263985       -0.68335325635045       -0.45219902702885
N            1.23490753481564       -1.49055997543939       -0.86775500829765
C           -0.03309922877929       -1.89250323914426       -0.68504549511422
C            1.23237268377815        1.00891780012836        0.87025494665983
C            0.01314528720497        1.25862437285312        0.26851670266219
O            0.72477964138439        2.34764036510853        0.25337901845300
N           -1.18771582345668        0.89094129299968        0.00432510392794
C           -2.21570809541110        1.76974818305883       -0.53587094067299
C           -1.63222063220963       -0.36949064577599        0.60146438318863
O           -2.56238297667865       -0.34368958738145        1.34799644602412
N           -1.05745481390493       -1.52006986983196        0.09130619740552
C           -1.97795779673405       -2.65908088484663        0.31232081315215
H            3.87268397056511        1.05170604894408        1.44598265024093
H            4.33359555628845        0.75355467109223       -0.25148828763373
H            3.40320170830867        2.20596861808496        0.19497760789230
H            3.24386054441682       -1.07329604430543       -0.74079970519162
H           -1.79105829482911        2.75424052960187       -0.71718293015045
H           -2.57815775581559        1.33877319863703       -1.47165265612233
H           -3.04085188956237        1.84279512967156        0.17239296452337
H           -1.99725320362136       -2.90899795334058        1.37139429393625
H           -1.62222373961062       -3.50688644870643       -0.26386743438201
H           -2.98679378167484       -2.39010714129620        0.00076961144158
H            1.64433707266892       -2.16365625859637       -1.51693171040222
25
 energy: -41.991771929445 gnorm: 0.012128629889 xtb: 6.6.1 (8d0f1dd)
C            3.54616639552067        1.13612265646397        0.42576982103733
N            2.30194842458236        0.42981854929521        0.18341815453077
C            2.28860115213717       -0.70111339015627       -0.47195797305307
N            1.24663315878253       -1.51000445418471       -0.88884821364557
C           -0.01648631866578       -1.90971143624061       -0.68232576957059
C            1.21354695505635        0.97686912383488        0.82441387543343
C            0.00975462099600        1.25230322922704        0.21792488757733
O            0.72321765117057        2.33968341488472        0.23440995910478
N           -1.20305940468521        0.90424958665613       -0.02493552881323
C           -2.23033167864332        1.81337990151532       -0.51812561734517
C           -1.64599931532922       -0.36057007614182        0.55564698273244
O           -2.61000376629327       -0.34413538200071        1.26255507406435
N           -1.03872418600117       -1.51837757834096        0.08610571902204
C           -1.94352144609710       -2.66456323710999        0.34255942576473
H            3.83830506145708        1.03741913000853        1.47249158829401
H            4.33660868743068        0.75566386793142       -0.21703364691369
H            3.37998942499678        2.19391296977456        0.21963282506958
H            3.25914021489160       -1.09057674080038       -0.75050007413820
H           -1.79832496239399        2.79945606948597       -0.67377748889212
H           -2.61821549672147        1.41956693041834       -1.46176446505038
H           -3.04082325750461        1.87246626799661        0.20905885502459
H           -1.94839584088167       -2.89293377346018        1.40697809570532
H           -1.58225862798389       -3.52025514117492       -0.21874036846134
H           -2.95924993008401       -2.41582038114161        0.03569604752597
H            1.65191399836310       -2.18461156514166       -1.53748054710464
25
 energy: -41.992598823795 gnorm: 0.013447913585 xtb: 6.6.1 (8d0f1dd)
C            3.53387793797093        1.12150704275136        0.44531838639915
N            2.29691732828836        0.41722721330487        0.17211135488496
C            2.29158811491042       -0.71009621899745       -0.49176313816583
N            1.25205110732146       -1.52202760201995       -0.91400794514484
C           -0.00484682370867       -1.93121948837119       -0.68825308171095
C            1.19761290836886        0.96344331825981        0.78190198688362
C            0.00307281677227        1.25348344814429        0.17612950228018
O            0.71760640053068        2.33956066655221        0.21368645048612
N           -1.21495623805365        0.91470537506677       -0.05394544429214
C           -2.23908601799738        1.85378636291972       -0.49900788809578
C           -1.66263250853485       -0.35556444098625        0.49830443527539
O           -2.65784037251805       -0.35370923349131        1.16399680228793
N           -1.02631848811756       -1.51862223049426        0.07196684873238
C           -1.91007609174552       -2.67297962161416        0.37610353852708
H            3.80467103588049        1.01497773983826        1.49740684497015
H            4.33895055329311        0.74957496153108       -0.18292799564842
H            3.36909564147795        2.18030690561621        0.24455731254221
H            3.26537561332176       -1.10304058886541       -0.75343074993045
H           -1.79756550823489        2.84099296523730       -0.62299698219239
H           -2.64713750545956        1.50125490876147       -1.45047488948465
H           -3.03674129534288        1.89353473515086        0.24388500909901
H           -1.89627814690138       -2.86836235172521        1.44815467179044
H           -1.54231733141664       -3.54135428852342       -0.16265903274358
H           -2.93432064511924       -2.45071476080079        0.07579772046430
H            1.65972902911400       -2.19842627564598       -1.55868209931526
25
 energy: -41.993284710970 gnorm: 0.012056489112 xtb: 6.6.1 (8d0f1dd)
C            3.52655778368728        1.10552279516537        0.46261894980365
N            2.29168578896932        0.41060781322837        0.15989410915194
C            2.28915291219405       -0.71163982552812       -0.51214110198860
N            1.25328606643298       -1.52575432738982       -0.93691806815745
C            0.00102790257090       -1.94696747827148       -0.69654590730498
C            1.18454786066558        0.95920004910420        0.74800962506799
C           -0.00659110813038        1.25608781685923        0.14563237469905
O            0.71047655578327        2.34248978261904        0.19930530597014
N           -1.22605958582079        0.92009606396166       -0.08110477693661
C           -2.24397375801238        1.88611749963969       -0.48249239434017
C           -1.68369025543982       -0.35369927492850        0.43953650526433
O           -2.70648801863301       -0.36652737392136        1.06381414582100
N           -1.02138788967547       -1.51847034292305        0.05734147660152
C           -1.87924660807297       -2.68142937179479        0.41007196531466
H            3.77640440605474        0.98654908121103        1.51871056773459
H            4.34213525753912        0.73684672769705       -0.15255189120045
H            3.37148219516442        2.16737975395565        0.26920671041599
H            3.26589629588772       -1.10810802638303       -0.75933764123713
H           -1.79020722455492        2.87182560231585       -0.57438784112725
H           -2.66633856771752        1.57411084800889       -1.44010428596405
H           -3.03237131907695        1.90683735204052        0.27024346864049
H           -1.84782871469724       -2.83731102873807        1.48939332571110
H           -1.49990006122170       -3.56254666105409       -0.10130425616683
H           -2.91155733058270       -2.49045978323346        0.11508130084848
H            1.66341893078631       -2.20251915004198       -1.58080004872284
25
 energy: -41.993887193335 gnorm: 0.011279386325 xtb: 6.6.1 (8d0f1dd)
C            3.52351231083991        1.08851318787265        0.47895992420661
N            2.28752037413671        0.40756591120566        0.14707615303448
C            2.28532855882946       -0.70835355450658       -0.53445321028363
N            1.25139985540840       -1.51965076886562       -0.95887614926275
C            0.00418217475793       -1.95317784840736       -0.70070513455773
C            1.17313534812016        0.95593986346440        0.72155515643966
C           -0.01761292651330        1.25446854126316        0.12273229198793
O            0.70256928874555        2.34277553597290        0.19140023583649
N           -1.23799687766644        0.91993139462540       -0.10723711279085
C           -2.24705205422093        1.91072125756278       -0.46951140704707
C           -1.70881511152232       -0.35426512511676        0.38453353473281
O           -2.75983882453368       -0.37766863901680        0.96279380056505
N           -1.01947173963094       -1.51780069413253        0.05083352356974
C           -1.84886998235511       -2.68786416079514        0.44502918490517
H            3.75282278786044        0.95361593206019        1.53773373134286
H            4.34631872026312        0.71862282902616       -0.12502243866769
H            3.38352696257737        2.15469812788744        0.29495646596230
H            3.26359644837505       -1.10633675353575       -0.77468718471749
H           -1.77900846937442        2.89185860968290       -0.53133675325530
H           -2.68146541538818        1.63837579609898       -1.43190630372437
H           -3.02908552247862        1.91573031700547        0.28893842966858
H           -1.80683859650850       -2.80305589165238        1.52895811210087
H           -1.45100067606052       -3.57813938989455       -0.03668161144007
H           -2.88678049600734       -2.53115938110166        0.15073884116717
H            1.66035537644589       -2.19710655510424       -1.60465046187425
25
 energy: -41.994484051974 gnorm: 0.010109703845 xtb: 6.6.1 (8d0f1dd)
C            3.52282129624118        1.06966797327425        0.49629998112452
N            2.28356741341186        0.40720579817003        0.13528943486752
C            2.28006012736938       -0.70069847609018       -0.55980517465608
N            1.24547331657093       -1.50374170044993       -0.98242907987535
C            0.00501156036104       -1.94925955842068       -0.70138543291557
C            1.16288077220050        0.95208249087575        0.70326418781225
C           -0.02887597192597        1.24651293903539        0.10633505220622
O            0.69273328524734        2.33873403657802        0.19083295483209
N           -1.25042742713348        0.91499860346825       -0.13319528771405
C           -2.24750090215611        1.92891578693371       -0.46116231404341
C           -1.73694447562415       -0.35770106896775        0.33122831083480
O           -2.81347089057830       -0.38794689902675        0.85922242397592
N           -1.01878070322119       -1.51683937832928        0.05297510989902
C           -1.81743854861302       -2.69163420077079        0.48386470535532
H            3.73202195929510        0.91634508977016        1.55630739390619
H            4.34999342980812        0.69469145388203       -0.09851586715197
H            3.40182743000207        2.14066420128750        0.32385117326565
H            3.25836385949956       -1.09693058455247       -0.80276553424704
H           -1.76396635107788        2.90275375478096       -0.49507494907093
H           -2.69133945843634        1.69512727566435       -1.42722796883537
H           -3.02647005238081        1.92106440257315        0.29932723481548
H           -1.77418889310106       -2.76428809308292        1.57013867321671
H           -1.39424251203954       -3.58775918121438        0.03558260811464
H           -2.85823245422828       -2.57369846325002        0.18354943995749
H            1.64755570460859       -2.18002766053972       -1.63533545777558
25
 energy: -41.994969288025 gnorm: 0.019497993599 xtb: 6.6.1 (8d0f1dd)
C            3.52057100640577        1.04911174213163        0.51613653642291
N            2.28033497816135        0.40397380879151        0.12456900810197
C            2.27735332213087       -0.69229668199628       -0.59295470476773
N            1.23814182434289       -1.48323786660472       -1.01258816465015
C            0.00921156568356       -1.94066179893137       -0.69479631433646
C            1.15112459501722        0.93555099567044        0.68921028661310
C           -0.03921487015570        1.22953254879879        0.09182586109110
O            0.68097552193584        2.32782409687565        0.20275729265211
N           -1.26389331781813        0.90927903156590       -0.16123506809015
C           -2.24591589692198        1.94889022447131       -0.45630429263921
C           -1.76862994594753       -0.36190160444042        0.27569250288777
O           -2.88293269687219       -0.39822850093953        0.73564835319139
N           -1.01426781476416       -1.51463576056475        0.06298639080533
C           -1.78037219644081       -2.69318786298989        0.53177925672409
H            3.71023858474286        0.87639808250874        1.57645733669795
H            4.35223116758137        0.67102654979459       -0.07150979675713
H            3.41596352348485        2.12414735810822        0.35791694699755
H            3.25454212059602       -1.08379157300225       -0.84657498925972
H           -1.74614990431840        2.91508956308215       -0.45967104890907
H           -2.69868600400931        1.75616731273009       -1.42788072468367
H           -3.02376147081177        1.92895012238414        0.30545245270156
H           -1.74437422007093       -2.71797881782979        1.62071976119636
H           -1.32601009021088       -3.59465141608689        0.12402829614229
H           -2.82227763830975       -2.62091118830406        0.21762902215061
H            1.62622937066830       -2.15621982362459       -1.67812258238438
25
 energy: -41.995372033531 gnorm: 0.018242608619 xtb: 6.6.1 (8d0f1dd)
C            3.52221439342383        1.02850336405961        0.53361881278393
N            2.27545356525943        0.40936508989051        0.12273422036834
C            2.26443119287968       -0.67175420031127       -0.62360439814269
N            1.21766102055903       -1.44470040298238       -1.04360851047437
C            0.00401515548665       -1.91660269563450       -0.69091066322765
C            1.14747471196153        0.93152989925923        0.70326229643830
C           -0.04627449055834        1.20716247155532        0.10243642899422
O            0.66565342436075        2.31346090719724        0.22713104440225
N           -1.27079189579158        0.89647909528023       -0.17680801896784
C           -2.23516002905858        1.94573020493295       -0.46552392538005
C           -1.79162097920611       -0.37422895288155        0.23583405212880
O           -2.91116670644616       -0.41402857000707        0.64818008943205
N           -1.01595403587462       -1.51238982051920        0.07968012007237
C           -1.75391168185511       -2.68670142384521        0.57584867521827
H            3.69969821346045        0.83719948659994        1.59087928572436
H            4.35024637778242        0.64053580591913       -0.05382398299281
H            3.43827286515208        2.10708989084541        0.39045883234182
H            3.23797422507666       -1.05558272312392       -0.90197987519187
H           -1.72306160177194        2.90122789936638       -0.45232974545264
H           -2.68072830304728        1.77503720316094       -1.43833485273799
H           -3.02289625783343        1.92292953051221        0.28520131301108
H           -1.74291396838918       -2.66800599474254        1.66292857304568
H           -1.26546153612577       -3.58684822258542        0.21011519844961
H           -2.78992687838838       -2.65838805595275        0.23849263722296
H            1.58720473304316       -2.10878124439466       -1.72870598916773
25
 energy: -41.995816543488 gnorm: 0.017146923684 xtb: 6.6.1 (8d0f1dd)
C            3.51601533272552        1.01261329099089        0.54943694972245
N            2.27193883109639        0.40203964153090        0.11781883154988
C            2.26164490796086       -0.66524270543708       -0.65277656470316
N            1.21054904443850       -1.43283519444474       -1.07063661864050
C            0.01236397611080       -1.91790651716223       -0.68078967407298
C            1.13772346515492        0.90926475127233        0.69697812141966
C           -0.05153066856140        1.19199883515928        0.09431398603753
O            0.65578338920467        2.30149327446938        0.24373609588368
N           -1.27864488867135        0.89667091282602       -0.19558693221264
C           -2.23233831413854        1.96532751694974       -0.46467834103958
C           -1.81184872523777       -0.37658271137233        0.19160904746695
O           -2.95919278770632       -0.42569607781090        0.54935715456816
N           -1.00799426735494       -1.51067132152151        0.08546826956458
C           -1.72449924161394       -2.68742291567057        0.61640246267230
H            3.68178817061476        0.80821978730181        1.60728466970856
H            4.34927341336931        0.62959581236450       -0.03472766212801
H            3.43717685901958        2.09289494594051        0.41826923494433
H            3.23360519147287       -1.04341059446470       -0.94342064372099
H           -1.71044603285344        2.91835334295238       -0.42544432754854
H           -2.67959324042598        1.82320291231741       -1.44625481835885
H           -3.02214999353666        1.93349595945719        0.28525374624570
H           -1.72493155292894       -2.62990429838956        1.70625469199508
H           -1.21380584722971       -3.59293673902265        0.28718034331898
H           -2.75883837097890       -2.69429369086127        0.26433308288974
H            1.56838286416875       -2.09002967577622       -1.76820948766399
25
 energy: -41.996228470372 gnorm: 0.021187399140 xtb: 6.6.1 (8d0f1dd)
C            3.51000522915575        1.00913156005762        0.55108385683020
N            2.27013136644051        0.39572468540905        0.12100584850290
C            2.25893815573460       -0.65941891247820       -0.66563303156890
N            1.20664231848632       -1.43337491606949       -1.07794461545675
C            0.02304713784280       -1.92772630563921       -0.66512469221557
C            1.13672527513748        0.89154784529884        0.70838608963974
C           -0.04856962052618        1.18565765623052        0.10531722598077
O            0.65143170363088        2.29391365313745        0.26342304763554
N           -1.27436088154295        0.90027979580090       -0.18992516363898
C           -2.22800295801554        1.96611833780726       -0.47156133796906
C           -1.80521474562655       -0.37726250032156        0.19017105381784
O           -2.96344844109169       -0.43476691494260        0.52488279739150
N           -0.99857556618896       -1.50930483113916        0.08965544295366
C           -1.72108528155947       -2.68058225846386        0.62753778540361
H            3.67975922055910        0.80280673599948        1.60849766995363
H            4.34505015040027        0.63651949616494       -0.03701230858181
H            3.42293722136189        2.08819654956055        0.42556321954641
H            3.22872658578401       -1.03064200524300       -0.97042720835968
H           -1.71085156572335        2.92257782485276       -0.42830803096789
H           -2.66259506553944        1.81896168905830       -1.45989245772719
H           -3.02567623433755        1.93614723249546        0.27155867864125
H           -1.73422029786199       -2.62113742329203        1.71397779775275
H           -1.21063411630722       -3.58256476580989        0.30842829013243
H           -2.74879730159338       -2.69010120211993        0.27074220876155
H            1.55906922547970       -2.08246248475561       -1.78323054855958
25
 energy: -41.996777525827 gnorm: 0.018384109243 xtb: 6.6.1 (8d0f1dd)
C            3.50065333242851        0.99568408731979        0.56121507911557
N            2.26459252233607        0.38437412346266        0.12403748187013
C            2.24889981751643       -0.64345571938552       -0.70021241175399
N            1.19438114331190       -1.42397148283578       -1.10264836941579
C            0.03814623375430       -1.94115949515670       -0.64107225725993
C            1.13144372810831        0.85827418655537        0.73082267597841
C           -0.04641350085206        1.17371655415038        0.12166510263192
O            0.64519699536949        2.27915133284886        0.30195885121812
N           -1.27185529522759        0.90747879838621       -0.18999814671380
C           -2.22182359439967        1.97644488182244       -0.48352221330189
C           -1.80881291680697       -0.37614595933586        0.16464493639721
O           -2.96715502913966       -0.44637152117728        0.46953377047308
N           -0.98818451332198       -1.50754697704031        0.09345185185121
C           -1.70738117097412       -2.67555290989091        0.65685031110532
H            3.67411487903483        0.77496298480803        1.61695871225366
H            4.33831175947825        0.64059356775462       -0.03397421445025
H            3.40719677987355        2.07645021662173        0.45390717465031
H            3.21477562971435       -1.00158288058949       -1.03235476174603
H           -1.70742138264504        2.93599431467223       -0.42663723790226
H           -2.63618508512663        1.82770757267716       -1.48377328803181