      -----------------------------------------------------------      
     |                   =====================                   |     
     |                           x T B                           |     
     |                   =====================                   |     
     |                         S. Grimme                         |     
     |          Mulliken Center for Theoretical Chemistry        |     
     |                    University of Bonn                     |     
      -----------------------------------------------------------      

   * xtb version 6.6.1 (8d0f1dd) compiled by 'conda@1efc2f54142f' on 2023-08-01

   xtb is free software: you can redistribute it and/or modify it under
   the terms of the GNU Lesser General Public License as published by
   the Free Software Foundation, either version 3 of the License, or
   (at your option) any later version.
   
   xtb is distributed in the hope that it will be useful,
   but WITHOUT ANY WARRANTY; without even the implied warranty of
   MERCHANTABILITY or FITNESS FOR A PARTICULAR PURPOSE.  See the
   GNU Lesser General Public License for more details.
   
   Cite this work as:
   * C. Bannwarth, E. Caldeweyher, S. Ehlert, A. Hansen, P. Pracht,
     J. Seibert, S. Spicher, S. Grimme, WIREs Comput. Mol. Sci., 2020, 11,
     e01493. DOI: 10.1002/wcms.1493
   
   for GFN2-xTB:
   * C. Bannwarth, S. Ehlert and S. Grimme., J. Chem. Theory Comput., 2019,
     15, 1652-1671. DOI: 10.1021/acs.jctc.8b01176
   for GFN1-xTB:
   * S. Grimme, C. Bannwarth, P. Shushkov, J. Chem. Theory Comput., 2017,
     13, 1989-2009. DOI: 10.1021/acs.jctc.7b00118
   for GFN0-xTB:
   * P. Pracht, E. Caldeweyher, S. Ehlert, S. Grimme, ChemRxiv, 2019, preprint.
     DOI: 10.26434/chemrxiv.8326202.v1
   for GFN-FF:
   * S. Spicher and S. Grimme, Angew. Chem. Int. Ed., 2020, 59, 15665-15673.
     DOI: 10.1002/anie.202004239
   
   for ALPB and GBSA implicit solvation:
   * S. Ehlert, M. Stahn, S. Spicher, S. Grimme, J. Chem. Theory Comput.,
     2021, 17, 4250-4261. DOI: 10.1021/acs.jctc.1c00471
   
   for DFT-D4:
   * E. Caldeweyher, C. Bannwarth and S. Grimme, J. Chem. Phys., 2017,
     147, 034112. DOI: 10.1063/1.4993215
   * E. Caldeweyher, S. Ehlert, A. Hansen, H. Neugebauer, S. Spicher,
     C. Bannwarth and S. Grimme, J. Chem. Phys., 2019, 150, 154122.
     DOI: 10.1063/1.5090222
   * E. Caldeweyher, J.-M. Mewes, S. Ehlert and S. Grimme, Phys. Chem. Chem. Phys.
     2020, 22, 8499-8512. DOI: 10.1039/D0CP00502A
   
   for sTDA-xTB:
   * S. Grimme and C. Bannwarth, J. Chem. Phys., 2016, 145, 054103.
     DOI: 10.1063/1.4959605
   
   in the mass-spec context:
   * V. Asgeirsson, C. Bauer and S. Grimme, Chem. Sci., 2017, 8, 4879.
     DOI: 10.1039/c7sc00601b
   * J. Koopman and S. Grimme, ACS Omega 2019, 4, 12, 15120-15133.
     DOI: 10.1021/acsomega.9b02011
   
   for metadynamics refer to:
   * S. Grimme, J. Chem. Theory Comput., 2019, 155, 2847-2862
     DOI: 10.1021/acs.jctc.9b00143
   
   for SPH calculations refer to:
   * S. Spicher and S. Grimme, J. Chem. Theory Comput., 2021, 17, 1701-1714
     DOI: 10.1021/acs.jctc.0c01306
   
   with help from (in alphabetical order)
   P. Atkinson, C. Bannwarth, F. Bohle, G. Brandenburg, E. Caldeweyher
   M. Checinski, S. Dohm, S. Ehlert, S. Ehrlich, I. Gerasimov, C. Hölzer
   A. Katbashev, J. Koopman, C. Lavigne, S. Lehtola, F. März, M. Müller,
   F. Musil, H. Neugebauer, J. Pisarek, C. Plett, P. Pracht, F. Pultar,
   J. Seibert, P. Shushkov, S. Spicher, M. Stahn, M. Steiner, T. Strunk,
   J. Stückrath, T. Rose, and J. Unsleber
   
 * started run on 2024/04/06 at 11:17:01.105     

           -------------------------------------------------
          |                Calculation Setup                |
           -------------------------------------------------

          program call               : xtb struc.xyz --opt loose --input .xc1 --gfn2
          hostname                   : n-62-30-23
          coordinate file            : struc.xyz
          omp threads                :                     1

   ID    Z sym.   atoms
    1    7 N      1, 17
    2    6 C      2-6, 8, 9, 11-16, 18-23, 25, 26, 28-33
    3    8 O      7, 10, 24, 27
    4    1 H      34-72
constraining bond 24 54 to    3.6333300 Å, actual value:    2.7212264 Å

           -------------------------------------------------
          |                 G F N 2 - x T B                 |
           -------------------------------------------------

        Reference                      10.1021/acs.jctc.8b01176
      * Hamiltonian:
        H0-scaling (s, p, d)           1.850000    2.230000    2.230000
        zeta-weighting                 0.500000
      * Dispersion:
        s8                             2.700000
        a1                             0.520000
        a2                             5.000000
        s9                             5.000000
      * Repulsion:
        kExp                           1.500000    1.000000
        rExp                           1.000000
      * Coulomb:
        alpha                          2.000000
        third order                    shell-resolved
        anisotropic                    true
        a3                             3.000000
        a5                             4.000000
        cn-shift                       1.200000
        cn-exp                         4.000000
        max-rad                        5.000000


          ...................................................
          :                      SETUP                      :
          :.................................................:
          :  # basis functions                 171          :
          :  # atomic orbitals                 171          :
          :  # shells                          105          :
          :  # electrons                       180          :
          :  max. iterations                   250          :
          :  Hamiltonian                  GFN2-xTB          :
          :  restarted?                      false          :
          :  GBSA solvation                  false          :
          :  PC potential                    false          :
          :  electronic temp.         5000.0000000     K    :
          :  accuracy                    1.0000000          :
          :  -> integral cutoff          0.2500000E+02      :
          :  -> integral neglect         0.1000000E-07      :
          :  -> SCF convergence          0.1000000E-05 Eh   :
          :  -> wf. convergence          0.1000000E-03 e    :
          :  Broyden damping             0.4000000          :
          ...................................................

 iter      E             dE          RMSdq      gap      omega  full diag
   1   -100.5973919 -0.100597E+03  0.374E+00    3.20       0.0  T
   2   -100.7362642 -0.138872E+00  0.221E+00    1.08       1.0  T
   3   -100.7049001  0.313641E-01  0.141E+00    3.29       1.0  T
   4   -100.7721690 -0.672689E-01  0.526E-01    1.50       1.0  T
   5   -100.7894292 -0.172602E-01  0.190E-01    1.98       1.0  T
   6   -100.7911978 -0.176856E-02  0.792E-02    1.77       1.0  T
   7   -100.7914750 -0.277198E-03  0.375E-02    1.83       1.0  T
   8   -100.7914914 -0.164582E-04  0.140E-02    1.83       1.0  T
   9   -100.7914976 -0.616739E-05  0.474E-03    1.82       2.5  T
  10   -100.7914988 -0.118227E-05  0.172E-03    1.82       6.8  T
  11   -100.7914989 -0.139928E-06  0.766E-04    1.82      15.4  T
  12   -100.7914989 -0.773143E-08  0.318E-04    1.82      37.0  T

   *** convergence criteria satisfied after 12 iterations ***

         #    Occupation            Energy/Eh            Energy/eV
      -------------------------------------------------------------
         1        2.0000           -0.8078051             -21.9815
       ...           ...                  ...                  ...
        84        1.9966           -0.5157491             -14.0342
        85        1.9959           -0.5128261             -13.9547
        86        1.9840           -0.4911498             -13.3649
        87        1.9795           -0.4872543             -13.2589
        88        1.9640           -0.4782114             -13.0128
        89        1.8920           -0.4602041             -12.5228
        90        1.8557           -0.4553147             -12.3897 (HOMO)
        91        0.3166           -0.3884132             -10.5693 (LUMO)
        92        0.0218           -0.3434697              -9.3463
        93        0.0041           -0.3169887              -8.6257
        94        0.0034           -0.3139726              -8.5436
        95        0.0029           -0.3112618              -8.4699
       ...           ...                  ...                  ...
       171                          0.5822580              15.8440
      -------------------------------------------------------------
                  HL-Gap            0.0669015 Eh            1.8205 eV
             Fermi-level           -0.4148687 Eh          -11.2892 eV

 SCC (total)                   0 d,  0 h,  0 min,  0.192 sec
 SCC setup                      ...        0 min,  0.001 sec (  0.778%)
 Dispersion                     ...        0 min,  0.002 sec (  1.277%)
 classical contributions        ...        0 min,  0.001 sec (  0.357%)
 integral evaluation            ...        0 min,  0.018 sec (  9.540%)
 iterations                     ...        0 min,  0.099 sec ( 51.459%)
 molecular gradient             ...        0 min,  0.069 sec ( 36.247%)
 printout                       ...        0 min,  0.001 sec (  0.333%)

         :::::::::::::::::::::::::::::::::::::::::::::::::::::
         ::                     SUMMARY                     ::
         :::::::::::::::::::::::::::::::::::::::::::::::::::::
         :: total energy             -99.552675219908 Eh    ::
         :: gradient norm              0.248392770240 Eh/a0 ::
         :: HOMO-LUMO gap              1.820481192090 eV    ::
         ::.................................................::
         :: SCC energy              -100.791498925389 Eh    ::
         :: -> isotropic ES            0.109302908418 Eh    ::
         :: -> anisotropic ES          0.005415138735 Eh    ::
         :: -> anisotropic XC          0.042392697176 Eh    ::
         :: -> dispersion             -0.075527661009 Eh    ::
         :: repulsion energy           1.386151658689 Eh    ::
         :: add. restraining          -0.148544305714 Eh    ::
         :: total charge               1.000000000108 e     ::
         :::::::::::::::::::::::::::::::::::::::::::::::::::::

      ----------------------------------------------------------- 
     |                   =====================                   |
     |                        A N C O P T                        |
     |                   =====================                   |
     |               Approximate Normal Coordinate               |
     |                Rational Function Optimizer                |
      ----------------------------------------------------------- 

          ...................................................
          :                      SETUP                      :
          :.................................................:
          :   optimization level             loose          :
          :   max. optcycles                   200          :
          :   ANC micro-cycles                  20          :
          :   degrees of freedom               210          :
          :.................................................:
          :   RF solver                   davidson          :
          :   write xtbopt.log                true          :
          :   linear?                        false          :
          :   energy convergence         0.5000000E-04 Eh   :
          :   grad. convergence          0.4000000E-02 Eh/α :
          :   maxmium RF displ.          1.0000000          :
          :   Hlow (freq-cutoff)         0.1000000E-01      :
          :   Hmax (freq-cutoff)         5.0000000          :
          :   S6 in model hess.         20.0000000          :
          ...................................................

generating ANC from model Hessian ...
Using Lindh-Hessian (1995)
 Shifting diagonal of input Hessian by    4.4943604759819310E-002
 Lowest  eigenvalues of input Hessian
    0.010000    0.000000    0.000000    0.000000    0.000000    0.000000
    0.000000    0.045011    0.045066    0.045195    0.045290    0.045390
    0.045815    0.045943    0.046040    0.046194    0.046690    0.046965
 Highest eigenvalues
    2.070910    2.080902    2.089253    2.214387    2.218071    2.221999


........................................................................
.............................. CYCLE    1 ..............................
........................................................................

 iter      E             dE          RMSdq      gap      omega  full diag
   1   -100.7914989 -0.100791E+03  0.114E-04    1.82       0.0  T
   2   -100.7914989 -0.678995E-10  0.713E-05    1.82     165.2  T
   3   -100.7914989  0.665210E-10  0.496E-05    1.82     237.5  T
     SCC iter.                  ...        0 min,  0.027 sec
     gradient                   ...        0 min,  0.070 sec
 * total energy  :   -99.5526752 Eh     change       -0.4035485E-08 Eh
   gradient norm :     0.2483961 Eh/α   predicted     0.0000000E+00 (-100.00%)
   displ. norm   :     0.9350225 α      lambda       -0.2137758E+00
   maximum displ.:     0.8829505 α      in ANC's #1, #32, #81, ...

........................................................................
.............................. CYCLE    2 ..............................
........................................................................

 iter      E             dE          RMSdq      gap      omega  full diag
   1   -100.7852549 -0.100785E+03  0.437E-01    1.58       0.0  T
   2   -100.7858411 -0.586220E-03  0.303E-01    1.94       1.0  T
   3   -100.7840561  0.178501E-02  0.215E-01    1.52       1.0  T
   4   -100.7869814 -0.292534E-02  0.949E-02    1.85       1.0  T
   5   -100.7877823 -0.800895E-03  0.131E-02    1.76       1.0  T
   6   -100.7877884 -0.614798E-05  0.717E-03    1.76       1.6  T
   7   -100.7877894 -0.953470E-06  0.247E-03    1.76       4.8  T
   8   -100.7877896 -0.183481E-06  0.900E-04    1.76      13.1  T
   9   -100.7877896 -0.861310E-08  0.499E-04    1.76      23.6  T
     SCC iter.                  ...        0 min,  0.073 sec
     gradient                   ...        0 min,  0.069 sec
 * total energy  :   -99.7993380 Eh     change       -0.2466628E+00 Eh
   gradient norm :     0.3236875 Eh/α   predicted    -0.2003393E+00 ( -18.78%)
   displ. norm   :     0.9525244 α      lambda       -0.2847823E+00
   maximum displ.:     0.9077912 α      in ANC's #1, #32, #33, ...

........................................................................
.............................. CYCLE    3 ..............................
........................................................................

 iter      E             dE          RMSdq      gap      omega  full diag
   1   -100.6606590 -0.100661E+03  0.446E-01    1.63       0.0  T
   2   -100.6630086 -0.234963E-02  0.298E-01    1.88       1.0  T
   3   -100.6621234  0.885241E-03  0.182E-01    1.57       1.0  T
   4   -100.6629196 -0.796243E-03  0.128E-01    1.91       1.0  T
   5   -100.6644726 -0.155299E-02  0.247E-02    1.76       1.0  T
   6   -100.6644887 -0.160445E-04  0.113E-02    1.75       1.0  T
   7   -100.6644926 -0.394751E-05  0.354E-03    1.75       3.3  T
   8   -100.6644930 -0.425382E-06  0.159E-03    1.75       7.4  T
   9   -100.6644930 -0.133431E-07  0.689E-04    1.75      17.1  T
  10   -100.6644931 -0.112253E-07  0.260E-04    1.75      45.3  T
     SCC iter.                  ...        0 min,  0.081 sec
     gradient                   ...        0 min,  0.069 sec
 * total energy  :  -100.1009234 Eh     change       -0.3015854E+00 Eh
   gradient norm :     0.4078717 Eh/α   predicted    -0.2715832E+00 (  -9.95%)
   displ. norm   :     0.9254454 α      lambda       -0.3212450E+00
   maximum displ.:     0.8675787 α      in ANC's #1, #32, #33, ...

........................................................................
.............................. CYCLE    4 ..............................
........................................................................

 iter      E             dE          RMSdq      gap      omega  full diag
   1   -100.4541539 -0.100454E+03  0.116E+00    0.28       0.0  T
   2   -100.3592550  0.948989E-01  0.141E+00    2.76       1.0  T
   3   -100.5454873 -0.186232E+00  0.605E-01    1.37       1.0  T
   4   -100.5406963  0.479100E-02  0.352E-01    0.83       1.0  T
   5   -100.5475004 -0.680416E-02  0.178E-01    1.32       1.0  T
   6   -100.5504173 -0.291682E-02  0.659E-02    1.21       1.0  T
   7   -100.5507293 -0.312060E-03  0.248E-02    1.17       1.0  T
   8   -100.5507603 -0.309688E-04  0.879E-03    1.14       1.3  T
   9   -100.5507652 -0.485912E-05  0.388E-03    1.15       3.0  T
  10   -100.5507663 -0.117951E-05  0.150E-03    1.15       7.8  T
  11   -100.5507665 -0.127974E-06  0.583E-04    1.15      20.2  T
  12   -100.5507665 -0.929165E-08  0.214E-04    1.15      55.1  T
     SCC iter.                  ...        0 min,  0.096 sec
     gradient                   ...        0 min,  0.069 sec
 * total energy  :  -100.4782578 Eh     change       -0.3773345E+00 Eh
   gradient norm :     0.3550188 Eh/α   predicted    -0.2981879E+00 ( -20.98%)
   displ. norm   :     0.8027523 α      lambda       -0.2439207E+00
   maximum displ.:     0.4730208 α      in ANC's #1, #197, #120, ...

........................................................................
.............................. CYCLE    5 ..............................
........................................................................

 iter      E             dE          RMSdq      gap      omega  full diag
   1   -100.5384885 -0.100538E+03  0.781E-01    1.14       0.0  T
   2   -100.5425221 -0.403364E-02  0.621E-01    1.49       1.0  T
   3   -100.5533498 -0.108276E-01  0.431E-01    0.81       1.0  T
   4   -100.5563321 -0.298230E-02  0.320E-01    1.60       1.0  T
   5   -100.5692229 -0.128908E-01  0.746E-02    1.21       1.0  T
   6   -100.5695808 -0.357896E-03  0.336E-02    1.18       1.0  T
   7   -100.5696275 -0.467433E-04  0.109E-02    1.18       1.1  T
   8   -100.5696347 -0.719699E-05  0.520E-03    1.18       2.3  T
   9   -100.5696359 -0.114303E-05  0.261E-03    1.18       4.5  T
  10   -100.5696360 -0.164992E-06  0.795E-04    1.18      14.8  T
  11   -100.5696361 -0.471841E-07  0.252E-04    1.18      46.7  T
     SCC iter.                  ...        0 min,  0.088 sec
     gradient                   ...        0 min,  0.069 sec
 * total energy  :   -98.2881022 Eh     change        0.2190156E+01 Eh
   gradient norm :    15.6599940 Eh/α   predicted    -0.2005529E+00 (-109.16%)
   displ. norm   :     0.4172104 α      lambda       -0.6516233E+01
   maximum displ.:     0.3387458 α      in ANC's #1, #130, #132, ...

........................................................................
.............................. CYCLE    6 ..............................
........................................................................

 iter      E             dE          RMSdq      gap      omega  full diag
   1   -100.5564485 -0.100556E+03  0.344E-01    1.47       0.0  T
   2   -100.4891253  0.673232E-01  0.727E-01    0.46       1.0  T
   3   -100.5626575 -0.735322E-01  0.183E-01    1.36       1.0  T
   4   -100.5641298 -0.147230E-02  0.102E-01    1.20       1.0  T
   5   -100.5647361 -0.606354E-03  0.270E-02    1.19       1.0  T
   6   -100.5647870 -0.509074E-04  0.764E-03    1.20       1.5  T
   7   -100.5647872 -0.137139E-06  0.480E-03    1.21       2.5  T
   8   -100.5647880 -0.855956E-06  0.185E-03    1.20       6.4  T
   9   -100.5647882 -0.202223E-06  0.724E-04    1.20      16.3  T
  10   -100.5647882 -0.112167E-07  0.441E-04    1.20      26.7  T
     SCC iter.                  ...        0 min,  0.080 sec
     gradient                   ...        0 min,  0.069 sec
 * total energy  :  -100.5033501 Eh     change       -0.2215248E+01 Eh
   gradient norm :     0.6146391 Eh/α   predicted    -0.3825241E+01 (  72.68%)
   displ. norm   :     0.5713177 α      lambda       -0.9932109E-01
   maximum displ.:     0.1854800 α      in ANC's #197, #120, #47, ...

........................................................................
.............................. CYCLE    7 ..............................
........................................................................

 iter      E             dE          RMSdq      gap      omega  full diag
   1   -100.5722570 -0.100572E+03  0.460E-01    1.07       0.0  T
   2   -100.5683692  0.388780E-02  0.390E-01    1.56       1.0  T
   3   -100.5637295  0.463975E-02  0.374E-01    0.80       1.0  T
   4   -100.5768961 -0.131667E-01  0.207E-01    1.39       1.0  T
   5   -100.5801543 -0.325818E-02  0.267E-02    1.21       1.0  T
   6   -100.5802078 -0.534524E-04  0.121E-02    1.20       1.0  T
   7   -100.5802133 -0.554652E-05  0.478E-03    1.19       2.5  T
   8   -100.5802133  0.253725E-07  0.267E-03    1.19       4.4  T
   9   -100.5802137 -0.372525E-06  0.119E-03    1.20       9.9  T
  10   -100.5802138 -0.113374E-06  0.447E-04    1.19      26.4  T
  11   -100.5802138 -0.166494E-08  0.235E-04    1.19      50.2  T
     SCC iter.                  ...        0 min,  0.088 sec
     gradient                   ...        0 min,  0.069 sec
 * total energy  :  -100.5516557 Eh     change       -0.4830554E-01 Eh
   gradient norm :     0.2155866 Eh/α   predicted    -0.6586896E-01 (  36.36%)
   displ. norm   :     0.4226855 α      lambda       -0.5076668E-01
   maximum displ.:     0.1984731 α      in ANC's #47, #32, #33, ...

........................................................................
.............................. CYCLE    8 ..............................
........................................................................

 iter      E             dE          RMSdq      gap      omega  full diag
   1   -100.5676537 -0.100568E+03  0.289E-01    1.42       0.0  T
   2   -100.5522982  0.153555E-01  0.423E-01    0.82       1.0  T
   3   -100.5708472 -0.185490E-01  0.177E-01    1.39       1.0  T
   4   -100.5718065 -0.959261E-03  0.136E-01    1.14       1.0  T
   5   -100.5729551 -0.114863E-02  0.180E-02    1.24       1.0  T
   6   -100.5729672 -0.120890E-04  0.104E-02    1.24       1.1  T
   7   -100.5729725 -0.534355E-05  0.441E-03    1.24       2.7  T
   8   -100.5729733 -0.743004E-06  0.262E-03    1.24       4.5  T
   9   -100.5729736 -0.280645E-06  0.754E-04    1.24      15.6  T
  10   -100.5729736 -0.203868E-07  0.329E-04    1.24      35.9  T
     SCC iter.                  ...        0 min,  0.081 sec
     gradient                   ...        0 min,  0.069 sec
 * total energy  :  -100.5785588 Eh     change       -0.2690314E-01 Eh
   gradient norm :     0.1737465 Eh/α   predicted    -0.2991843E-01 (  11.21%)
   displ. norm   :     0.4011733 α      lambda       -0.2073817E-01
   maximum displ.:     0.1623696 α      in ANC's #32, #47, #33, ...

........................................................................
.............................. CYCLE    9 ..............................
........................................................................

 iter      E             dE          RMSdq      gap      omega  full diag
   1   -100.5736632 -0.100574E+03  0.180E-01    1.30       0.0  T
   2   -100.5734012  0.261972E-03  0.134E-01    1.18       1.0  T
   3   -100.5713737  0.202752E-02  0.146E-01    1.45       1.0  T
   4   -100.5733222 -0.194850E-02  0.853E-02    1.18       1.0  T
   5   -100.5740585 -0.736278E-03  0.175E-02    1.28       1.0  T
   6   -100.5740940 -0.355004E-04  0.544E-03    1.26       2.2  T
   7   -100.5740951 -0.112878E-05  0.296E-03    1.26       4.0  T
   8   -100.5740956 -0.439642E-06  0.106E-03    1.26      11.2  T
   9   -100.5740956 -0.462651E-07  0.397E-04    1.26      29.7  T
  10   -100.5740956 -0.673339E-08  0.175E-04    1.26      67.2  T
     SCC iter.                  ...        0 min,  0.081 sec
     gradient                   ...        0 min,  0.069 sec
 * total energy  :  -100.5927054 Eh     change       -0.1414659E-01 Eh
   gradient norm :     0.1022361 Eh/α   predicted    -0.1203791E-01 ( -14.91%)
   displ. norm   :     0.6335686 α      lambda       -0.2594312E-01
   maximum displ.:     0.2698615 α      in ANC's #32, #47, #33, ...

........................................................................
.............................. CYCLE   10 ..............................
........................................................................

 iter      E             dE          RMSdq      gap      omega  full diag
   1   -100.5879718 -0.100588E+03  0.248E-01    1.26       0.0  T
   2   -100.5882144 -0.242632E-03  0.216E-01    1.31       1.0  T
   3   -100.5903917 -0.217730E-02  0.119E-01    1.19       1.0  T
   4   -100.5863823  0.400944E-02  0.173E-01    1.49       1.0  T
   5   -100.5908619 -0.447961E-02  0.265E-02    1.25       1.0  T
   6   -100.5909000 -0.380442E-04  0.118E-02    1.26       1.0  T
   7   -100.5909098 -0.983544E-05  0.488E-03    1.26       2.4  T
   8   -100.5909118 -0.200901E-05  0.175E-03    1.26       6.7  T
   9   -100.5909118 -0.108274E-07  0.866E-04    1.26      13.6  T
  10   -100.5909118 -0.396007E-07  0.278E-04    1.26      42.4  T
     SCC iter.                  ...        0 min,  0.082 sec
     gradient                   ...        0 min,  0.069 sec
 * total energy  :  -100.6135423 Eh     change       -0.2083694E-01 Eh
   gradient norm :     0.0692816 Eh/α   predicted    -0.1817847E-01 ( -12.76%)
   displ. norm   :     0.6546306 α      lambda       -0.2111623E-01
   maximum displ.:     0.2715451 α      in ANC's #32, #50, #42, ...

........................................................................
.............................. CYCLE   11 ..............................
........................................................................

 iter      E             dE          RMSdq      gap      omega  full diag
   1   -100.6111706 -0.100611E+03  0.274E-01    1.22       0.0  T
   2   -100.6077467  0.342389E-02  0.287E-01    1.44       1.0  T
   3   -100.6127099 -0.496320E-02  0.169E-01    1.11       1.0  T
   4   -100.6122216  0.488290E-03  0.142E-01    1.43       1.0  T
   5   -100.6148280 -0.260645E-02  0.247E-02    1.27       1.0  T
   6   -100.6148827 -0.546440E-04  0.105E-02    1.26       1.1  T
   7   -100.6148899 -0.718857E-05  0.512E-03    1.26       2.3  T
   8   -100.6148919 -0.205400E-05  0.220E-03    1.26       5.4  T
   9   -100.6148920 -0.681192E-07  0.881E-04    1.26      13.4  T
  10   -100.6148920 -0.289726E-07  0.301E-04    1.26      39.1  T
     SCC iter.                  ...        0 min,  0.081 sec
     gradient                   ...        0 min,  0.075 sec
 * total energy  :  -100.6298679 Eh     change       -0.1632551E-01 Eh
   gradient norm :     0.0769145 Eh/α   predicted    -0.1508273E-01 (  -7.61%)
   displ. norm   :     0.5591859 α      lambda       -0.1467453E-01
   maximum displ.:     0.2327662 α      in ANC's #32, #50, #42, ...

........................................................................
.............................. CYCLE   12 ..............................
........................................................................

 iter      E             dE          RMSdq      gap      omega  full diag
   1   -100.6341237 -0.100634E+03  0.313E-01    1.24       0.0  T
   2   -100.6280627  0.606101E-02  0.349E-01    1.47       1.0  T
   3   -100.6374161 -0.935344E-02  0.165E-01    1.14       1.0  T
   4   -100.6356245  0.179164E-02  0.160E-01    1.48       1.0  T
   5   -100.6392771 -0.365266E-02  0.201E-02    1.29       1.0  T
   6   -100.6392976 -0.204100E-04  0.113E-02    1.27       1.0  T
   7   -100.6393087 -0.111382E-04  0.444E-03    1.28       2.7  T
   8   -100.6393095 -0.761884E-06  0.254E-03    1.28       4.6  T
   9   -100.6393097 -0.216326E-06  0.824E-04    1.28      14.3  T
  10   -100.6393097 -0.129162E-07  0.392E-04    1.28      30.0  T
     SCC iter.                  ...        0 min,  0.081 sec
     gradient                   ...        0 min,  0.069 sec
 * total energy  :  -100.6407039 Eh     change       -0.1083608E-01 Eh
   gradient norm :     0.1309743 Eh/α   predicted    -0.9631565E-02 ( -11.12%)
   displ. norm   :     0.5330298 α      lambda       -0.1345357E-01
   maximum displ.:     0.2272334 α      in ANC's #32, #50, #42, ...

........................................................................
.............................. CYCLE   13 ..............................
........................................................................

 iter      E             dE          RMSdq      gap      omega  full diag
   1   -100.6494128 -0.100649E+03  0.458E-01    1.40       0.0  T
   2   -100.6349170  0.144957E-01  0.536E-01    1.31       1.0  T
   3   -100.6617858 -0.268687E-01  0.142E-01    1.33       1.0  T
   4   -100.6616986  0.871469E-04  0.609E-02    1.39       1.0  T
   5   -100.6614650  0.233661E-03  0.739E-02    1.24       1.0  T
   6   -100.6621011 -0.636135E-03  0.297E-02    1.36       1.0  T
   7   -100.6622009 -0.998407E-04  0.469E-03    1.33       2.5  T
   8   -100.6622023 -0.135654E-05  0.243E-03    1.33       4.8  T
   9   -100.6622024 -0.155583E-06  0.913E-04    1.33      12.9  T
  10   -100.6622024 -0.446960E-08  0.475E-04    1.33      24.8  T
     SCC iter.                  ...        0 min,  0.081 sec
     gradient                   ...        0 min,  0.075 sec
 * total energy  :  -100.6500227 Eh     change       -0.9318772E-02 Eh
   gradient norm :     0.0578365 Eh/α   predicted    -0.8638040E-02 (  -7.30%)
   displ. norm   :     0.5169268 α      lambda       -0.9912165E-02
   maximum displ.:     0.2112445 α      in ANC's #32, #42, #50, ...

........................................................................
.............................. CYCLE   14 ..............................
........................................................................

 iter      E             dE          RMSdq      gap      omega  full diag
   1   -100.6601075 -0.100660E+03  0.377E-01    1.49       0.0  T
   2   -100.6443305  0.157770E-01  0.498E-01    1.26       1.0  T
   3   -100.6686290 -0.242985E-01  0.117E-01    1.44       1.0  T
   4   -100.6674382  0.119083E-02  0.128E-01    1.25       1.0  T
   5   -100.6688042 -0.136604E-02  0.452E-02    1.45       1.0  T
   6   -100.6690676 -0.263307E-03  0.216E-02    1.37       1.0  T
   7   -100.6691240 -0.564612E-04  0.423E-03    1.39       2.8  T
   8   -100.6691257 -0.168447E-05  0.192E-03    1.39       6.1  T
   9   -100.6691258 -0.122587E-06  0.766E-04    1.39      15.4  T
  10   -100.6691258 -0.544706E-08  0.406E-04    1.39      29.0  T
     SCC iter.                  ...        0 min,  0.080 sec
     gradient                   ...        0 min,  0.069 sec
 * total energy  :  -100.6563769 Eh     change       -0.6354148E-02 Eh
   gradient norm :     0.0891487 Eh/α   predicted    -0.6280424E-02 (  -1.16%)
   displ. norm   :     0.3799212 α      lambda       -0.6952998E-02
   maximum displ.:     0.1435822 α      in ANC's #32, #42, #50, ...

........................................................................
.............................. CYCLE   15 ..............................
........................................................................

 iter      E             dE          RMSdq      gap      omega  full diag
   1   -100.6655733 -0.100666E+03  0.232E-01    1.53       0.0  T
   2   -100.6582865  0.728676E-02  0.322E-01    1.27       1.0  T
   3   -100.6684152 -0.101287E-01  0.905E-02    1.49       1.0  T
   4   -100.6671764  0.123884E-02  0.120E-01    1.30       1.0  T
   5   -100.6686516 -0.147522E-02  0.281E-02    1.46       1.0  T
   6   -100.6687282 -0.765853E-04  0.157E-02    1.42       1.0  T
   7   -100.6687593 -0.310434E-04  0.324E-03    1.43       3.6  T
   8   -100.6687603 -0.105357E-05  0.134E-03    1.43       8.8  T
   9   -100.6687603 -0.184780E-07  0.642E-04    1.43      18.3  T
  10   -100.6687604 -0.207050E-07  0.157E-04    1.43      74.8  T
     SCC iter.                  ...        0 min,  0.081 sec
     gradient                   ...        0 min,  0.069 sec
 * total energy  :  -100.6604533 Eh     change       -0.4076461E-02 Eh
   gradient norm :     0.0431778 Eh/α   predicted    -0.3978306E-02 (  -2.41%)
   displ. norm   :     0.3548661 α      lambda       -0.3522682E-02
   maximum displ.:     0.1375214 α      in ANC's #42, #32, #50, ...

........................................................................
.............................. CYCLE   16 ..............................
........................................................................

 iter      E             dE          RMSdq      gap      omega  full diag
   1   -100.6753986 -0.100675E+03  0.179E-01    1.55       0.0  T
   2   -100.6717897  0.360889E-02  0.242E-01    1.44       1.0  T
   3   -100.6770466 -0.525693E-02  0.662E-02    1.53       1.0  T
   4   -100.6769134  0.133183E-03  0.497E-02    1.44       1.0  T
   5   -100.6770829 -0.169427E-03  0.262E-02    1.53       1.0  T
   6   -100.6771674 -0.844990E-04  0.707E-03    1.49       1.7  T
   7   -100.6771738 -0.642617E-05  0.174E-03    1.50       6.8  T
   8   -100.6771741 -0.286485E-06  0.853E-04    1.50      13.8  T
   9   -100.6771741 -0.413136E-07  0.394E-04    1.50      29.9  T
     SCC iter.                  ...        0 min,  0.073 sec
     gradient                   ...        0 min,  0.071 sec
 * total energy  :  -100.6630535 Eh     change       -0.2600138E-02 Eh
   gradient norm :     0.0252121 Eh/α   predicted    -0.1983145E-02 ( -23.73%)
   displ. norm   :     0.3791375 α      lambda       -0.2346670E-02
   maximum displ.:     0.1698361 α      in ANC's #42, #32, #37, ...

........................................................................
.............................. CYCLE   17 ..............................
........................................................................

 iter      E             dE          RMSdq      gap      omega  full diag
   1   -100.6788984 -0.100679E+03  0.144E-01    1.61       0.0  T
   2   -100.6770434  0.185500E-02  0.182E-01    1.50       1.0  T
   3   -100.6797364 -0.269297E-02  0.615E-02    1.59       1.0  T
   4   -100.6796218  0.114535E-03  0.442E-02    1.51       1.0  T
   5   -100.6797769 -0.155024E-03  0.217E-02    1.59       1.0  T
   6   -100.6798361 -0.592177E-04  0.443E-03    1.56       2.7  T
   7   -100.6798383 -0.223759E-05  0.148E-03    1.56       7.9  T
   8   -100.6798385 -0.186961E-06  0.723E-04    1.56      16.3  T
   9   -100.6798385 -0.264506E-07  0.354E-04    1.56      33.3  T
     SCC iter.                  ...        0 min,  0.073 sec
     gradient                   ...        0 min,  0.075 sec
 * total energy  :  -100.6646358 Eh     change       -0.1582388E-02 Eh
   gradient norm :     0.0157712 Eh/α   predicted    -0.1342011E-02 ( -15.19%)
   displ. norm   :     0.2933491 α      lambda       -0.1417292E-02
   maximum displ.:     0.1274707 α      in ANC's #42, #12, #22, ...

........................................................................
.............................. CYCLE   18 ..............................
........................................................................

 iter      E             dE          RMSdq      gap      omega  full diag
   1   -100.6843795 -0.100684E+03  0.933E-02    1.62       0.0  T
   2   -100.6838989  0.480583E-03  0.982E-02    1.56       1.0  T
   3   -100.6844951 -0.596169E-03  0.489E-02    1.62       1.0  T
   4   -100.6845195 -0.244025E-04  0.265E-02    1.57       1.0  T
   5   -100.6845882 -0.687203E-04  0.985E-03    1.61       1.2  T
   6   -100.6846005 -0.122440E-04  0.234E-03    1.60       5.0  T
   7   -100.6846009 -0.422703E-06  0.113E-03    1.60      10.5  T
   8   -100.6846009 -0.358583E-07  0.693E-04    1.60      17.0  T
   9   -100.6846010 -0.399649E-07  0.224E-04    1.60      52.6  T
     SCC iter.                  ...        0 min,  0.073 sec
     gradient                   ...        0 min,  0.075 sec
 * total energy  :  -100.6652933 Eh     change       -0.6574612E-03 Eh
   gradient norm :     0.0202200 Eh/α   predicted    -0.7696187E-03 (  17.06%)
   displ. norm   :     0.2414548 α      lambda       -0.8126414E-03
   maximum displ.:     0.1122334 α      in ANC's #42, #32, #22, ...

........................................................................
.............................. CYCLE   19 ..............................
........................................................................

 iter      E             dE          RMSdq      gap      omega  full diag
   1   -100.6816317 -0.100682E+03  0.757E-02    1.64       0.0  T
   2   -100.6813225  0.309108E-03  0.786E-02    1.58       1.0  T
   3   -100.6816991 -0.376519E-03  0.424E-02    1.64       1.0  T
   4   -100.6817304 -0.313006E-04  0.225E-02    1.60       1.0  T
   5   -100.6817699 -0.395575E-04  0.103E-02    1.63       1.1  T
   6   -100.6817828 -0.128995E-04  0.274E-03    1.62       4.3  T
   7   -100.6817837 -0.883003E-06  0.950E-04    1.62      12.4  T
   8   -100.6817838 -0.650862E-07  0.477E-04    1.62      24.7  T
     SCC iter.                  ...        0 min,  0.065 sec
     gradient                   ...        0 min,  0.069 sec
 * total energy  :  -100.6657422 Eh     change       -0.4488661E-03 Eh
   gradient norm :     0.0174766 Eh/α   predicted    -0.4300078E-03 (  -4.20%)
   displ. norm   :     0.0979587 α      lambda       -0.3023300E-03
   maximum displ.:     0.0378688 α      in ANC's #42, #22, #12, ...

........................................................................
.............................. CYCLE   20 ..............................
........................................................................

 iter      E             dE          RMSdq      gap      omega  full diag
   1   -100.6828853 -0.100683E+03  0.288E-02    1.63       0.0  T
   2   -100.6828518  0.335544E-04  0.254E-02    1.61       1.0  T
   3   -100.6828734 -0.216127E-04  0.198E-02    1.64       1.0  T
   4   -100.6828942 -0.207622E-04  0.805E-03    1.62       1.5  T
   5   -100.6828993 -0.512398E-05  0.297E-03    1.63       4.0  T
   6   -100.6829002 -0.975683E-06  0.116E-03    1.62      10.2  T
   7   -100.6829004 -0.182699E-06  0.306E-04    1.62      38.5  T
   8   -100.6829004 -0.297145E-08  0.181E-04    1.62      65.0  T
     SCC iter.                  ...        0 min,  0.065 sec
     gradient                   ...        0 min,  0.069 sec
 * total energy  :  -100.6659814 Eh     change       -0.2392686E-03 Eh
   gradient norm :     0.0142299 Eh/α   predicted    -0.1526253E-03 ( -36.21%)
   displ. norm   :     0.1942047 α      lambda       -0.3874372E-03
   maximum displ.:     0.0730905 α      in ANC's #42, #22, #12, ...
 * RMSD in coord.:     0.7172472 α      energy gain  -0.1113306E+01 Eh

generating ANC from model Hessian ...
Using Lindh-Hessian (1995)
 Shifting diagonal of input Hessian by    1.0023035801755216E-002
 Lowest  eigenvalues of input Hessian
    0.010000    0.000000    0.000000    0.000000    0.000000    0.000000
    0.000000    0.010057    0.010105    0.010155    0.010337    0.010361
    0.010445    0.010687    0.010825    0.010962    0.011007    0.011490
 Highest eigenvalues
    1.986132    2.041838    2.064772    2.113885    2.181884    2.286742


........................................................................
.............................. CYCLE   21 ..............................
........................................................................

 iter      E             dE          RMSdq      gap      omega  full diag
   1   -100.6844881 -0.100684E+03  0.570E-02    1.65       0.0  T
   2   -100.6843029  0.185221E-03  0.553E-02    1.61       1.0  T
   3   -100.6844855 -0.182632E-03  0.361E-02    1.65       1.0  T
   4   -100.6845306 -0.450991E-04  0.169E-02    1.62       1.0  T
   5   -100.6845588 -0.281593E-04  0.432E-03    1.64       2.7  T
   6   -100.6845609 -0.211924E-05  0.182E-03    1.63       6.5  T
   7   -100.6845614 -0.440804E-06  0.561E-04    1.63      21.0  T
   8   -100.6845614 -0.579206E-08  0.333E-04    1.63      35.4  T
     SCC iter.                  ...        0 min,  0.065 sec
     gradient                   ...        0 min,  0.069 sec
 * total energy  :  -100.6662272 Eh     change       -0.2457130E-03 Eh
   gradient norm :     0.0092949 Eh/α   predicted     0.0000000E+00 (-100.00%)
   displ. norm   :     0.0758935 α      lambda       -0.1792468E-03
   maximum displ.:     0.0297527 α      in ANC's #9, #14, #12, ...

........................................................................
.............................. CYCLE   22 ..............................
........................................................................

 iter      E             dE          RMSdq      gap      omega  full diag
   1   -100.6845670 -0.100685E+03  0.209E-02    1.64       0.0  T
   2   -100.6845516  0.153738E-04  0.184E-02    1.63       1.0  T
   3   -100.6845639 -0.122846E-04  0.135E-02    1.64       1.0  T
   4   -100.6845725 -0.856517E-05  0.334E-03    1.63       3.5  T
   5   -100.6845734 -0.906305E-06  0.193E-03    1.64       6.1  T
   6   -100.6845739 -0.480219E-06  0.376E-04    1.63      31.4  T
   7   -100.6845739 -0.854840E-08  0.155E-04    1.64      75.9  T
     SCC iter.                  ...        0 min,  0.057 sec
     gradient                   ...        0 min,  0.069 sec
 * total energy  :  -100.6663495 Eh     change       -0.1223172E-03 Eh
   gradient norm :     0.0110590 Eh/α   predicted    -0.9014019E-04 ( -26.31%)
   displ. norm   :     0.2003710 α      lambda       -0.2924435E-03
   maximum displ.:     0.0822871 α      in ANC's #9, #14, #12, ...

........................................................................
.............................. CYCLE   23 ..............................
........................................................................

 iter      E             dE          RMSdq      gap      omega  full diag
   1   -100.6837784 -0.100684E+03  0.484E-02    1.64       0.0  T
   2   -100.6837094  0.690669E-04  0.404E-02    1.63       1.0  T
   3   -100.6837487 -0.392991E-04  0.328E-02    1.64       1.0  T
   4   -100.6838032 -0.545968E-04  0.708E-03    1.63       1.7  T
   5   -100.6838075 -0.423262E-05  0.391E-03    1.64       3.0  T
   6   -100.6838094 -0.192720E-05  0.906E-04    1.64      13.0  T
   7   -100.6838094 -0.389106E-07  0.417E-04    1.64      28.3  T
   8   -100.6838094 -0.217882E-08  0.191E-04    1.64      61.7  T
     SCC iter.                  ...        0 min,  0.064 sec
     gradient                   ...        0 min,  0.069 sec
 * total energy  :  -100.6664850 Eh     change       -0.1355392E-03 Eh
   gradient norm :     0.0103434 Eh/α   predicted    -0.1521012E-03 (  12.22%)
   displ. norm   :     0.1093578 α      lambda       -0.1228239E-03
   maximum displ.:     0.0478702 α      in ANC's #9, #14, #32, ...

........................................................................
.............................. CYCLE   24 ..............................
........................................................................

 iter      E             dE          RMSdq      gap      omega  full diag
   1   -100.6841674 -0.100684E+03  0.252E-02    1.63       0.0  T
   2   -100.6841621  0.534547E-05  0.165E-02    1.64       1.0  T
   3   -100.6841404  0.216468E-04  0.204E-02    1.63       1.0  T
   4   -100.6841701 -0.297094E-04  0.178E-03    1.63       6.6  T
   5   -100.6841703 -0.220531E-06  0.799E-04    1.63      14.8  T
   6   -100.6841703 -0.106105E-08  0.614E-04    1.64      19.2  T
     SCC iter.                  ...        0 min,  0.049 sec
     gradient                   ...        0 min,  0.069 sec
 * total energy  :  -100.6665841 Eh     change       -0.9907915E-04 Eh
   gradient norm :     0.0054127 Eh/α   predicted    -0.6214805E-04 ( -37.27%)
   displ. norm   :     0.2527651 α      lambda       -0.2085817E-03
   maximum displ.:     0.1088262 α      in ANC's #9, #32, #6, ...

........................................................................
.............................. CYCLE   25 ..............................
........................................................................

 iter      E             dE          RMSdq      gap      omega  full diag
   1   -100.6843332 -0.100684E+03  0.564E-02    1.62       0.0  T
   2   -100.6843157  0.174480E-04  0.355E-02    1.64       1.0  T
   3   -100.6841492  0.166591E-03  0.468E-02    1.60       1.0  T
   4   -100.6843390 -0.189798E-03  0.700E-03    1.64       1.7  T
   5   -100.6843429 -0.390073E-05  0.318E-03    1.63       3.7  T
   6   -100.6843437 -0.832748E-06  0.132E-03    1.63       8.9  T
   7   -100.6843438 -0.860707E-07  0.829E-04    1.63      14.2  T
   8   -100.6843439 -0.869378E-07  0.210E-04    1.63      56.1  T
     SCC iter.                  ...        0 min,  0.065 sec
     gradient                   ...        0 min,  0.074 sec
 * total energy  :  -100.6667289 Eh     change       -0.1448370E-03 Eh
   gradient norm :     0.0064302 Eh/α   predicted    -0.1110003E-03 ( -23.36%)
   displ. norm   :     0.2234534 α      lambda       -0.1175310E-03
   maximum displ.:     0.0961672 α      in ANC's #9, #6, #32, ...

........................................................................
.............................. CYCLE   26 ..............................
........................................................................

 iter      E             dE          RMSdq      gap      omega  full diag
   1   -100.6840968 -0.100684E+03  0.483E-02    1.62       0.0  T
   2   -100.6840854  0.113477E-04  0.302E-02    1.64       1.0  T
   3   -100.6838798  0.205649E-03  0.425E-02    1.57       1.0  T
   4   -100.6840986 -0.218833E-03  0.718E-03    1.63       1.6  T
   5   -100.6841030 -0.439939E-05  0.276E-03    1.62       4.3  T
   6   -100.6841035 -0.452067E-06  0.126E-03    1.62       9.4  T
   7   -100.6841035 -0.648399E-07  0.789E-04    1.62      14.9  T
   8   -100.6841036 -0.684192E-07  0.182E-04    1.62      64.7  T
     SCC iter.                  ...        0 min,  0.065 sec
     gradient                   ...        0 min,  0.068 sec
 * total energy  :  -100.6668179 Eh     change       -0.8897775E-04 Eh
   gradient norm :     0.0049913 Eh/α   predicted    -0.6170116E-04 ( -30.66%)
   displ. norm   :     0.2611263 α      lambda       -0.1384741E-03
   maximum displ.:     0.1076430 α      in ANC's #9, #6, #32, ...

........................................................................
.............................. CYCLE   27 ..............................
........................................................................

 iter      E             dE          RMSdq      gap      omega  full diag
   1   -100.6839292 -0.100684E+03  0.558E-02    1.60       0.0  T
   2   -100.6839053  0.239505E-04  0.364E-02    1.63       1.0  T
   3   -100.6834876  0.417673E-03  0.556E-02    1.53       1.0  T
   4   -100.6839354 -0.447818E-03  0.774E-03    1.61       1.5  T
   5   -100.6839412 -0.578440E-05  0.217E-03    1.61       5.4  T
   6   -100.6839413 -0.700860E-07  0.156E-03    1.61       7.6  T
   7   -100.6839413 -0.207287E-07  0.107E-03    1.61      11.0  T
   8   -100.6839414 -0.109585E-06  0.321E-04    1.61      36.7  T
   9   -100.6839414 -0.419189E-08  0.126E-04    1.61      93.5  T
     SCC iter.                  ...        0 min,  0.073 sec
     gradient                   ...        0 min,  0.068 sec
 * total energy  :  -100.6669222 Eh     change       -0.1042826E-03 Eh
   gradient norm :     0.0065994 Eh/α   predicted    -0.7395903E-04 ( -29.08%)
   displ. norm   :     0.2687088 α      lambda       -0.1575015E-03
   maximum displ.:     0.1162770 α      in ANC's #6, #9, #32, ...

........................................................................
.............................. CYCLE   28 ..............................
........................................................................

 iter      E             dE          RMSdq      gap      omega  full diag
   1   -100.6838961 -0.100684E+03  0.592E-02    1.58       0.0  T
   2   -100.6838185  0.776148E-04  0.460E-02    1.63       1.0  T
   3   -100.6837093  0.109158E-03  0.473E-02    1.55       1.0  T
   4   -100.6839053 -0.195949E-03  0.164E-02    1.61       1.0  T
   5   -100.6839280 -0.227100E-04  0.422E-03    1.59       2.8  T
   6   -100.6839291 -0.114788E-05  0.265E-03    1.60       4.4  T
   7   -100.6839298 -0.677631E-06  0.995E-04    1.60      11.8  T
   8   -100.6839299 -0.648633E-07  0.377E-04    1.60      31.3  T
     SCC iter.                  ...        0 min,  0.065 sec
     gradient                   ...        0 min,  0.075 sec
 * total energy  :  -100.6670404 Eh     change       -0.1181982E-03 Eh
   gradient norm :     0.0119817 Eh/α   predicted    -0.8445560E-04 ( -28.55%)
   displ. norm   :     0.2713890 α      lambda       -0.1888354E-03
   maximum displ.:     0.1157309 α      in ANC's #6, #4, #7, ...

........................................................................
.............................. CYCLE   29 ..............................
........................................................................

 iter      E             dE          RMSdq      gap      omega  full diag
   1   -100.6841040 -0.100684E+03  0.643E-02    1.56       0.0  T
   2   -100.6838750  0.229006E-03  0.647E-02    1.61       1.0  T
   3   -100.6841182 -0.243129E-03  0.384E-02    1.56       1.0  T
   4   -100.6841452 -0.270285E-04  0.238E-02    1.60       1.0  T
   5   -100.6841962 -0.510353E-04  0.604E-03    1.57       2.0  T
   6   -100.6841996 -0.338146E-05  0.317E-03    1.58       3.7  T
   7   -100.6842009 -0.128585E-05  0.105E-03    1.58      11.2  T
   8   -100.6842009 -0.568594E-07  0.470E-04    1.58      25.1  T
   9   -100.6842009 -0.799497E-08  0.167E-04    1.58      70.5  T
     SCC iter.                  ...        0 min,  0.073 sec
     gradient                   ...        0 min,  0.068 sec
 * total energy  :  -100.6671855 Eh     change       -0.1451472E-03 Eh
   gradient norm :     0.0151534 Eh/α   predicted    -0.1013762E-03 ( -30.16%)
   displ. norm   :     0.3320073 α      lambda       -0.2589452E-03
   maximum displ.:     0.1266753 α      in ANC's #6, #4, #7, ...

........................................................................
.............................. CYCLE   30 ..............................
........................................................................

 iter      E             dE          RMSdq      gap      omega  full diag
   1   -100.6837283 -0.100684E+03  0.845E-02    1.53       0.0  T
   2   -100.6830973  0.631010E-03  0.101E-01    1.60       1.0  T
   3   -100.6839272 -0.829850E-03  0.421E-02    1.53       1.0  T
   4   -100.6838962  0.309705E-04  0.324E-02    1.59       1.0  T
   5   -100.6839887 -0.925341E-04  0.934E-03    1.54       1.3  T
   6   -100.6839977 -0.897824E-05  0.437E-03    1.56       2.7  T
   7   -100.6840005 -0.275173E-05  0.124E-03    1.55       9.5  T
   8   -100.6840006 -0.866360E-07  0.586E-04    1.56      20.1  T
   9   -100.6840006 -0.114512E-07  0.203E-04    1.56      57.9  T
     SCC iter.                  ...        0 min,  0.072 sec
     gradient                   ...        0 min,  0.069 sec
 * total energy  :  -100.6673890 Eh     change       -0.2035090E-03 Eh
   gradient norm :     0.0155971 Eh/α   predicted    -0.1438083E-03 ( -29.34%)
   displ. norm   :     0.3951548 α      lambda       -0.3636238E-03
   maximum displ.:     0.1489307 α      in ANC's #7, #14, #4, ...

........................................................................
.............................. CYCLE   31 ..............................
........................................................................

 iter      E             dE          RMSdq      gap      omega  full diag
   1   -100.6837120 -0.100684E+03  0.108E-01    1.49       0.0  T
   2   -100.6823431  0.136891E-02  0.144E-01    1.58       1.0  T
   3   -100.6842614 -0.191830E-02  0.446E-02    1.50       1.0  T
   4   -100.6841986  0.628203E-04  0.376E-02    1.56       1.0  T
   5   -100.6843084 -0.109758E-03  0.137E-02    1.51       1.0  T
   6   -100.6843286 -0.202331E-04  0.565E-03    1.53       2.1  T
   7   -100.6843334 -0.476546E-05  0.139E-03    1.52       8.5  T
   8   -100.6843335 -0.137697E-06  0.645E-04    1.52      18.3  T
   9   -100.6843335 -0.102407E-07  0.254E-04    1.52      46.4  T
     SCC iter.                  ...        0 min,  0.072 sec
     gradient                   ...        0 min,  0.069 sec
 * total energy  :  -100.6676620 Eh     change       -0.2729204E-03 Eh
   gradient norm :     0.0095905 Eh/α   predicted    -0.2102036E-03 ( -22.98%)
   displ. norm   :     0.5761068 α      lambda       -0.4378347E-03
   maximum displ.:     0.2288539 α      in ANC's #7, #6, #4, ...

........................................................................
.............................. CYCLE   32 ..............................
........................................................................

 iter      E             dE          RMSdq      gap      omega  full diag
   1   -100.6763845 -0.100676E+03  0.156E-01    1.43       0.0  T
   2   -100.6737965  0.258801E-02  0.200E-01    1.58       1.0  T
   3   -100.6774458 -0.364936E-02  0.672E-02    1.44       1.0  T
   4   -100.6772392  0.206631E-03  0.621E-02    1.55       1.0  T
   5   -100.6775626 -0.323392E-03  0.195E-02    1.46       1.0  T
   6   -100.6776034 -0.408006E-04  0.868E-03    1.49       1.4  T
   7   -100.6776142 -0.108200E-04  0.212E-03    1.48       5.6  T
   8   -100.6776145 -0.285773E-06  0.101E-03    1.48      11.7  T
   9   -100.6776145 -0.259251E-07  0.394E-04    1.48      29.9  T
  10   -100.6776145 -0.817577E-08  0.114E-04    1.48     103.3  T
     SCC iter.                  ...        0 min,  0.080 sec
     gradient                   ...        0 min,  0.069 sec
 * total energy  :  -100.6677545 Eh     change       -0.9249139E-04 Eh
   gradient norm :     0.0370462 Eh/α   predicted    -0.2915826E-03 ( 215.25%)
   displ. norm   :     0.3194558 α      lambda       -0.9564421E-03
   maximum displ.:     0.2280113 α      in ANC's #9, #7, #20, ...

........................................................................
.............................. CYCLE   33 ..............................
........................................................................

 iter      E             dE          RMSdq      gap      omega  full diag
   1   -100.6819832 -0.100682E+03  0.714E-02    1.46       0.0  T
   2   -100.6816305  0.352765E-03  0.786E-02    1.48       1.0  T
   3   -100.6821191 -0.488644E-03  0.352E-02    1.46       1.0  T
   4   -100.6821613 -0.422241E-04  0.881E-03    1.48       1.3  T
   5   -100.6821512  0.100873E-04  0.111E-02    1.45       1.1  T
   6   -100.6821681 -0.168760E-04  0.172E-03    1.47       6.8  T
   7   -100.6821683 -0.153453E-06  0.744E-04    1.47      15.8  T
   8   -100.6821683 -0.702008E-08  0.340E-04    1.47      34.6  T
     SCC iter.                  ...        0 min,  0.064 sec
     gradient                   ...        0 min,  0.069 sec
 * total energy  :  -100.6681618 Eh     change       -0.4073040E-03 Eh
   gradient norm :     0.0172028 Eh/α   predicted    -0.5270266E-03 (  29.39%)
   displ. norm   :     0.2671312 α      lambda       -0.3556824E-03
   maximum displ.:     0.1224650 α      in ANC's #7, #4, #9, ...

........................................................................
.............................. CYCLE   34 ..............................
........................................................................

 iter      E             dE          RMSdq      gap      omega  full diag
   1   -100.6821311 -0.100682E+03  0.791E-02    1.42       0.0  T
   2   -100.6813561  0.775055E-03  0.107E-01    1.50       1.0  T
   3   -100.6824880 -0.113195E-02  0.299E-02    1.43       1.0  T
   4   -100.6824305  0.575112E-04  0.318E-02    1.48       1.0  T
   5   -100.6825142 -0.836926E-04  0.967E-03    1.44       1.2  T
   6   -100.6825223 -0.809808E-05  0.496E-03    1.45       2.4  T
   7   -100.6825259 -0.358086E-05  0.937E-04    1.45      12.6  T
   8   -100.6825260 -0.648116E-07  0.441E-04    1.45      26.7  T
   9   -100.6825260 -0.426226E-08  0.210E-04    1.45      56.0  T
     SCC iter.                  ...        0 min,  0.071 sec
     gradient                   ...        0 min,  0.069 sec
 * total energy  :  -100.6684664 Eh     change       -0.3046635E-03 Eh
   gradient norm :     0.0095473 Eh/α   predicted    -0.1905430E-03 ( -37.46%)
   displ. norm   :     0.5717670 α      lambda       -0.7862503E-03
   maximum displ.:     0.2598516 α      in ANC's #7, #9, #4, ...

........................................................................
.............................. CYCLE   35 ..............................
........................................................................

 iter      E             dE          RMSdq      gap      omega  full diag
   1   -100.6792167 -0.100679E+03  0.149E-01    1.36       0.0  T
   2   -100.6771583  0.205841E-02  0.181E-01    1.51       1.0  T
   3   -100.6801702 -0.301184E-02  0.649E-02    1.37       1.0  T
   4   -100.6799404  0.229743E-03  0.654E-02    1.48       1.0  T
   5   -100.6803186 -0.378185E-03  0.190E-02    1.39       1.0  T
   6   -100.6803554 -0.367924E-04  0.826E-03    1.42       1.4  T
   7   -100.6803650 -0.963020E-05  0.175E-03    1.41       6.7  T
   8   -100.6803653 -0.231794E-06  0.839E-04    1.41      14.0  T
   9   -100.6803653 -0.164676E-07  0.414E-04    1.41      28.4  T
     SCC iter.                  ...        0 min,  0.073 sec
     gradient                   ...        0 min,  0.069 sec
 * total energy  :  -100.6690000 Eh     change       -0.5336246E-03 Eh
   gradient norm :     0.0242675 Eh/α   predicted    -0.5216504E-03 (  -2.24%)
   displ. norm   :     0.4364585 α      lambda       -0.4994774E-03
   maximum displ.:     0.2527927 α      in ANC's #9, #7, #4, ...

........................................................................
.............................. CYCLE   36 ..............................
........................................................................

 iter      E             dE          RMSdq      gap      omega  full diag
   1   -100.6793585 -0.100679E+03  0.109E-01    1.36       0.0  T
   2   -100.6784003  0.958200E-03  0.129E-01    1.44       1.0  T
   3   -100.6798793 -0.147898E-02  0.462E-02    1.37       1.0  T
   4   -100.6798004  0.788512E-04  0.414E-02    1.43       1.0  T
   5   -100.6799390 -0.138547E-03  0.157E-02    1.37       1.0  T
   6   -100.6799668 -0.277890E-04  0.565E-03    1.39       2.1  T
   7   -100.6799711 -0.433214E-05  0.131E-03    1.39       9.0  T
   8   -100.6799712 -0.135084E-06  0.625E-04    1.39      18.9  T
   9   -100.6799712 -0.140311E-07  0.285E-04    1.39      41.3  T
     SCC iter.                  ...        0 min,  0.072 sec
     gradient                   ...        0 min,  0.069 sec
 * total energy  :  -100.6694047 Eh     change       -0.4046975E-03 Eh
   gradient norm :     0.0249600 Eh/α   predicted    -0.2973165E-03 ( -26.53%)
   displ. norm   :     0.5114354 α      lambda       -0.5847235E-03
   maximum displ.:     0.3045182 α      in ANC's #9, #7, #8, ...

........................................................................
.............................. CYCLE   37 ..............................
........................................................................

 iter      E             dE          RMSdq      gap      omega  full diag
   1   -100.6760809 -0.100676E+03  0.141E-01    1.32       0.0  T
   2   -100.6745010  0.157990E-02  0.170E-01    1.41       1.0  T
   3   -100.6771943 -0.269327E-02  0.529E-02    1.34       1.0  T
   4   -100.6771304  0.638806E-04  0.432E-02    1.41       1.0  T
   5   -100.6772131 -0.827162E-04  0.243E-02    1.33       1.0  T
   6   -100.6772815 -0.683497E-04  0.876E-03    1.37       1.3  T
   7   -100.6772921 -0.106606E-04  0.175E-03    1.36       6.7  T
   8   -100.6772924 -0.262172E-06  0.835E-04    1.36      14.1  T
   9   -100.6772924 -0.254005E-07  0.366E-04    1.36      32.2  T
     SCC iter.                  ...        0 min,  0.073 sec
     gradient                   ...        0 min,  0.071 sec
 * total energy  :  -100.6699273 Eh     change       -0.5225441E-03 Eh
   gradient norm :     0.0167932 Eh/α   predicted    -0.3688346E-03 ( -29.42%)
   displ. norm   :     0.5719148 α      lambda       -0.7424104E-03
   maximum displ.:     0.3731380 α      in ANC's #9, #7, #8, ...

........................................................................
.............................. CYCLE   38 ..............................
........................................................................

 iter      E             dE          RMSdq      gap      omega  full diag
   1   -100.6741975 -0.100674E+03  0.180E-01    1.28       0.0  T
   2   -100.6722250  0.197251E-02  0.208E-01    1.38       1.0  T
   3   -100.6762270 -0.400197E-02  0.635E-02    1.31       1.0  T
   4   -100.6762390 -0.120630E-04  0.407E-02    1.36       1.0  T
   5   -100.6761549  0.840769E-04  0.376E-02    1.28       1.0  T
   6   -100.6763098 -0.154804E-03  0.145E-02    1.35       1.0  T
   7   -100.6763396 -0.298606E-04  0.231E-03    1.33       5.1  T
   8   -100.6763400 -0.435806E-06  0.113E-03    1.33      10.4  T
   9   -100.6763401 -0.483015E-07  0.466E-04    1.33      25.3  T
  10   -100.6763401 -0.611487E-08  0.159E-04    1.33      74.0  T
     SCC iter.                  ...        0 min,  0.080 sec
     gradient                   ...        0 min,  0.069 sec
 * total energy  :  -100.6705840 Eh     change       -0.6566789E-03 Eh
   gradient norm :     0.0084168 Eh/α   predicted    -0.4926270E-03 ( -24.98%)
   displ. norm   :     0.8269273 α      lambda       -0.1029748E-02
   maximum displ.:     0.5100894 α      in ANC's #9, #7, #8, ...

........................................................................
.............................. CYCLE   39 ..............................
........................................................................

 iter      E             dE          RMSdq      gap      omega  full diag
   1   -100.6646560 -0.100665E+03  0.280E-01    1.22       0.0  T
   2   -100.6633461  0.130989E-02  0.276E-01    1.31       1.0  T
   3   -100.6695549 -0.620886E-02  0.105E-01    1.28       1.0  T
   4   -100.6696127 -0.578055E-04  0.450E-02    1.25       1.0  T
   5   -100.6690600  0.552751E-03  0.752E-02    1.37       1.0  T
   6   -100.6697484 -0.688456E-03  0.209E-02    1.27       1.0  T
   7   -100.6697906 -0.421818E-04  0.344E-03    1.28       3.4  T
   8   -100.6697911 -0.518096E-06  0.184E-03    1.28       6.4  T
   9   -100.6697913 -0.117269E-06  0.724E-04    1.28      16.3  T
  10   -100.6697913 -0.116655E-07  0.247E-04    1.28      47.7  T
     SCC iter.                  ...        0 min,  0.081 sec
     gradient                   ...        0 min,  0.069 sec
 * total energy  :  -100.6716555 Eh     change       -0.1071567E-02 Eh
   gradient norm :     0.0264741 Eh/α   predicted    -0.8669494E-03 ( -19.10%)
   displ. norm   :     0.5594447 α      lambda       -0.2130844E-02
   maximum displ.:     0.3872581 α      in ANC's #9, #19, #18, ...

........................................................................
.............................. CYCLE   40 ..............................
........................................................................

 iter      E             dE          RMSdq      gap      omega  full diag
   1   -100.6663867 -0.100666E+03  0.259E-01    1.19       0.0  T
   2   -100.6680497 -0.166298E-02  0.217E-01    1.19       1.0  T
   3   -100.6706709 -0.262121E-02  0.122E-01    1.29       1.0  T
   4   -100.6694232  0.124766E-02  0.116E-01    1.09       1.0  T
   5   -100.6704859 -0.106270E-02  0.925E-02    1.32       1.0  T
   6   -100.6711340 -0.648021E-03  0.271E-02    1.25       1.0  T
   7   -100.6712216 -0.876722E-04  0.394E-03    1.23       3.0  T
   8   -100.6712221 -0.423340E-06  0.217E-03    1.23       5.4  T
   9   -100.6712222 -0.189035E-06  0.826E-04    1.23      14.3  T
  10   -100.6712223 -0.169271E-07  0.272E-04    1.23      43.3  T
     SCC iter.                  ...        0 min,  0.080 sec
     gradient                   ...        0 min,  0.069 sec
 * total energy  :  -100.6734533 Eh     change       -0.1797738E-02 Eh
   gradient norm :     0.0613098 Eh/α   predicted    -0.1398879E-02 ( -22.19%)
   displ. norm   :     0.8269738 α      lambda       -0.3866309E-02
   maximum displ.:     0.5464455 α      in ANC's #9, #19, #18, ...

........................................................................
.............................. CYCLE   41 ..............................
........................................................................

 iter      E             dE          RMSdq      gap      omega  full diag
   1   -100.6655891 -0.100666E+03  0.343E-01    1.20       0.0  T
   2   -100.6652614  0.327783E-03  0.284E-01    0.94       1.0  T
   3   -100.6635396  0.172173E-02  0.314E-01    1.50       1.0  T
   4   -100.6719829 -0.844324E-02  0.109E-01    1.17       1.0  T
   5   -100.6717567  0.226206E-03  0.891E-02    1.22       1.0  T
   6   -100.6720873 -0.330689E-03  0.304E-02    1.19       1.0  T
   7   -100.6721631 -0.758005E-04  0.784E-03    1.16       1.5  T
   8   -100.6721684 -0.523837E-05  0.318E-03    1.17       3.7  T
   9   -100.6721687 -0.349621E-06  0.142E-03    1.17       8.3  T
  10   -100.6721688 -0.993773E-07  0.617E-04    1.17      19.1  T
  11   -100.6721689 -0.286738E-07  0.229E-04    1.17      51.5  T
     SCC iter.                  ...        0 min,  0.087 sec
     gradient                   ...        0 min,  0.069 sec
 * total energy  :  -100.6755126 Eh     change       -0.2059361E-02 Eh
   gradient norm :     0.1343253 Eh/α   predicted    -0.3255210E-02 (  58.07%)
   displ. norm   :     0.3221190 α      lambda       -0.5959971E-02
   maximum displ.:     0.1046775 α      in ANC's #14, #19, #7, ...

........................................................................
.............................. CYCLE   42 ..............................
........................................................................

 iter      E             dE          RMSdq      gap      omega  full diag
   1   -100.6730454 -0.100673E+03  0.107E-01    1.15       0.0  T
   2   -100.6729245  0.120931E-03  0.756E-02    1.21       1.0  T
   3   -100.6715821  0.134241E-02  0.117E-01    1.04       1.0  T
   4   -100.6729615 -0.137943E-02  0.368E-02    1.20       1.0  T
   5   -100.6731276 -0.166052E-03  0.301E-03    1.16       3.9  T
   6   -100.6731277 -0.166641E-06  0.192E-03    1.16       6.1  T
   7   -100.6731278 -0.425814E-07  0.988E-04    1.16      11.9  T
   8   -100.6731278 -0.138519E-07  0.260E-04    1.16      45.2  T
     SCC iter.                  ...        0 min,  0.063 sec
     gradient                   ...        0 min,  0.069 sec
 * total energy  :  -100.6784737 Eh     change       -0.2961038E-02 Eh
   gradient norm :     0.0974104 Eh/α   predicted    -0.3289189E-02 (  11.08%)
   displ. norm   :     0.5659603 α      lambda       -0.8335703E-02
   maximum displ.:     0.2722403 α      in ANC's #7, #4, #32, ...
 * RMSD in coord.:     0.7305041 α      energy gain  -0.1249223E-01 Eh

generating ANC from model Hessian ...
Using Lindh-Hessian (1995)
 Shifting diagonal of input Hessian by    9.9671270925533045E-003
 Lowest  eigenvalues of input Hessian
    0.000000    0.000000    0.000000    0.000000    0.000000    0.000000
    0.010000    0.010057    0.010232    0.010294    0.010340    0.010572
    0.010750    0.010879    0.010974    0.011547    0.011746    0.012574
 Highest eigenvalues
    2.043277    2.065460    2.086632    2.108250    2.178248    2.209590


........................................................................
.............................. CYCLE   43 ..............................
........................................................................

 iter      E             dE          RMSdq      gap      omega  full diag
   1   -100.6573965 -0.100657E+03  0.162E-01    1.09       0.0  T
   2   -100.6546677  0.272888E-02  0.173E-01    1.34       1.0  T
   3   -100.6557369 -0.106923E-02  0.157E-01    1.00       1.0  T
   4   -100.6578247 -0.208779E-02  0.502E-02    1.16       1.0  T
   5   -100.6580270 -0.202260E-03  0.111E-02    1.16       1.1  T
   6   -100.6580399 -0.129061E-04  0.430E-03    1.15       2.7  T
   7   -100.6580406 -0.715688E-06  0.225E-03    1.15       5.2  T
   8   -100.6580407 -0.110711E-06  0.846E-04    1.15      13.9  T
   9   -100.6580407 -0.276506E-07  0.260E-04    1.15      45.3  T
     SCC iter.                  ...        0 min,  0.072 sec
     gradient                   ...        0 min,  0.069 sec
 * total energy  :  -100.6801019 Eh     change       -0.1628274E-02 Eh
   gradient norm :     0.0852263 Eh/α   predicted     0.0000000E+00 (-100.00%)
   displ. norm   :     0.1376494 α      lambda       -0.4961567E-02
   maximum displ.:     0.0438817 α      in ANC's #14, #61, #112, ...

........................................................................
.............................. CYCLE   44 ..............................
........................................................................

 iter      E             dE          RMSdq      gap      omega  full diag
   1   -100.6645009 -0.100665E+03  0.640E-02    1.15       0.0  T
   2   -100.6644465  0.544137E-04  0.455E-02    1.12       1.0  T
   3   -100.6640421  0.404377E-03  0.687E-02    1.22       1.0  T
   4   -100.6644913 -0.449188E-03  0.221E-02    1.12       1.0  T
   5   -100.6645437 -0.524028E-04  0.392E-03    1.15       3.0  T
   6   -100.6645441 -0.420069E-06  0.248E-03    1.15       4.8  T
   7   -100.6645446 -0.473669E-06  0.101E-03    1.15      11.7  T
   8   -100.6645446 -0.271639E-07  0.368E-04    1.15      32.0  T
   9   -100.6645446 -0.641140E-08  0.139E-04    1.15      84.7  T
     SCC iter.                  ...        0 min,  0.072 sec
     gradient                   ...        0 min,  0.070 sec
 * total energy  :  -100.6802941 Eh     change       -0.1921639E-03 Eh
   gradient norm :     0.1372996 Eh/α   predicted    -0.2528093E-02 (1215.59%)
   displ. norm   :     0.0912787 α      lambda       -0.3785531E-02
   maximum displ.:     0.0341351 α      in ANC's #14, #11, #22, ...

........................................................................
.............................. CYCLE   45 ..............................
........................................................................

 iter      E             dE          RMSdq      gap      omega  full diag
   1   -100.6648043 -0.100665E+03  0.365E-02    1.15       0.0  T
   2   -100.6647846  0.196290E-04  0.262E-02    1.12       1.0  T
   3   -100.6646691  0.115505E-03  0.384E-02    1.18       1.0  T
   4   -100.6648209 -0.151757E-03  0.109E-02    1.13       1.1  T
   5   -100.6648307 -0.981634E-05  0.373E-03    1.14       3.2  T
   6   -100.6648310 -0.288110E-06  0.201E-03    1.14       5.9  T
   7   -100.6648314 -0.445021E-06  0.487E-04    1.14      24.2  T
   8   -100.6648314 -0.234381E-08  0.269E-04    1.14      43.8  T
     SCC iter.                  ...        0 min,  0.064 sec
     gradient                   ...        0 min,  0.069 sec
 * total energy  :  -100.6822306 Eh     change       -0.1936537E-02 Eh
   gradient norm :     0.0131952 Eh/α   predicted    -0.1908858E-02 (  -1.43%)
   displ. norm   :     0.1223796 α      lambda       -0.3497491E-03
   maximum displ.:     0.0500422 α      in ANC's #14, #11, #22, ...

........................................................................
.............................. CYCLE   46 ..............................
........................................................................

 iter      E             dE          RMSdq      gap      omega  full diag
   1   -100.6649560 -0.100665E+03  0.281E-02    1.14       0.0  T
   2   -100.6649459  0.100919E-04  0.197E-02    1.13       1.0  T
   3   -100.6648428  0.103094E-03  0.328E-02    1.18       1.0  T
   4   -100.6649651 -0.122343E-03  0.642E-03    1.14       1.8  T
   5   -100.6649668 -0.165759E-05  0.323E-03    1.14       3.6  T
   6   -100.6649675 -0.707816E-06  0.970E-04    1.14      12.1  T
   7   -100.6649676 -0.945379E-07  0.273E-04    1.14      43.1  T
     SCC iter.                  ...        0 min,  0.057 sec
     gradient                   ...        0 min,  0.069 sec
 * total energy  :  -100.6825334 Eh     change       -0.3027930E-03 Eh
   gradient norm :     0.0115829 Eh/α   predicted    -0.1774988E-03 ( -41.38%)
   displ. norm   :     0.3860703 α      lambda       -0.8245112E-03
   maximum displ.:     0.1584499 α      in ANC's #14, #11, #22, ...

........................................................................
.............................. CYCLE   47 ..............................
........................................................................

 iter      E             dE          RMSdq      gap      omega  full diag
   1   -100.6641962 -0.100664E+03  0.847E-02    1.14       0.0  T
   2   -100.6641274  0.687771E-04  0.571E-02    1.09       1.0  T
   3   -100.6630355  0.109192E-02  0.102E-01    1.25       1.0  T
   4   -100.6642582 -0.122268E-02  0.156E-02    1.12       1.0  T
   5   -100.6642657 -0.750349E-05  0.831E-03    1.13       1.4  T
   6   -100.6642708 -0.514071E-05  0.227E-03    1.13       5.2  T
   7   -100.6642713 -0.488693E-06  0.742E-04    1.13      15.9  T
   8   -100.6642713  0.196040E-08  0.454E-04    1.13      25.9  T
     SCC iter.                  ...        0 min,  0.064 sec
     gradient                   ...        0 min,  0.069 sec
 * total energy  :  -100.6830011 Eh     change       -0.4676455E-03 Eh
   gradient norm :     0.0078097 Eh/α   predicted    -0.4737185E-03 (   1.30%)
   displ. norm   :     0.1153174 α      lambda       -0.1099861E-03
   maximum displ.:     0.0463274 α      in ANC's #7, #11, #14, ...

........................................................................
.............................. CYCLE   48 ..............................
........................................................................

 iter      E             dE          RMSdq      gap      omega  full diag
   1   -100.6646659 -0.100665E+03  0.260E-02    1.13       0.0  T
   2   -100.6646658  0.886776E-07  0.156E-02    1.13       1.0  T
   3   -100.6646269  0.389255E-04  0.179E-02    1.15       1.0  T
   4   -100.6646647 -0.377864E-04  0.415E-03    1.12       2.8  T
   5   -100.6646667 -0.199427E-05  0.686E-04    1.13      17.2  T
   6   -100.6646667 -0.315976E-07  0.342E-04    1.13      34.4  T
   7   -100.6646667 -0.107667E-07  0.127E-04    1.13      93.0  T
     SCC iter.                  ...        0 min,  0.056 sec
     gradient                   ...        0 min,  0.069 sec
 * total energy  :  -100.6830914 Eh     change       -0.9032751E-04 Eh
   gradient norm :     0.0056620 Eh/α   predicted    -0.5577216E-04 ( -38.26%)
   displ. norm   :     0.2742634 α      lambda       -0.2382922E-03
   maximum displ.:     0.1206422 α      in ANC's #7, #11, #6, ...

........................................................................
.............................. CYCLE   49 ..............................
........................................................................

 iter      E             dE          RMSdq      gap      omega  full diag
   1   -100.6656637 -0.100666E+03  0.620E-02    1.13       0.0  T
   2   -100.6656617  0.196781E-05  0.375E-02    1.12       1.0  T
   3   -100.6654335  0.228279E-03  0.443E-02    1.18       1.0  T
   4   -100.6656526 -0.219122E-03  0.105E-02    1.12       1.1  T
   5   -100.6656669 -0.143278E-04  0.163E-03    1.13       7.2  T
   6   -100.6656672 -0.277162E-06  0.604E-04    1.13      19.5  T
   7   -100.6656672 -0.196952E-07  0.257E-04    1.13      45.9  T
     SCC iter.                  ...        0 min,  0.056 sec
     gradient                   ...        0 min,  0.075 sec
 * total energy  :  -100.6832549 Eh     change       -0.1634678E-03 Eh
   gradient norm :     0.0064073 Eh/α   predicted    -0.1281120E-03 ( -21.63%)
   displ. norm   :     0.2217155 α      lambda       -0.1263132E-03
   maximum displ.:     0.1063665 α      in ANC's #7, #6, #9, ...

........................................................................
.............................. CYCLE   50 ..............................
........................................................................

 iter      E             dE          RMSdq      gap      omega  full diag
   1   -100.6661975 -0.100666E+03  0.478E-02    1.13       0.0  T
   2   -100.6661879  0.953220E-05  0.300E-02    1.12       1.0  T
   3   -100.6658124  0.375511E-03  0.564E-02    1.19       1.0  T
   4   -100.6661967 -0.384293E-03  0.480E-03    1.13       2.5  T
   5   -100.6661999 -0.316332E-05  0.127E-03    1.13       9.3  T
   6   -100.6662000 -0.174999E-06  0.358E-04    1.13      32.9  T
   7   -100.6662000 -0.273042E-08  0.170E-04    1.13      69.2  T
     SCC iter.                  ...        0 min,  0.057 sec
     gradient                   ...        0 min,  0.069 sec
 * total energy  :  -100.6833506 Eh     change       -0.9568481E-04 Eh
   gradient norm :     0.0055893 Eh/α   predicted    -0.6627095E-04 ( -30.74%)
   displ. norm   :     0.2481472 α      lambda       -0.1278264E-03
   maximum displ.:     0.1250599 α      in ANC's #7, #9, #6, ...

........................................................................
.............................. CYCLE   51 ..............................
........................................................................

 iter      E             dE          RMSdq      gap      omega  full diag
   1   -100.6666532 -0.100667E+03  0.511E-02    1.14       0.0  T
   2   -100.6666399  0.133727E-04  0.322E-02    1.12       1.0  T
   3   -100.6661945  0.445331E-03  0.618E-02    1.20       1.0  T
   4   -100.6666527 -0.458198E-03  0.517E-03    1.13       2.3  T
   5   -100.6666564 -0.365258E-05  0.132E-03    1.13       8.9  T
   6   -100.6666566 -0.180586E-06  0.502E-04    1.13      23.5  T
   7   -100.6666566 -0.113961E-07  0.207E-04    1.13      56.8  T
     SCC iter.                  ...        0 min,  0.056 sec
     gradient                   ...        0 min,  0.071 sec
 * total energy  :  -100.6834432 Eh     change       -0.9263800E-04 Eh
   gradient norm :     0.0032886 Eh/α   predicted    -0.6785094E-04 ( -26.76%)
   displ. norm   :     0.2017022 α      lambda       -0.8276211E-04
   maximum displ.:     0.1046467 α      in ANC's #7, #9, #6, ...

........................................................................
.............................. CYCLE   52 ..............................
........................................................................

 iter      E             dE          RMSdq      gap      omega  full diag
   1   -100.6668296 -0.100667E+03  0.382E-02    1.14       0.0  T
   2   -100.6668270  0.263068E-05  0.231E-02    1.13       1.0  T
   3   -100.6666690  0.157967E-03  0.366E-02    1.18       1.0  T
   4   -100.6668276 -0.158658E-03  0.493E-03    1.13       2.4  T
   5   -100.6668309 -0.326736E-05  0.748E-04    1.13      15.7  T
   6   -100.6668310 -0.388681E-07  0.422E-04    1.13      28.0  T
[...]
         :: gradient norm              0.003092259315 Eh/a0 ::
         :: HOMO-LUMO gap              1.134872748328 eV    ::
         ::.................................................::
         :: SCC energy              -100.666719143760 Eh    ::
         :: -> isotropic ES            0.115770137657 Eh    ::
         :: -> anisotropic ES          0.008472822264 Eh    ::
         :: -> anisotropic XC          0.044515119300 Eh    ::
         :: -> dispersion             -0.075745523117 Eh    ::
         :: repulsion energy           1.481130310079 Eh    ::
         :: add. restraining          -1.499317821814 Eh    ::
         :: total charge               1.000000000000 e     ::
         :::::::::::::::::::::::::::::::::::::::::::::::::::::

           -------------------------------------------------
          |                Property Printout                |
           -------------------------------------------------

    * Orbital Energies and Occupations

         #    Occupation            Energy/Eh            Energy/eV
      -------------------------------------------------------------
         1        2.0000           -0.8991733             -24.4678
       ...           ...                  ...                  ...
        78        1.9994           -0.5192710             -14.1301
        79        1.9991           -0.5128954             -13.9566
        80        1.9990           -0.5114952             -13.9185
        81        1.9985           -0.5051093             -13.7447
        82        1.9976           -0.4983021             -13.5595
        83        1.9973           -0.4959868             -13.4965
        84        1.9967           -0.4928428             -13.4109
        85        1.9958           -0.4893170             -13.3150
        86        1.9879           -0.4723276             -12.8527
        87        1.9848           -0.4687298             -12.7548
        88        1.9581           -0.4524826             -12.3127
        89        1.9207           -0.4420643             -12.0292
        90        1.6334           -0.4152496             -11.2995 (HOMO)
        91        0.4847           -0.3735438             -10.1646 (LUMO)
        92        0.0207           -0.3193550              -8.6901
        93        0.0149           -0.3141220              -8.5477
        94        0.0055           -0.2982191              -8.1150
        95        0.0052           -0.2974615              -8.0943
        96        0.0043           -0.2945485              -8.0151
        97        0.0000           -0.1987698              -5.4088
        98        0.0000           -0.1785542              -4.8587
        99        0.0000           -0.1719273              -4.6784
       100                         -0.1173794              -3.1941
       101                         -0.0940831              -2.5601
       ...                                ...                  ...
       171                          0.7099100              19.3176
      -------------------------------------------------------------
                  HL-Gap            0.0417058 Eh            1.1349 eV
             Fermi-level           -0.3915916 Eh          -10.6557 eV

     #   Z          covCN         q      C6AA      α(0)
     1   7 N        1.773    -0.282    28.118     7.852
     2   6 C        2.827     0.100    25.767     8.318
     3   6 C        3.907     0.006    20.421     6.423
     4   6 C        2.975     0.000    28.023     8.683
     5   6 C        2.921    -0.081    30.026     8.986
     6   6 C        2.863     0.126    25.230     8.233
     7   8 O        1.706    -0.239    17.960     5.722
     8   6 C        3.645     0.031    20.393     6.491
     9   6 C        2.864     0.125    25.255     8.237
    10   8 O        1.706    -0.238    17.949     5.720
    11   6 C        3.645     0.030    20.397     6.491
    12   6 C        2.914    -0.076    29.893     8.966
    13   6 C        2.922    -0.054    29.347     8.884
    14   6 C        3.812    -0.063    21.698     6.630
    15   6 C        3.802    -0.067    21.783     6.645
    16   6 C        2.844    -0.002    28.072     8.683
    17   7 N        2.728    -0.003    21.318     6.857
    18   6 C        3.757    -0.012    20.836     6.508
    19   6 C        3.808    -0.068    21.805     6.647
    20   6 C        2.969     0.001    28.006     8.680
    21   6 C        2.942    -0.040    28.996     8.832
    22   6 C        1.980    -0.204    37.021     9.826
    23   6 C        2.871     0.050    26.871     8.497
    24   8 O        2.489    -0.129    16.220     5.439
    25   6 C        3.627    -0.021    21.379     6.660
    26   6 C        2.854     0.128    25.196     8.227
    27   8 O        1.704    -0.275    18.563     5.817
    28   6 C        3.644     0.032    20.367     6.487
    29   6 C        2.932    -0.084    30.106     8.998
    30   6 C        3.698    -0.065    21.914     6.696
    31   6 C        3.853    -0.007    20.670     6.466
    32   6 C        3.756    -0.117    22.791     6.807
    33   6 C        3.755    -0.118    22.816     6.811
    34   1 H        0.926     0.048     2.341     2.393
    35   1 H        0.924     0.050     2.321     2.383
    36   1 H        0.925     0.076     2.017     2.221
    37   1 H        0.924     0.043     2.408     2.427
    38   1 H        0.924     0.051     2.313     2.378
    39   1 H        0.925     0.076     2.020     2.222
    40   1 H        0.924     0.044     2.401     2.423
    41   1 H        0.926     0.047     2.360     2.402
    42   1 H        0.926     0.035     2.511     2.478
    43   1 H        0.925     0.056     2.244     2.342
    44   1 H        0.924     0.050     2.315     2.379
    45   1 H        0.925     0.063     2.162     2.299
    46   1 H        0.923     0.071     2.073     2.252
    47   1 H        0.922     0.001     3.043     2.728
    48   1 H        0.926     0.062     2.176     2.307
    49   1 H        0.924     0.060     2.203     2.321
    50   1 H        0.924     0.065     2.144     2.290
    51   1 H        0.924     0.053     2.277     2.360
    52   1 H        0.924     0.048     2.343     2.394
    53   1 H        0.926     0.034     2.533     2.489
    54   1 H        0.811     0.362     0.560     1.174
    55   1 H        0.925     0.102     1.765     2.077
    56   1 H        0.924     0.097     1.815     2.107
    57   1 H        0.925     0.126     1.567     1.957
    58   1 H        0.925     0.070     2.087     2.259
    59   1 H        0.924     0.047     2.353     2.399
    60   1 H        0.924     0.048     2.349     2.397
    61   1 H        0.926     0.039     2.456     2.451
    62   1 H        0.924     0.071     2.071     2.250
    63   1 H        0.924     0.075     2.028     2.227
    64   1 H        0.925     0.074     2.041     2.234
    65   1 H        0.924     0.033     2.544     2.494
    66   1 H        0.925     0.065     2.141     2.288
    67   1 H        0.925     0.033     2.539     2.492
    68   1 H        0.925     0.047     2.363     2.404
    69   1 H        0.925     0.061     2.185     2.312
    70   1 H        0.925     0.032     2.559     2.502
    71   1 H        0.925     0.050     2.322     2.383
    72   1 H        0.860     0.148     1.413     1.862

 Mol. C6AA /au·bohr⁶  :      47628.951479
 Mol. C8AA /au·bohr⁸  :    1088407.272562
 Mol. α(0) /au        :        334.979837


Wiberg/Mayer (AO) data.
largest (>0.10) Wiberg bond orders for each atom

 ---------------------------------------------------------------------------
     #   Z sym  total        # sym  WBO       # sym  WBO       # sym  WBO
 ---------------------------------------------------------------------------
     1   7 N    3.027 --     2 C    1.946    72 H    0.946
     2   6 C    3.926 --     1 N    1.946     3 C    0.996    47 H    0.910
     3   6 C    3.980 --     2 C    0.996     4 C    0.971    14 C    0.956
                            31 C    0.946
     4   6 C    3.960 --    13 C    1.423     5 C    1.365     3 C    0.971
     5   6 C    3.968 --     6 C    1.407     4 C    1.365    34 H    0.958
     6   6 C    3.915 --     5 C    1.407     9 C    1.233     7 O    1.087
     7   8 O    2.250 --     6 C    1.087     8 C    0.981
     8   6 C    3.937 --     7 O    0.981    36 H    0.977    35 H    0.975
                            37 H    0.975
     9   6 C    3.912 --    12 C    1.400     6 C    1.233    10 O    1.088
    10   8 O    2.248 --     9 C    1.088    11 C    0.981
    11   6 C    3.937 --    10 O    0.981    39 H    0.978    38 H    0.975
                            40 H    0.975
    12   6 C    3.969 --     9 C    1.400    13 C    1.399    41 H    0.964
    13   6 C    3.965 --     4 C    1.423    12 C    1.399    42 H    0.963
    14   6 C    3.971 --    15 C    0.981    44 H    0.973    43 H    0.969
                             3 C    0.956
    15   6 C    3.989 --    16 C    1.060    14 C    0.981    45 H    0.961
                            46 H    0.932
    16   6 C    3.528 --    17 N    1.361    15 C    1.060    48 H    0.959
    17   7 N    3.437 --    16 C    1.361    30 C    1.001    18 C    0.992
    18   6 C    3.962 --    17 N    0.992    19 C    0.967    50 H    0.967
                            49 H    0.966
    19   6 C    3.972 --    20 C    1.005    52 H    0.974    51 H    0.971
                            18 C    0.967
    20   6 C    3.942 --    21 C    1.420    29 C    1.386    19 C    1.005
    21   6 C    3.949 --    20 C    1.420    22 C    1.369    53 H    0.964
    22   6 C    3.007 --    23 C    1.450    21 C    1.369    29 C    0.102
    23   6 C    3.721 --    22 C    1.450    26 C    1.300    24 O    0.753
    24   8 O    2.583 --    25 C    0.902    54 H    0.855    23 C    0.753
    25   6 C    3.858 --    56 H    0.978    55 H    0.974    57 H    0.972
                            24 O    0.902
    26   6 C    3.906 --    29 C    1.381    23 C    1.300    27 O    1.060
    27   8 O    2.222 --    26 C    1.060    28 C    0.975
    28   6 C    3.937 --    58 H    0.979    59 H    0.977    60 H    0.977
                            27 O    0.975
    29   6 C    3.966 --    20 C    1.386    26 C    1.381    61 H    0.962
                            22 C    0.102
    30   6 C    3.961 --    17 N    1.001    64 H    0.979    62 H    0.969
                            63 H    0.963
    31   6 C    3.978 --    33 C    1.009    32 C    1.009    65 H    0.963
                             3 C    0.946
    32   6 C    3.985 --    31 C    1.009    68 H    0.983    67 H    0.983
                            66 H    0.977
    33   6 C    3.987 --    31 C    1.009    70 H    0.984    71 H    0.982
                            69 H    0.977
    34   1 H    0.997 --     5 C    0.958
    35   1 H    0.995 --     8 C    0.975
    36   1 H    0.994 --     8 C    0.977
    37   1 H    0.996 --     8 C    0.975
    38   1 H    0.995 --    11 C    0.975
    39   1 H    0.994 --    11 C    0.978
    40   1 H    0.995 --    11 C    0.975
    41   1 H    0.996 --    12 C    0.964
    42   1 H    0.998 --    13 C    0.963
    43   1 H    0.995 --    14 C    0.969
    44   1 H    0.997 --    14 C    0.973
    45   1 H    0.995 --    15 C    0.961
    46   1 H    0.969 --    15 C    0.932
    47   1 H    0.991 --     2 C    0.910
    48   1 H    0.996 --    16 C    0.959
    49   1 H    0.992 --    18 C    0.966
    50   1 H    0.994 --    18 C    0.967
    51   1 H    0.996 --    19 C    0.971
    52   1 H    0.996 --    19 C    0.974
    53   1 H    0.992 --    21 C    0.964
    54   1 H    0.868 --    24 O    0.855
    55   1 H    0.988 --    25 C    0.974
    56   1 H    0.991 --    25 C    0.978
    57   1 H    0.984 --    25 C    0.972
    58   1 H    0.994 --    28 C    0.979
    59   1 H    0.997 --    28 C    0.977
    60   1 H    0.997 --    28 C    0.977
    61   1 H    0.995 --    29 C    0.962
    62   1 H    0.985 --    30 C    0.969
    63   1 H    0.986 --    30 C    0.963
    64   1 H    0.994 --    30 C    0.979
    65   1 H    0.995 --    31 C    0.963
    66   1 H    0.993 --    32 C    0.977
    67   1 H    0.998 --    32 C    0.983
    68   1 H    0.996 --    32 C    0.983
    69   1 H    0.994 --    33 C    0.977
    70   1 H    0.998 --    33 C    0.984
    71   1 H    0.995 --    33 C    0.982
    72   1 H    0.974 --     1 N    0.946
 ---------------------------------------------------------------------------

Topologies differ in total number of bonds
Writing topology from bond orders to xtbtopo.mol

molecular dipole:
                 x           y           z       tot (Debye)
 q only:        5.567       0.184      -0.458
   full:        5.821      -0.295      -0.455      14.860
molecular quadrupole (traceless):
                xx          xy          yy          xz          yz          zz
 q only:      127.031      13.811     -56.372      14.444      -7.096     -70.659
  q+dip:      121.973      12.914     -55.834      21.637     -10.277     -66.139
   full:      122.323      12.007     -57.198      18.659     -10.034     -65.125

           -------------------------------------------------
          |                Geometry Summary                 |
           -------------------------------------------------

      molecular mass/u    :      455.6105846
   center of mass at/Å    :       -0.0385080       0.0828757       0.0050321
  moments of inertia/u·Å² :        0.2392279E+04   0.1091400E+05   0.1208225E+05
rotational constants/cm⁻¹ :        0.7046683E-02   0.1544588E-02   0.1395239E-02

 * 64 selected distances

     #   Z          #   Z                                           value/Å
     1   7 N        2   6 C                                       1.2512764
     4   6 C        5   6 C                                       1.3966196
     5   6 C        6   6 C                                       1.3837810
     6   6 C        7   8 O                                       1.3531676
     7   8 O        8   6 C                                       1.4072635
     6   6 C        9   6 C                                       1.4185457
     9   6 C       10   8 O                                       1.3524522
    10   8 O       11   6 C                                       1.4074695
     9   6 C       12   6 C                                       1.3846151
     4   6 C       13   6 C                                       1.3847014
    12   6 C       13   6 C                                       1.3899359
    14   6 C       15   6 C                                       1.5402246 (max)
    15   6 C       16   6 C                                       1.4781913
    16   6 C       17   7 N                                       1.3353858
    17   7 N       18   6 C                                       1.4417855
    20   6 C       21   6 C                                       1.3894879
    22   6 C       23   6 C                                       1.3652524
    23   6 C       24   8 O                                       1.5021410
    24   8 O       25   6 C                                       1.4476763
    23   6 C       26   6 C                                       1.3973303
    26   6 C       27   8 O                                       1.3611725
    27   8 O       28   6 C                                       1.4111834
    20   6 C       29   6 C                                       1.3948999
    26   6 C       29   6 C                                       1.3887448
    17   7 N       30   6 C                                       1.4421442
    31   6 C       32   6 C                                       1.5270887
    31   6 C       33   6 C                                       1.5265349
     5   6 C       34   1 H                                       1.0772399
     8   6 C       35   1 H                                       1.0943672
     8   6 C       36   1 H                                       1.0882202
     8   6 C       37   1 H                                       1.0953247
    11   6 C       38   1 H                                       1.0942934
    11   6 C       39   1 H                                       1.0883030
    11   6 C       40   1 H                                       1.0950474
    12   6 C       41   1 H                                       1.0780428
    13   6 C       42   1 H                                       1.0791220
    14   6 C       43   1 H                                       1.0896763
    14   6 C       44   1 H                                       1.0907631
    15   6 C       45   1 H                                       1.0885619
    15   6 C       46   1 H                                       1.0982392
    16   6 C       48   1 H                                       1.0791015
    18   6 C       49   1 H                                       1.0934315
    18   6 C       50   1 H                                       1.0928903
    19   6 C       51   1 H                                       1.0916793
    19   6 C       52   1 H                                       1.0906825
    21   6 C       53   1 H                                       1.0811987
    24   8 O       54   1 H                                       0.7355659 (min)
    25   6 C       55   1 H                                       1.0886173
    25   6 C       56   1 H                                       1.0910919
    25   6 C       57   1 H                                       1.0881923
    28   6 C       58   1 H                                       1.0880747
    28   6 C       59   1 H                                       1.0928484
    28   6 C       60   1 H                                       1.0935341
    29   6 C       61   1 H                                       1.0781233
    30   6 C       62   1 H                                       1.0922896
    30   6 C       63   1 H                                       1.0934052
    30   6 C       64   1 H                                       1.0868723
    31   6 C       65   1 H                                       1.0963090
    32   6 C       66   1 H                                       1.0850688
    32   6 C       67   1 H                                       1.0872713
    32   6 C       68   1 H                                       1.0868653
    33   6 C       69   1 H                                       1.0852935
    33   6 C       70   1 H                                       1.0867102
    33   6 C       71   1 H                                       1.0869070

 * 5 distinct bonds (by element types)

   Z      Z             #   av. dist./Å        max./Å        min./Å
   1 H    6 C          36     1.0887128     1.0982392     1.0772399
   6 C    6 C          15     1.4243969     1.5402246     1.3652524
   6 C    7 N           4     1.3676480     1.4421442     1.2512764
   1 H    8 O           1     0.7355659     0.7355659     0.7355659
   6 C    8 O           8     1.4053158     1.5021410     1.3524522


optimized geometry written to: xtbopt.xyz


           -------------------------------------------------
          | TOTAL ENERGY             -100.683542567850 Eh   |
          | GRADIENT NORM               0.003092259315 Eh/α |
          | HOMO-LUMO GAP               1.134872748328 eV   |
           -------------------------------------------------

------------------------------------------------------------------------
 * finished run on 2024/04/06 at 11:17:10.308     
------------------------------------------------------------------------
 total:
 * wall-time:     0 d,  0 h,  0 min,  9.202 sec
 *  cpu-time:     0 d,  0 h,  0 min,  9.179 sec
 * ratio c/w:     0.997 speedup
 SCF:
 * wall-time:     0 d,  0 h,  0 min,  0.192 sec
 *  cpu-time:     0 d,  0 h,  0 min,  0.192 sec
 * ratio c/w:     0.998 speedup
 ANC optimizer:
 * wall-time:     0 d,  0 h,  0 min,  8.969 sec
 *  cpu-time:     0 d,  0 h,  0 min,  8.963 sec
 * ratio c/w:     0.999 speedup

