25
 energy: -43.832515965620 gnorm: 0.099757893456 xtb: 6.6.1 (8d0f1dd)
C            3.23354067880320        1.17153287941376        0.07837869131311
N            2.30061915296309        0.08602262202060        0.03420885292793
C            2.59030837984592       -1.22632823356936        0.03058962462476
N            1.43503230542388       -1.94215589228482        0.00318765470896
C            0.39401405951216       -1.06776807334083       -0.00714636319139
C            0.92634595072453        0.21024262017241        0.01361183180265
C            0.09722797417127        1.38999651662060       -0.00514712546099
O            0.49382674210892        2.54644683020558       -0.01476710181344
N           -1.27279617535930        1.04931084724924       -0.02897289839377
C           -2.19406783560412        2.18584143727645       -0.03750027373758
C           -1.82705245036548       -0.21345516911986       -0.05273896677217
O           -3.01075198068420       -0.39022660179694       -0.07096038003443
N           -0.93088130303766       -1.31094972357008       -0.03635491165266
C           -1.46543838542267       -2.65585558163430       -0.05709459844308
H            3.70939746081288        1.22280746335376        1.05986328013309
H            4.00377779172883        1.03548281751912       -0.68045729076240
H            2.69137988223332        2.09669361394515       -0.09814192427532
H            3.57379006537943       -1.64777856505369        0.04367612597297
H           -1.70475915853740        3.19404864497837        0.03134088518464
H           -2.75582325825792        2.18336322367380       -0.94062855747896
H           -2.92269734838877        2.04675366847019        0.75999202044634
H           -1.16379745521650       -3.20379926545756        0.83657101043801
H           -1.13596553882931       -3.18696544588640       -0.95123878992735
H           -2.55123391967636       -2.57324784771892       -0.07347292231286
H            1.37497579514188       -2.95104931683926       -0.00765822781293
25
 energy: -43.836376672054 gnorm: 0.037343320345 xtb: 6.6.1 (8d0f1dd)
C            3.24111071316329        1.17873141149832        0.08078528326461
N            2.30771806763437        0.09832624567942        0.03264786638388
C            2.60123996153709       -1.23852275960132        0.03080975075808
N            1.42404569409227       -1.94177599939802        0.00315640022504
C            0.39646002425152       -1.05938397134654       -0.00707386296099
C            0.92500605335658        0.22179312088138        0.01227151625154
C            0.10511933234161        1.38892003069202       -0.00800240150297
O            0.49471797110989        2.55931688142791       -0.01597277033486
N           -1.27309392609769        1.05057810448825       -0.02867799405970
C           -2.21387156399888        2.16370741539446       -0.04376985182977
C           -1.82940830347839       -0.20209424222240       -0.04802287333455
O           -3.02582060069338       -0.38626921984503       -0.07200102556022
N           -0.93828238455031       -1.30051056921898       -0.03574141420069
C           -1.46846103626386       -2.64570439564847       -0.05738089344835
H            3.72038188565088        1.22982277449448        1.06287966587737
H            4.00970979623336        1.04451645827438       -0.68227630217232
H            2.69195617879896        2.10117448627770       -0.09592183250564
H            3.57832790316523       -1.66482931996973        0.04379993770952
H           -1.66669396380739        3.11378150140314        0.04901201088805
H           -2.77226669350693        2.17180518787083       -0.97280593229982
H           -2.92272264024393        2.05224157070445        0.77757127122733
H           -1.16265588804163       -3.19610648250107        0.83524306468028
H           -1.13516985746278       -3.17936828667700       -0.95047250541967
H           -2.55434795322343       -2.56515215281281       -0.07335927976517
H            1.35597265950317       -2.94603432121836       -0.00755818238785
25
 energy: -43.837578558563 gnorm: 0.013997120618 xtb: 6.6.1 (8d0f1dd)
C            3.23576048861945        1.17621075561841        0.07958351425890
N            2.30417445558695        0.10022381776199        0.03054141158631
C            2.60617051021076       -1.24361206775184        0.03145078641343
N            1.42429423915817       -1.94694626144448        0.00340475888338
C            0.39932465953349       -1.06575504817814       -0.00752857082221
C            0.91946141196545        0.21948687565219        0.01227016897780
C            0.11149181455581        1.38268289020398       -0.00573154557602
O            0.50018662169735        2.55665271715230       -0.01036366964188
N           -1.27150362233239        1.05746842323421       -0.02596568428335
C           -2.20802742280824        2.18141017620167       -0.03818941392311
C           -1.82231137645552       -0.19671389009671       -0.04915329652782
O           -3.02167688132286       -0.38764674068044       -0.07289232458321
N           -0.93946643964879       -1.30371234059899       -0.03697456679729
C           -1.46578591212674       -2.65158911467818       -0.05731903994401
H            3.71134914727220        1.22512764888293        1.06346058982377
H            4.00503202061267        1.03671234773103       -0.68220152970194
H            2.68651889742191        2.09808715771834       -0.10056185842277
H            3.58301496086385       -1.65913624718758        0.04365879447086
H           -1.70213007557429        3.14873699389494        0.04202601217367
H           -2.76722523725924        2.18133390187305       -0.96901418479548
H           -2.92090592998434        2.05877969471298        0.77417253903066
H           -1.16057343698206       -3.20439872967225        0.83539472425794
H           -1.13216857966159       -3.18893733098862       -0.94929898646766
H           -2.55145400465468       -2.57523082644706       -0.07393588511175
H            1.36542112078230       -2.95027133428671       -0.00769309779509
25
 energy: -43.837685279502 gnorm: 0.008536102434 xtb: 6.6.1 (8d0f1dd)
C            3.23754824457850        1.17587217312331        0.08124120729264
N            2.30136231873239        0.10326360936424        0.03083858275326
C            2.60382866201567       -1.24017212306493        0.03212143827462
N            1.42339332345393       -1.94427763104424        0.00395484266347
C            0.39901449460528       -1.06724191308233       -0.00687488524697
C            0.91598134062602        0.21968864366219        0.01220537549175
C            0.10763414333701        1.37828172015541       -0.01011531884004
O            0.48688880442161        2.55410950738036       -0.02020681433966
N           -1.27503523559833        1.05168243586847       -0.02849254157525
C           -2.20164829060285        2.18102717184110       -0.03506483606569
C           -1.82240717738387       -0.20148776845828       -0.05019744336049
O           -3.01995423689273       -0.39743542777360       -0.07068982289921
N           -0.93996791060803       -1.30612472323744       -0.03665936636903
C           -1.46972887514836       -2.65014872742385       -0.05709643871891
H            3.71760424358790        1.22353996825592        1.06258172060250
H            4.00679857677773        1.03957307173931       -0.68107439114747
H            2.69489767040170        2.10201075948349       -0.09376356360527
H            3.58038739919576       -1.65087299018228        0.04326586849509
H           -1.68608832315290        3.14913483672751        0.03941147212964
H           -2.76312765212440        2.17916535033698       -0.96084126327109
H           -2.91947511288965        2.04815284960233        0.77028104320096
H           -1.16610544247795       -3.20145168977260        0.83676989028934
H           -1.13926467672216       -3.18372076522708       -0.95214290717408
H           -2.55490606585156       -2.56547593355383       -0.07273733785245
H            1.37134120718892       -2.94812893609315       -0.00757486524452
25
 energy: -43.837788193258 gnorm: 0.004661373138 xtb: 6.6.1 (8d0f1dd)
C            3.23722585117937        1.17383565544450        0.07896989533928
N            2.30218582244263        0.10032240056346        0.03095824965750
C            2.60179633486828       -1.24330563272556        0.03267276537029
N            1.42014771000892       -1.94407053834358        0.00389476616473
C            0.39817544787646       -1.06565792291910       -0.00635715801244
C            0.91717154676607        0.22025489795483        0.01438387393591
C            0.11046809317956        1.38064141358539       -0.00419028436989
O            0.49150880173435        2.55530650703951       -0.01047497881777
N           -1.27431162437814        1.05447313902614       -0.02692266901163
C           -2.20530926331586        2.17986862405529       -0.03721378891124
C           -1.82223978537397       -0.19763721727404       -0.04995970028509
O           -3.01954449478926       -0.39114417865901       -0.07322150089536
N           -0.94050177546901       -1.30317498142026       -0.03641777558605
C           -1.46589381336765       -2.64909290533083       -0.05740597905648
H            3.71507730684348        1.22748781020717        1.06110270041871
H            4.00733701681471        1.03826622395718       -0.68260858080681
H            2.69098197995859        2.09738102093418       -0.10042497081402
H            3.57766706940068       -1.65726083326575        0.04311902324137
H           -1.68761065311788        3.14653576250094        0.04069917135333
H           -2.76616165972399        2.17705906902992       -0.96343417278148
H           -2.92377422017603        2.05009157244970        0.76876146558235
H           -1.15954321097810       -3.19873558899570        0.83621810353940
H           -1.13073983588687       -3.18232053412301       -0.95068349795405
H           -2.55155136603503       -2.57188187816707       -0.07430222960005
H            1.36641015100834       -2.94827841689727       -0.00802308221736
25
 energy: -43.837785417945 gnorm: 0.004400015315 xtb: 6.6.1 (8d0f1dd)
C            3.23644676976561        1.17514182316228        0.08175492064190
N            2.30397164289268        0.09991478998092        0.02979520278835
C            2.60422820047182       -1.24359844672441        0.03136573515433
N            1.42236917743826       -1.94433369244959        0.00220874202525
C            0.39966355397741       -1.06660808276735       -0.00854576036266
C            0.91879210768722        0.21987769741503        0.01095754873614
C            0.11321062079121        1.38128107193981       -0.00973080440406
O            0.49552926167985        2.55552933370580       -0.01759966568913
N           -1.27336923698275        1.05519217112323       -0.02903567617145
C           -2.20711036346088        2.17904591508577       -0.03834218547516
C           -1.82141174802472       -0.19701326024985       -0.04905198760229
O           -3.01914778958574       -0.38972103586422       -0.07037708391588
N           -0.93981482744883       -1.30371035336625       -0.03705706299595
C           -1.46761768939390       -2.64989263858549       -0.05687482694096
H            3.71266096663369        1.22552628543120        1.06506570475693
H            4.00679502644303        1.04158929873993       -0.67989667251947
H            2.68842746230917        2.09869894133067       -0.09549905017352
H            3.58124301326702       -1.65714696269576        0.04329253529857
H           -1.69198825785449        3.14518079138175        0.04143226199979
H           -2.77000365063932        2.17813525397387       -0.96420620697004
H           -2.92038372762722        2.05466770331581        0.77377161525737
H           -1.16305971715855       -3.20226881304096        0.83568597686273
H           -1.13670666197376       -3.18669516262973       -0.94963077564772
H           -2.55324324849945       -2.57093224048889       -0.07230371961980
H            1.36949054476230       -2.94889691909658       -0.00803911955014
25
 energy: -43.837819594191 gnorm: 0.002311058719 xtb: 6.6.1 (8d0f1dd)
C            3.23727966441961        1.17506662598002        0.07946971153150
N            2.30313574384870        0.10104931320226        0.03073100976578
C            2.60358720025378       -1.24248861670853        0.03280856153351
N            1.42201235925011       -1.94365611624851        0.00438986334278
C            0.39912683345225       -1.06660051475614       -0.00634870496443
C            0.91751289943362        0.22044341015358        0.01372020660799
C            0.11142112988907        1.38077944505879       -0.00598747604785
O            0.49142113618377        2.55578712362328       -0.01326948640877
N           -1.27500560139373        1.05381445212471       -0.02736377183096
C           -2.20586233358878        2.17951264253956       -0.03778467225064
C           -1.82257189718582       -0.19850287079961       -0.04944849639054
O           -3.02022161156357       -0.39274234905835       -0.07266320849629
N           -0.94027572713618       -1.30437330217365       -0.03625092547952
C           -1.46766694256371       -2.65023501329219       -0.05763865097310
H            3.71648186677473        1.22525617810695        1.06130105717229
H            4.00585331650077        1.03812070407072       -0.68340638645776
H            2.69198412674447        2.10011889890065       -0.09803112477396
H            3.58082500687923       -1.65489778014355        0.04336786413894
H           -1.69031740202450        3.14586686784133        0.04246688317648
H           -2.76510907563930        2.17963299329193       -0.96554080686348
H           -2.92205296718503        2.05329384613655        0.77115164296336
H           -1.16401172129697       -3.20259433183698        0.83537755971405
H           -1.13533085229326       -3.18530275260361       -0.95100620489830
H           -2.55323678701189       -2.57011977643812       -0.07441314119503
H            1.36999306472227       -2.94826560834408       -0.00649165743292
25
 energy: -43.837814165290 gnorm: 0.002583727409 xtb: 6.6.1 (8d0f1dd)
C            3.23687712530792        1.17426938958005        0.08083361771547
N            2.30250913818416        0.10038529519873        0.03036036039118
C            2.60205088431435       -1.24335444079440        0.03201105831373
N            1.42034636367882       -1.94381453143125        0.00230481955822
C            0.39838746797642       -1.06632855713154       -0.00771393575578
C            0.91694407443438        0.22046835370698        0.01247794190756
C            0.11151285454538        1.38061108031704       -0.00736514828453
O            0.49075356415754        2.55564388680332       -0.01451716070350
N           -1.27506273614130        1.05375183227594       -0.02796775529452
C           -2.20471653801272        2.17980901432252       -0.03703054556327
C           -1.82276726066645       -0.19811973363636       -0.04999336562389
O           -3.02023153789245       -0.39258393752509       -0.07172592628237
N           -0.94063556400495       -1.30368493236482       -0.03691071917214
C           -1.46640715642050       -2.64940459323774       -0.05662866399908
H            3.71369202928709        1.22600771877668        1.06364792629249
H            4.00779952936615        1.03865640094378       -0.67991977184560
H            2.69129445035030        2.09860046884840       -0.09810670355658
H            3.57868146893895       -1.65618480564971        0.04270804243822
H           -1.68844519541006        3.14704225250288        0.03958064870710
H           -2.76587596141635        2.17770393312142       -0.96295381831266
H           -2.92103048271349        2.05064030801224        0.77114458968652
H           -1.15972483668706       -3.19881940654115        0.83717694961144
H           -1.13268546131792       -3.18319541475616       -0.95022134060809
H           -2.55209260099767       -2.57073298779493       -0.07243399563751
H            1.36779781060907       -2.94840312491982       -0.00961745849927
25
 energy: -43.837829666367 gnorm: 0.000921959135 xtb: 6.6.1 (8d0f1dd)
C            3.23686632688141        1.17478758370116        0.08001516795869
N            2.30328512407151        0.10020378862945        0.03045715708099
C            2.60303427933930       -1.24339414254639        0.03262280881870
N            1.42137855935293       -1.94398270660367        0.00386277080171
C            0.39903790813632       -1.06670869180078       -0.00692155468779
C            0.91768392336124        0.22019912256354        0.01303829817022
C            0.11255332732273        1.38076112332040       -0.00701269753989
O            0.49249607367040        2.55551248405043       -0.01453938800226
N           -1.27447031727563        1.05410419660316       -0.02776467390461
C           -2.20555537064964        2.17937977625645       -0.03739746191197
C           -1.82207185491299       -0.19778860656154       -0.04954252202263
O           -3.01955977542984       -0.39175912361351       -0.07188340813108
N           -0.94019777286814       -1.30388222658660       -0.03657080919318
C           -1.46737791180567       -2.64956074385623       -0.05752688506473
H            3.71495690248742        1.22637910559623        1.06225770764614
H            4.00654542279944        1.04009139623064       -0.68217557277771
H            2.69003840154460        2.09871596656006       -0.09766592655660
H            3.57995478760217       -1.65615342541940        0.04339282482134
H           -1.68974938783822        3.14631502721943        0.04107999744234
H           -2.76678197110380        2.17798109168718       -0.96360150689975
H           -2.92175566243597        2.05166318772375        0.77123558958461
H           -1.16270597004640       -3.20101125698901        0.83563737880775
H           -1.13467208759683       -3.18416787319510       -0.95097511294960
H           -2.55299570453212       -2.57009009347742       -0.07395646342925
H            1.36903417939543       -2.94863149086522       -0.00692607257828
25
 energy: -43.837815596354 gnorm: 0.002328324754 xtb: 6.6.1 (8d0f1dd)
C            3.23760725038980        1.17465630730198        0.08077322994762
N            2.30316580818596        0.10096144886166        0.03031662017298
C            2.60314037233035       -1.24244782916461        0.03161163239122
N            1.42172855690698       -1.94323878854620        0.00222773683777
C            0.39887689238187       -1.06637644363363       -0.00756602642446
C            0.91726291527791        0.22088225912153        0.01280211388382
C            0.11165375471243        1.38122521931366       -0.00656238040692
O            0.49090838733865        2.55624221741416       -0.01346388325339
N           -1.27562119895588        1.05400046983413       -0.02789213800225
C           -2.20640068596835        2.17973605259802       -0.03841115156057
C           -1.82289747493824       -0.19817744012100       -0.04965804984542
O           -3.02044605323079       -0.39250517504944       -0.07234381042951
N           -0.94041635648191       -1.30420564181872       -0.03658374951950
C           -1.46703161723482       -2.65058546903210       -0.05636830920065
H            3.71544993021419        1.22401017688386        1.06331895929075
H            4.00714837998240        1.03739754182711       -0.68108061288727
H            2.69319764104838        2.10010104380397       -0.09708586782826
H            3.58047457698702       -1.65483885302637        0.04214023972629
H           -1.68997715964896        3.14568090678644        0.04218038907357
H           -2.76613714991366        2.18027942401059       -0.96594398166544
H           -2.92251731287193        2.05468066927758        0.77084747451086
H           -1.16223375558543       -3.20207768666721        0.83677572153717
H           -1.13500544369776       -3.18667544163606       -0.94921348827078
H           -2.55269647256311       -2.57185624215922       -0.07225025149078
H            1.36973764480453       -2.94790525755313       -0.00943077110373
25
 energy: -43.826517470901 gnorm: 0.091134425662 xtb: 6.6.1 (8d0f1dd)
C            3.22944318614555        1.17453509025178        0.07206671870559
N            2.29921193370031        0.09331559958978        0.02505076576245
C            2.59954460898508       -1.23886995506691        0.03125653187937
N            1.43172210323701       -1.94990370157647        0.00561898059811
C            0.39670536829354       -1.07687756705119       -0.00594375139742
C            0.91810917781800        0.20612901713592        0.00996414953487
C            0.09940867730530        1.37494306399548       -0.00685368288391
O            0.48528497030211        2.53690526453557       -0.02617962248367
N           -1.29600461881556        1.04602632249204       -0.01667001510484
C           -2.17123835945796        2.21725072027828       -0.02301290491075
C           -1.83797295803597       -0.22549235808388       -0.04657711537903
O           -3.01984927312003       -0.40276166253795       -0.07138164280428
N           -0.93581848339634       -1.31952941013386       -0.03552777563712
C           -1.46085356497286       -2.66511380849255       -0.05379465810674
H            3.70609365654849        1.23025083264241        1.05428375053416
H            3.99958432839705        1.03659484895001       -0.68731069668133
H            2.68378755185308        2.09557500970443       -0.10507860453947
H            3.58089672343074       -1.65875893674651        0.04533680582302
H           -1.73457919786898        3.28513863083714        0.10211026831054
H           -2.68776329134460        2.27298237406982       -0.94150867812349
H           -2.96930770881622        2.01493811210318        0.70626028214174
H           -1.15682828400812       -3.21150832176289        0.84083298641718
H           -1.12617426515053       -3.19861214412710       -0.94550064367844
H           -2.54691600067092       -2.58987954251151       -0.07233182143974
H            1.37131118777580       -2.95895285878896       -0.00040739061813
25
 energy: -43.831585036284 gnorm: 0.036404712938 xtb: 6.6.1 (8d0f1dd)
C            3.23674334747622        1.17825048361699        0.07407365085277
N            2.30532652064152        0.09890136242710        0.02423713909023
C            2.60363463295573       -1.24576262959597        0.03148924973071
N            1.42146201011869       -1.94607214132265        0.00619925606272
C            0.39655068422261       -1.06558086305778       -0.00506720927727
C            0.91946825155341        0.21776858150725        0.00942542197021
C            0.10799346022689        1.38091345429042       -0.00982376907762
O            0.49066556886723        2.55219249387062       -0.02739985099638
N           -1.28628084556996        1.05414417642967       -0.01780976983299
C           -2.20712563138295        2.18509939331313       -0.03644590351742
C           -1.83543776011213       -0.20524337005939       -0.04289804626745
O           -3.03097870886846       -0.39246915401640       -0.07054223152062
N           -0.94175809084026       -1.30256908146493       -0.03377366573269
C           -1.46472248934550       -2.65072730431406       -0.05365518633436
H            3.71591780171061        1.23397742260489        1.05660797770501
H            4.00626885175969        1.04467257899900       -0.68839548953727
H            2.68603091036433        2.09930162329362       -0.10391124542323
H            3.58023594243482       -1.67009055691456        0.04450802192817
H           -1.68415949479142        3.15664563393253        0.13580761750515
H           -2.71021438901743        2.25378840204671       -0.99192102306173
H           -2.97248295580609        2.03013871246235        0.73100271833798
H           -1.15720399293451       -3.20051743503880        0.83956025507002
H           -1.12647058731792       -3.18708769071316       -0.94410643971452
H           -2.55110100778718       -2.58038125317901       -0.07215844417889
H            1.35543543957605       -2.95096821941152       -0.00030079786186
25
 energy: -43.833495620850 gnorm: 0.012956385603 xtb: 6.6.1 (8d0f1dd)
C            3.23094392797864        1.17589544416389        0.07321023570915
N            2.30247533301070        0.09616509259671        0.02290306942051
C            2.60604461143113       -1.24982759934453        0.03181166033652
N            1.42278603985958       -1.95188500234926        0.00570983922334
C            0.39766137333887       -1.07266919681008       -0.00608610505669
C            0.91598251175626        0.21303944534131        0.00953073445781
C            0.11106693287200        1.37567123890905       -0.00699153866050
O            0.49464368733993        2.54838401545764       -0.02053516366915
N           -1.28187928116813        1.06149770605859       -0.01205886781494
C           -2.19644837273946        2.20693205671517       -0.02426046862405
C           -1.82960098250807       -0.19998759900632       -0.04325170248695
O           -3.02722615879639       -0.39488012054754       -0.07050795008293
N           -0.94268672758390       -1.30636934788141       -0.03510757173187
C           -1.46199126975559       -2.65825434743565       -0.05444057858459
H            3.70790698074930        1.23185180620500        1.05654926687168
H            4.00081201410997        1.04046141898451       -0.68869375393200
H            2.67883229365422        2.09639750244282       -0.10694481037195
H            3.58377201899195       -1.66676280125239        0.04488930028310
H           -1.72996197929227        3.19886549875479        0.11310389702560
H           -2.69889029849591        2.26523924370339       -0.98118219555607
H           -2.96469807496248        2.03361915637219        0.72648775117368
H           -1.15415029189833       -3.20983756829998        0.83870835216371
H           -1.12335295540812       -3.19728306715969       -0.94414975115136
H           -2.54812313637154       -2.59152751998515       -0.07291054632224
H            1.36387927202161       -2.95641083592701       -0.00108086670113
25
 energy: -43.833477733464 gnorm: 0.010902529288 xtb: 6.6.1 (8d0f1dd)
C            3.23293351750057        1.17705386050569        0.07422857741891
N            2.30018695898230        0.10016188176023        0.02265595270527
C            2.60528680593127       -1.24556285613998        0.03287129857114
N            1.42318684752531       -1.94974134977481        0.00739776551363
C            0.39730978082998       -1.07440645331242       -0.00609242377487
C            0.91230706822688        0.21307944465230        0.00764147285863
C            0.10319227472278        1.37012078378694       -0.01423116662073
O            0.47903042377818        2.54523804659088       -0.03365871487329
N           -1.28733097753728        1.05466853897659       -0.01797337682646
C           -2.18892870680091        2.21114180827803       -0.01836718778567
C           -1.83248439100722       -0.20617768331357       -0.04814382246212
O           -3.02841896585220       -0.40899335989152       -0.07336882863116
N           -0.94363174323197       -1.31016429455716       -0.03590913360427
C           -1.46534253411944       -2.65887597256187       -0.05287263148632
H            3.71248267967589        1.23089837484893        1.05614948422493
H            4.00324860638498        1.04036346297351       -0.68714318463843
H            2.68765709072214        2.10150396265236       -0.10331028509733
H            3.58344183115791       -1.65859586570184        0.04543573633311
H           -1.70668855217624        3.20464058006517        0.12449576588892
H           -2.69442318465283        2.27254089119108       -0.97087070945517
H           -2.96572406570189        2.01903940004915        0.71711585644822
H           -1.15946661630192       -3.20685556819671        0.84292246724715
H           -1.12875500759431       -3.19551475705635       -0.94441702758526
H           -2.55083139363935       -2.58275154173005       -0.07123056536185
H            1.36955972131134       -2.95448671438853        0.00137691691173
25
 energy: -43.833706772244 gnorm: 0.004856100829 xtb: 6.6.1 (8d0f1dd)
C            3.23338760620953        1.17528042753791        0.07352681098975
N            2.30173341740376        0.09795425410791        0.02361124391124
C            2.60459743406421       -1.24883224659321        0.03215519170821
N            1.42068871510116       -1.94996538576283        0.00593673572299
C            0.39739870917254       -1.07262403888128       -0.00420039824370
C            0.91419505617389        0.21394315523892        0.01202595456847
C            0.10706548485808        1.37246326153045       -0.00581642336569
O            0.48634137873531        2.54681143997254       -0.02270702810460
N           -1.28486078169133        1.05775755613968       -0.01332765313267
C           -2.19431720104253        2.20868897970482       -0.02443992589520
C           -1.83102597374328       -0.20135212570310       -0.04120016356343
O           -3.02708420103577       -0.40187199158078       -0.06906711962664
N           -0.94358723152261       -1.30682738650089       -0.03301768934471
C           -1.46285518578489       -2.65648991396802       -0.05450015382740
H            3.71232876608528        1.23191866544922        1.05558523901713
H            4.00303873130042        1.04032395504303       -0.68886167407165
H            2.68407561189718        2.09722070280246       -0.10517446542560
H            3.58163135086877       -1.66492280782314        0.04293332830288
H           -1.71354182942034        3.20180401554548        0.11277882537340
H           -2.70201377046789        2.25865284266849       -0.97737142236385