25
 energy: 0.000000000000 xtb: 6.6.1 (8d0f1dd)
C            3.23720132972391        1.16630909158653        0.08434468864950
N            2.29877796055224        0.07527476373246        0.03981602671198
C            2.58028186251803       -1.21425391179017        0.03006175752192
N            1.43813944744728       -1.93419254010258        0.00098261751768
C            0.39035684826767       -1.05887462812143       -0.00790371763344
C            0.93510047688824        0.21347817468824        0.01709077332874
C            0.09450143016486        1.40504290868848       -0.00410946993748
O            0.49712746915594        2.54126690785742       -0.00342325656480
N           -1.25076628431515        1.06271869620815       -0.03085477937476
C           -2.21907191394203        2.15522079838987       -0.05001256521996
C           -1.81739470187490       -0.20012724136556       -0.04692818139228
O           -2.99983858926755       -0.37846413507442       -0.07008877579474
N           -0.92618577614240       -1.30210203518959       -0.03682761236648
C           -1.46982251276835       -2.64643077634382       -0.06029819901142
H            3.71247229913541        1.21471443890471        1.06488839270555
H            4.00791460421487        1.03430799217987       -0.67357688121503
H            2.69909982127087        2.09770098766290       -0.09130154035862
H            3.56654087521359       -1.63682977417947        0.04233139674524
H           -1.67107945562430        3.09322822573871       -0.02552706696334
H           -2.82428927394145        2.09428605349656       -0.95318074103337
H           -2.87644002486466        2.07745706351925        0.81450059976605
H           -1.17061985538665       -3.19584861009707        0.83242224714061
H           -1.14560246782873       -3.17511580834413       -0.95688266944647
H           -2.55549768731684       -2.55659960601237       -0.07459039105944
H            1.38130842369251       -2.94313824728853       -0.01389874052104
25
 energy: -5.551908856603 xtb: 6.6.1 (8d0f1dd)
C            3.23712043562098        1.17472598513442        0.08035055054934
N            2.30311911816391        0.10060470726593        0.03041294833524
C            2.60295475532299       -1.24288951968683        0.03232980512284
N            1.42147272903537       -1.94356835518670        0.00308344772142
C            0.39885848054998       -1.06654663301083       -0.00726746283042
C            0.91730884793241        0.22059584003241        0.01282836614808
C            0.11205223993064        1.38097564473723       -0.00698073160217
O            0.49136827598496        2.55593382559299       -0.01418495441798
N           -1.27521029407266        1.05391150235621       -0.02783277446779
C           -2.20579003194666        2.17957748097429       -0.03774049175055
C           -1.82266237999799       -0.19807406554043       -0.04958647988587
O           -3.02018805168354       -0.39236904685430       -0.07204922860286
N           -0.94036554484296       -1.30406217789762       -0.03662437444146
C           -1.46707142466589       -2.65007419724277       -0.05706636923348
H            3.71483626145300        1.22532787063404        1.06286031069176
H            4.00686738923506        1.03817428305589       -0.68141938268353
H            2.69176485238284        2.09948684337125       -0.09792873847305
H            3.58012166873766       -1.65540920345583        0.04310199337738
H           -1.68973317944760        3.14602815426987        0.04149518470592
H           -2.76623914091195        2.17911358970983       -0.96463603245148
H           -2.92154608331740        2.05322317459296        0.77158729152475
H           -1.16214825738589       -3.20142463886937        0.83611982521890
H           -1.13448936421454       -3.18514391020069       -0.95031643115658
H           -2.55271093070527       -2.57091993724278       -0.07323579922201
H            1.36928105831218       -2.94823374791219       -0.00816082669325
25
 energy: -3.928244667485 xtb: 6.6.1 (8d0f1dd)
C            3.23292276265189        1.17576108970475        0.07358365157027
N            2.30182865820538        0.09823423788005        0.02271445731709
C            2.60513732621590       -1.24859588918247        0.03291065233727
N            1.42106973257752       -1.94971052882724        0.00628324461887
C            0.39779453133161       -1.07319741026302       -0.00573050432397
C            0.91418462441438        0.21421453123635        0.00972706131392
C            0.10771101079229        1.37256394687911       -0.00902213280568
O            0.48674771312851        2.54724997001268       -0.02540203014473
N           -1.28466960435183        1.05724089513067       -0.01526081105086
C           -2.19470639613338        2.20871262810848       -0.02306466227545
C           -1.83111387319745       -0.20052352354019       -0.04428424117343
O           -3.02723064710427       -0.40199868016721       -0.07119502077855
N           -0.94357848441842       -1.30765747698602       -0.03485568135229
C           -1.46329355455925       -2.65767200019568       -0.05408013038062
H            3.71104598239814        1.23171351464579        1.05611163721659
H            4.00297132685845        1.03970690387029       -0.68812750398945
H            2.68429049731759        2.09825138183372       -0.10591040021166
H            3.58278694217791       -1.66349673153145        0.04488828264630
H           -1.71590623420947        3.19991010800485        0.11818645997959
H           -2.69985425402043        2.26421593534073       -0.97706014938665
H           -2.96649579271840        2.02677561921872        0.72226185647530
H           -1.15628651548274       -3.20740499303745        0.84000447710244
H           -1.12515328907608       -3.19444340950656       -0.94480587033486
H           -2.54913774990533       -2.58681327190504       -0.07274002946119
H            1.36673275524145       -2.95471222701781       -0.00043037698958
25
 energy: -1.677161716348 xtb: 6.6.1 (8d0f1dd)
C            3.22808396626037        1.17571110865114        0.06660614472165
N            2.29978329978427        0.09438659425627        0.01377149517898
C            2.60692194229528       -1.25503322501004        0.03349306058111
N            1.42026199612537       -1.95601938394539        0.00998511874423
C            0.39640498770684       -1.08004261301401       -0.00351619344017
C            0.91067776947857        0.20772173836699        0.00635423976813
C            0.10327568831488        1.36459934353907       -0.01102889799772
O            0.48093834664244        2.53949047618637       -0.03629209908068
N           -1.29394741664182        1.06136249007896        0.00193711427481
C           -2.18641508111477        2.23742991460576       -0.00619498979902
C           -1.83866580690600       -0.20222839656984       -0.03407002031675
O           -3.03306040591247       -0.41232048076653       -0.06808377947049
N           -0.94686198575910       -1.31124368617543       -0.03134887934757
C           -1.45954227260413       -2.66522519163013       -0.05039877478847
H            3.70690907916404        1.23674319236444        1.04903060453933
H            3.99869702446817        1.04079278890952       -0.69483994703048
H            2.67702023188390        2.09670094077655       -0.11350769701810
H            3.58536905872054       -1.67150377975328        0.04672820883793
H           -1.74337905071475        3.24764862355388        0.20197163229988
H           -2.62756134962504        2.35124240894226       -0.98757960380971
H           -3.01044546587860        1.99993231053908        0.66856792000886
H           -1.15025742938999       -3.21372445151086        0.84423298591580
H           -1.11594743304239       -3.20332913244145       -0.93884936638733
H           -2.54556730824014       -2.60296991281317       -0.07153156231067
H            1.36507607309316       -2.96131112214466        0.00829772645123
25
 energy: 1.165190140529 xtb: 6.6.1 (8d0f1dd)
C            3.22187220569995        1.17489617228310        0.06015654921516
N            2.29671705062450        0.08894393847428        0.00623794401907
C            2.60807946760182       -1.26262420246153        0.03321932810402
N            1.41907192344687       -1.96322183631661        0.01235560254592
C            0.39457111886496       -1.08760733046694       -0.00161698157447
C            0.90653949512718        0.20045343792272        0.00359851140721
C            0.09785001404846        1.35625908324373       -0.01130441373660
O            0.47390825845036        2.53141814551000       -0.04409904921690
N           -1.30337094307388        1.06630631484959        0.02121508123787
C           -2.17918513578013        2.26728679273505        0.01098152774622
C           -1.84574338442811       -0.20346888541670       -0.02233390589485
O           -3.03806279423517       -0.42341258180104       -0.06516233729981
N           -0.95016465654131       -1.31495896145694       -0.02725822503316
C           -1.45546426680868       -2.67261053282113       -0.04540382077957
H            3.70091253770871        1.24202863589122        1.04254618360031
H            3.99376604956750        1.04243548682294       -0.70061958017213
H            2.66797736819080        2.09407131079230       -0.12099130010290
H            3.58794557429129       -1.67982182168834        0.04655943610345
H           -1.77105005205454        3.29218746153935        0.28871143669451
H           -2.55445576371035        2.43590290223197       -0.99239820280412
H           -3.04829132552377        1.97802228335386        0.60997503400346
H           -1.14324237773343       -3.21826467520693        0.85051770535170
H           -1.10609932542029       -3.21232453721156       -0.93129544003967
H           -2.54157784137773       -2.61856794239167       -0.06884223902535
H            1.36515729097109       -2.96890631025172        0.01374179250201
25
 energy: 4.758825086742 xtb: 6.6.1 (8d0f1dd)
C            3.21527488572996        1.17340994400005        0.05332105161351
N            2.29278469287691        0.08277531179551        0.00008873240452
C            2.60761774363365       -1.26984606198913        0.03354241183921
N            1.41802878884970       -1.97106481418425        0.01392752849754
C            0.39270346514574       -1.09574977222587       -0.00115051465462
C            0.90170288274938        0.19283573042027        0.00029101188596
C            0.09050470181599        1.34761212723020       -0.01060253309599
O            0.46578744580292        2.52292352303513       -0.04951619908985
N           -1.31352236443568        1.07087116360695        0.04518064539083
C           -2.17680009043861        2.29813319478737        0.02923199944481
C           -1.85285786213522       -0.20547143597786       -0.01063394564278
O           -3.04282150315470       -0.43524126035459       -0.06238425288238
N           -0.95329414537437       -1.31918592922375       -0.02421441762147
C           -1.45149771755285       -2.68017845918386       -0.04093355034238
H            3.69360485198877        1.24752412587987        1.03595457835650
H            3.98944961774842        1.04366390915337       -0.70594400722306
H            2.65901728917834        2.09084338133608       -0.13022322543734
H            3.58939001827226       -1.68149167073871        0.04201250639088
H           -1.80481965128065        3.33752471607758        0.36771694062510
H           -2.47991265305636        2.51592376807673       -0.99270826900713
H           -3.08662406968683        1.96605338241816        0.54674764568687
H           -1.13679562570528       -3.22195389057462        0.85698551857972
H           -1.09666580195507       -3.22274102376526       -0.92358335574511
H           -2.53758947069115       -2.63355723853327       -0.06682698470799
H            1.36853219994714       -2.97720991065907        0.01958708973854
25
 energy: 9.405130352422 xtb: 6.6.1 (8d0f1dd)
C            3.20970614784480        1.17154342917528        0.04619164301646
N            2.28788085124400        0.07785731005501       -0.00395196766238
C            2.60362369636281       -1.27515247708695        0.03534466323830
N            1.41563581498592       -1.97808119917395        0.01840795463759
C            0.38994920341206       -1.10306660193547        0.00144310902302
C            0.89596498568629        0.18633028130950       -0.00209866957646
C            0.08209721763464        1.34001281120893       -0.01269396783549
O            0.45623168013993        2.51548115334538       -0.06081342537159
N           -1.32270005980847        1.07430294729235        0.06941628427451
C           -2.18168881058061        2.32539651196914        0.04486094272050
C           -1.85958435479649       -0.20865280456651        0.00193045986156
O           -3.04729385877797       -0.44733511332416       -0.05747034791289
N           -0.95682316546636       -1.32408888892520       -0.01971356990640
C           -1.44716118871463       -2.68866148843677       -0.03761555176942
H            3.69018374801825        1.25104882575784        1.02773731453837
H            3.98396797068386        1.04277020135231       -0.71347853209013
H            2.65300624771413        2.08866389202641       -0.13812485847503
H            3.58814861151279       -1.67652820693555        0.03104565341980
H           -1.85430679831893        3.38813421292040        0.43227213429516
H           -2.40248022772107        2.59272696428948       -0.99006135601126
H           -3.12557023363273        1.95794958129933        0.47873231159598
H           -1.12984332232999       -3.22913018410731        0.86063484564720
H           -1.08608124616397       -3.23117128475863       -0.91829597649048
H           -2.53327335619426       -2.65105687551526       -0.06640027950281
H            1.37228167688314       -2.98458746307039        0.02785711713654
25
 energy: 14.036179949560 xtb: 6.6.1 (8d0f1dd)
C            3.20262179284451        1.17128554816886        0.03897109509523
N            2.28173065650980        0.07562629111363       -0.00995150907537
C            2.59798816158943       -1.27515823317216        0.03053202459786
N            1.41407953241919       -1.98404911887691        0.02210443677231
C            0.38688167629910       -1.11047859050792        0.00456635877519
C            0.88901040678249        0.18047828203466       -0.00422062551151
C            0.07229785338025        1.33332661736624       -0.01371545538071
O            0.44549744920241        2.50871319096034       -0.07095069198166
N           -1.33189631197538        1.07303023735307        0.09254967163019
C           -2.19448740759652        2.33698451352589        0.05395872683689
C           -1.86529081569930       -0.21443866027787        0.01534663253285
O           -3.05111956372581       -0.46020569549383       -0.05088807828883
N           -0.96003641859054       -1.33062164857951       -0.01441120341826
C           -1.44276919927516       -2.69812457351979       -0.03432226076603
H            3.68416061877896        1.25622364983238        1.01990163599925
H            3.97736875946427        1.04348202238156       -0.72062341573583
H            2.64421830036417        2.08694415664450       -0.14686572707437
H            3.58490438354685       -1.67048890118057        0.02245783735826
H           -1.92178646881383        3.42719522973206        0.49460339465183
H           -2.32604378081044        2.66361497596698       -0.97986055866380
H           -3.15800240253486        1.95179038542082        0.40867130118482
H           -1.12299821301266       -3.23782946862582        0.86384340869264
H           -1.07537251508919       -3.23936781229623       -0.91361900374100
H           -2.52887302204119       -2.66899771910207       -0.06628956607123
H            1.37887180696184       -2.99115894613935        0.03379996863742
25
 energy: 18.957808315851 xtb: 6.6.1 (8d0f1dd)
C            3.19551325035439        1.17151459678875        0.03515908980360
N            2.27487601133688        0.07523347156244       -0.01310770473407
C            2.59251366700136       -1.27229424987051        0.01985768788374
N            1.41273016707058       -1.98798649455581        0.02253942582926
C            0.38379237347138       -1.11637887415227        0.00848310501474
C            0.88221038947691        0.17618622914820       -0.00315303664997
C            0.06302883832568        1.32892485015141       -0.00763452501916
O            0.43402141175458        2.50416793630258       -0.07895837887201
N           -1.33836780064401        1.06815491917027        0.11719129174363
C           -2.20190044448045        2.33610271127848        0.05625315325513
C           -1.87049187552933       -0.22211270609409        0.03183801430826
O           -3.05488697952577       -0.47213777546207       -0.03884134032849
N           -0.96245194595351       -1.33766246782350       -0.00646507253266
C           -1.43701026866103       -2.70809507270253       -0.03016403861607
H            3.67954715757098        1.25683767884237        1.01503641750719
H            3.96899545409000        1.04607777758163       -0.72634342751501
H            2.63562864629419        2.08648681468126       -0.14825986709186
H            3.57951843631896       -1.66330781708887        0.01480201482603
H           -1.99587185419815        3.46068470427651        0.55319338148394
H           -2.23569131714101        2.72164850860693       -0.96283643892477
H           -3.18427286204245        1.94756096580857        0.32914437026101
H           -1.11274058043151       -3.24831963431002        0.86630132328206
H           -1.06345549083367       -3.24576981103605       -0.90936823697090
H           -2.52329930512751       -2.68993028320112       -0.06395923789727
H            1.38581977854075       -2.99532668870305        0.03274379219110
25
 energy: 25.676868981745 xtb: 6.6.1 (8d0f1dd)
C            3.18934918867856        1.17466069354292        0.03005459594165
N            2.27105984551602        0.07943214266192       -0.01619969658433
C            2.59083257528980       -1.26616979495682        0.01910736464326
N            1.41630238423399       -1.98875346304268        0.02104493215460
C            0.38325759118230       -1.12124394305141        0.01097393405172
C            0.87844003636673        0.17293178991437       -0.00056566423635
C            0.05729371906780        1.32476754460412        0.00510670644716
O            0.42144185770501        2.50089589403947       -0.07924270265042
N           -1.34222089352041        1.05997562896688        0.14229534132858
C           -2.20238253806445        2.33061125600071        0.04952196895242
C           -1.87288173464559       -0.23221507981460        0.04412150844756
O           -3.05591795061098       -0.48559522185217       -0.03255580243307
N           -0.96203510268255       -1.34436250612299        0.00144009221415
C           -1.43138164935818       -2.71686746860209       -0.02684196005690
H            3.67206716651816        1.26423884835149        1.01015572128826
H            3.96308389028250        1.04853703153710       -0.73111350368385
H            2.62729968586411        2.08709385308143       -0.15650251950024
H            3.57814591857300       -1.65831283663552        0.00629795488618
H           -2.06682408114070        3.51163173874351        0.55186153306802
H           -2.14248897133488        2.75386458728593       -0.94868842884696
H           -3.19723164520900        1.94568760573924        0.25080008644165
H           -1.10570585248719       -3.25546256985902        0.87011231016039
H           -1.05232860865609       -3.25356410296859       -0.90451384996236
H           -2.51781639009429       -2.70521649969998       -0.06371849772782
H            1.39627235795118       -2.99641919101835        0.03231988813642
25
 energy: 35.213767985644 xtb: 6.6.1 (8d0f1dd)
C            3.18587433344820        1.17702887333423        0.02399922702412
N            2.27044624989529        0.08258157182691       -0.01454998617773
C            2.59577579359315       -1.26259155581359        0.01692791696709
N            1.42181426421873       -1.98589282117545        0.02072279368012
C            0.38431109217822       -1.12249446311086        0.01628477099259
C            0.87723222844153        0.17290586092713        0.00677507970351
C            0.05208476666035        1.32237756447003        0.00923607608400
O            0.41447544157892        2.49755285426108       -0.09041714013048
N           -1.34597499222302        1.05050456290353        0.14460451450488
C           -2.19456699730653        2.32231732998401        0.03726788794343
C           -1.87165038806599       -0.24381270349740        0.04234998738317
O           -3.05444884555400       -0.50037215302032       -0.03180758431299
N           -0.95928296381393       -1.35154726998382        0.00572974668888
C           -1.42539439260903       -2.72574277427640       -0.02649928477645
H            3.66812999317927        1.27218991425003        1.00331901471180
H            3.95862739817134        1.04743160843778       -0.73710675603141
H            2.62219056843253        2.08693484484451       -0.16785920914110
H            3.58239554456905       -1.66219853247671        0.00906716334534
H           -2.12771586036796        3.58755266905270        0.56599186843335
H           -2.04614073064442        2.78158918623553       -0.92968395343705
H           -3.20040304710969        1.94851284774555        0.17264609449973
H           -1.10188989916359       -3.26334029917933        0.87182757873621
H           -1.04138084475389       -3.26312371547893       -0.90167709472021
H           -2.51197958869268       -2.71741664909478       -0.06757936972149
H            1.40650553746803       -2.99375094883890        0.02856331505839
25
 energy: 48.843712849076 xtb: 6.6.1 (8d0f1dd)
C            3.18107268226417        1.17712209245577        0.02070455354892
N            2.26979161940837        0.08179455486531       -0.01466331685808
C            2.60031994892159       -1.26482592130254        0.01344236708707
N            1.42544686595030       -1.98627744523740        0.01719753098821
C            0.38551579479351       -1.12620958721635        0.01649709520054
C            0.87544426189945        0.16921292338028        0.00810010023233
C            0.04906485268423        1.31426609472492        0.00913415070776
O            0.41402496296242        2.48860856595806       -0.09132597144742
N           -1.34887704991959        1.03686036277847        0.13414331289839
C           -2.18449293040596        2.29478034260860        0.00929209597424
C           -1.86974895319625       -0.25918647430185        0.03838021506029
O           -3.05271656665968       -0.51546576411311       -0.02837339890361
N           -0.95694506062356       -1.36068033653419        0.00704513975165
C           -1.41808774889806       -2.73561047331085       -0.02307251748216
H            3.66065341505923        1.27168481972265        1.00064887199961
H            3.95353405584956        1.04905989773565       -0.74061512453483
H            2.61455738961923        2.08524291725384       -0.17087875373384
H            3.58614754124786       -1.66961118833591        0.00811581221875
H           -2.19274290705692        3.69412572031948        0.56959458897968
H           -1.93127695761178        2.80430182845028       -0.90629407909466
H           -3.20378759001084        1.94289593926928        0.08566870401048
H           -1.09071905821219       -3.26668624779210        0.87749763112580
H           -1.02861540486181       -3.27308932561216       -0.89550939966721
H           -2.50519437754475       -2.73386398207974       -0.06427089696771
H            1.40694484788026       -2.99288056765587        0.01868312822513
25
 energy: 73.337915372843 xtb: 6.6.1 (8d0f1dd)
C            3.17746490897706        1.17527161633621        0.01534224619792
N            2.27076334490467        0.07414821052873       -0.01051577562949
C            2.60271539069632       -1.26616804273604        0.01268469544209
N            1.43419766602761       -1.99271420093239        0.01918188270250
C            0.38846180666960       -1.13573449439509        0.01962501504447
C            0.87588879562415        0.15990005347743        0.01185233330750
C            0.04495571560500        1.30220523724757        0.00223947948682
O            0.41843676065570        2.47016824242668       -0.08684851639182
N           -1.34804223025619        1.00730694647858        0.09920007570831
C           -2.17167394306040        2.19486516225685       -0.03910204321810
C           -1.86441475083897       -0.28807524555008        0.03384328218526
O           -3.04759625153436       -0.53759714839213       -0.02174803323875
N           -0.94939481267008       -1.37798848421702        0.01097560930905
C           -1.41064439860019       -2.75088735778618       -0.02218434067068
H            3.65685950035384        1.27322331563533        0.99358751927571
H            3.94784764212310        1.04729537385249       -0.74685508047689
H            2.60656980671717        2.08145861955726       -0.17657744087993
H            3.59015211650734       -1.67527122772776        0.00961416554759
H           -2.28417064715773        3.95113657383889        0.57763698401292
H           -1.83892030007224        2.82152620006297       -0.84548559250499
H           -3.21476321791625        1.92118237001392        0.01375201158515
H           -1.08477530231487       -3.27740618621338        0.88042536823309
H           -1.01660198758511       -3.28471261287812       -0.89365905531924
H           -2.49837536811652       -2.74850287567197       -0.06650890894819
H            1.40483828578688       -2.99981799631059        0.02070063554184
25
 energy: 83.169036185768 xtb: 6.6.1 (8d0f1dd)
C            3.17537538046781        1.17328625111432        0.00741749911640
N            2.27100725637652        0.06815375103582       -0.00698296127627
C            2.60510357006937       -1.26790793849943        0.01335887861617
N            1.44079464274068       -1.99834495377663        0.02191821007667
C            0.39084934303154       -1.14318346581287        0.02204578359163
C            0.87681584965333        0.15334839589429        0.01473975856089
C            0.04266169243885        1.29271192776686       -0.00226058051102
O            0.42155243333722        2.45906174993151       -0.07735345070571
N           -1.34445715000011        0.98124486415767        0.07268794283060
C           -2.16325042494141        2.12137687855774       -0.05962053854409
C           -1.85881591671710       -0.31126674078074        0.02646985326869
O           -3.04571472793172       -0.55040834642873       -0.01221641992474
N           -0.94261826696335       -1.39342742585223        0.01334327251658
C           -1.40292465385502       -2.76460914750738       -0.01926126236062
H            3.65765695503788        1.27115945400242        0.98315331939987
H            3.94282181269322        1.04435779400426       -0.75685038258016
H            2.59987782239632        2.07796626783280       -0.18233804105555
H            3.59334872963017       -1.68247364880622        0.01119769617231
H           -2.33498353429121        4.13849150591422        0.56363959079339
H           -1.77033991383828        2.83104355693618       -0.74356777833952
H           -3.21923325973576        1.90466362315733       -0.05054597141581
H           -1.07805922018974       -3.28635572520647        0.88600068468004
H           -1.00226155048584       -3.29325768982191       -0.88999436257130
H           -2.49126361723391       -2.76313115871749       -0.06792278812452
H            1.39972832448026       -3.00544995198384        0.02262133641329
25
 energy: 87.434616520186 xtb: 6.6.1 (8d0f1dd)
C            3.17323561801566        1.17104484193656        0.00478907068873
N            2.27208536929487        0.06303927666200       -0.00534211239860
C            2.60746457001873       -1.27167472148867        0.01456257791091
N            1.44490786499044       -2.00270162904554        0.02194893384787
C            0.39320790653200       -1.14811397499269        0.02141076611229
C            0.87883528542255        0.15069960240574        0.01550166958703
C            0.04735205562684        1.28614891177067       -0.00646909483969
O            0.42955770411273        2.45525596836297       -0.06327456875541
N           -1.33812894869004        0.96780187641695        0.04388940896912
C           -2.13935316160167        2.08566686418721       -0.09400513387668
C           -1.85344608518991       -0.32580776962462        0.01731367131419
O           -3.04431378608729       -0.55873588223573       -0.00532617799084
N           -0.93891939424126       -1.40255629080283        0.01419608336322
C           -1.40155525969956       -2.77166015521662       -0.01567626368737
H            3.65246903045270        1.26585850514932        0.98220285371156
H            3.94083106283023        1.04046032815761       -0.75903493703737
H            2.59264674614506        2.07284717149633       -0.18896072039212
H            3.59617886053385       -1.68985004135741        0.01776881283912
H           -2.33690412872582        4.28674546011638        0.51792022070416
H           -1.68809952115613        2.86569476760198       -0.66645315293223
H           -3.19192520467735        1.90418505383879       -0.11366162763672
H           -1.08244908898880       -3.28952811741770        0.89145190580612
H           -0.99578535204528       -3.29696745887712       -0.88491329357787
H           -2.48829815748194       -2.77781776420469       -0.07043560103584
H            1.39168450124035       -3.00953780092836        0.02404334521810
25