      -----------------------------------------------------------      
     |                   =====================                   |     
     |                           x T B                           |     
     |                   =====================                   |     
     |                         S. Grimme                         |     
     |          Mulliken Center for Theoretical Chemistry        |     
     |                    University of Bonn                     |     
      -----------------------------------------------------------      

   * xtb version 6.6.1 (8d0f1dd) compiled by 'conda@1efc2f54142f' on 2023-08-01

   xtb is free software: you can redistribute it and/or modify it under
   the terms of the GNU Lesser General Public License as published by
   the Free Software Foundation, either version 3 of the License, or
   (at your option) any later version.
   
   xtb is distributed in the hope that it will be useful,
   but WITHOUT ANY WARRANTY; without even the implied warranty of
   MERCHANTABILITY or FITNESS FOR A PARTICULAR PURPOSE.  See the
   GNU Lesser General Public License for more details.
   
   Cite this work as:
   * C. Bannwarth, E. Caldeweyher, S. Ehlert, A. Hansen, P. Pracht,
     J. Seibert, S. Spicher, S. Grimme, WIREs Comput. Mol. Sci., 2020, 11,
     e01493. DOI: 10.1002/wcms.1493
   
   for GFN2-xTB:
   * C. Bannwarth, S. Ehlert and S. Grimme., J. Chem. Theory Comput., 2019,
     15, 1652-1671. DOI: 10.1021/acs.jctc.8b01176
   for GFN1-xTB:
   * S. Grimme, C. Bannwarth, P. Shushkov, J. Chem. Theory Comput., 2017,
     13, 1989-2009. DOI: 10.1021/acs.jctc.7b00118
   for GFN0-xTB:
   * P. Pracht, E. Caldeweyher, S. Ehlert, S. Grimme, ChemRxiv, 2019, preprint.
     DOI: 10.26434/chemrxiv.8326202.v1
   for GFN-FF:
   * S. Spicher and S. Grimme, Angew. Chem. Int. Ed., 2020, 59, 15665-15673.
     DOI: 10.1002/anie.202004239
   
   for ALPB and GBSA implicit solvation:
   * S. Ehlert, M. Stahn, S. Spicher, S. Grimme, J. Chem. Theory Comput.,
     2021, 17, 4250-4261. DOI: 10.1021/acs.jctc.1c00471
   
   for DFT-D4:
   * E. Caldeweyher, C. Bannwarth and S. Grimme, J. Chem. Phys., 2017,
     147, 034112. DOI: 10.1063/1.4993215
   * E. Caldeweyher, S. Ehlert, A. Hansen, H. Neugebauer, S. Spicher,
     C. Bannwarth and S. Grimme, J. Chem. Phys., 2019, 150, 154122.
     DOI: 10.1063/1.5090222
   * E. Caldeweyher, J.-M. Mewes, S. Ehlert and S. Grimme, Phys. Chem. Chem. Phys.
     2020, 22, 8499-8512. DOI: 10.1039/D0CP00502A
   
   for sTDA-xTB:
   * S. Grimme and C. Bannwarth, J. Chem. Phys., 2016, 145, 054103.
     DOI: 10.1063/1.4959605
   
   in the mass-spec context:
   * V. Asgeirsson, C. Bauer and S. Grimme, Chem. Sci., 2017, 8, 4879.
     DOI: 10.1039/c7sc00601b
   * J. Koopman and S. Grimme, ACS Omega 2019, 4, 12, 15120-15133.
     DOI: 10.1021/acsomega.9b02011
   
   for metadynamics refer to:
   * S. Grimme, J. Chem. Theory Comput., 2019, 155, 2847-2862
     DOI: 10.1021/acs.jctc.9b00143
   
   for SPH calculations refer to:
   * S. Spicher and S. Grimme, J. Chem. Theory Comput., 2021, 17, 1701-1714
     DOI: 10.1021/acs.jctc.0c01306
   
   with help from (in alphabetical order)
   P. Atkinson, C. Bannwarth, F. Bohle, G. Brandenburg, E. Caldeweyher
   M. Checinski, S. Dohm, S. Ehlert, S. Ehrlich, I. Gerasimov, C. Hölzer
   A. Katbashev, J. Koopman, C. Lavigne, S. Lehtola, F. März, M. Müller,
   F. Musil, H. Neugebauer, J. Pisarek, C. Plett, P. Pracht, F. Pultar,
   J. Seibert, P. Shushkov, S. Spicher, M. Stahn, M. Steiner, T. Strunk,
   J. Stückrath, T. Rose, and J. Unsleber
   
 * started run on 2024/06/05 at 19:58:08.551     

           -------------------------------------------------
          |                Calculation Setup                |
           -------------------------------------------------

          program call               : xtb struc.xyz --opt loose --input .xc1 --gfn2
          hostname                   : n-62-29-35
          coordinate file            : struc.xyz
          omp threads                :                     1

   ID    Z sym.   atoms
    1    6 C      1, 3, 5-7, 10, 11, 14
    2    7 N      2, 4, 9, 13
    3    8 O      8, 12
    4    1 H      15-25
constraining bond 8 15 to    5.6333300 Å, actual value:    3.6386098 Å

           -------------------------------------------------
          |                 G F N 2 - x T B                 |
           -------------------------------------------------

        Reference                      10.1021/acs.jctc.8b01176
      * Hamiltonian:
        H0-scaling (s, p, d)           1.850000    2.230000    2.230000
        zeta-weighting                 0.500000
      * Dispersion:
        s8                             2.700000
        a1                             0.520000
        a2                             5.000000
        s9                             5.000000
      * Repulsion:
        kExp                           1.500000    1.000000
        rExp                           1.000000
      * Coulomb:
        alpha                          2.000000
        third order                    shell-resolved
        anisotropic                    true
        a3                             3.000000
        a5                             4.000000
        cn-shift                       1.200000
        cn-exp                         4.000000
        max-rad                        5.000000


          ...................................................
          :                      SETUP                      :
          :.................................................:
          :  # basis functions                  67          :
          :  # atomic orbitals                  67          :
          :  # shells                           39          :
          :  # electrons                        74          :
          :  max. iterations                   250          :
          :  Hamiltonian                  GFN2-xTB          :
          :  restarted?                      false          :
          :  GBSA solvation                  false          :
          :  PC potential                    false          :
          :  electronic temp.         5000.0000000     K    :
          :  accuracy                    1.0000000          :
          :  -> integral cutoff          0.2500000E+02      :
          :  -> integral neglect         0.1000000E-07      :
          :  -> SCF convergence          0.1000000E-05 Eh   :
          :  -> wf. convergence          0.1000000E-03 e    :
          :  Broyden damping             0.4000000          :
          ...................................................

 iter      E             dE          RMSdq      gap      omega  full diag
   1    -42.5894031 -0.425894E+02  0.445E+00    3.52       0.0  T
   2    -42.7683054 -0.178902E+00  0.251E+00    3.36       1.0  T
   3    -42.7759211 -0.761567E-02  0.147E+00    3.35       1.0  T
   4    -42.7728404  0.308066E-02  0.553E-01    3.33       1.0  T
   5    -42.7789548 -0.611444E-02  0.112E-01    3.35       1.0  T
   6    -42.7790473 -0.924914E-04  0.614E-02    3.33       1.0  T
   7    -42.7790721 -0.247928E-04  0.258E-02    3.34       1.0  T
   8    -42.7790772 -0.508996E-05  0.938E-03    3.34       2.1  T
   9    -42.7790779 -0.669422E-06  0.448E-03    3.34       4.5  T
  10    -42.7790780 -0.821511E-07  0.115E-03    3.34      17.4  T
  11    -42.7790780 -0.322662E-08  0.553E-04    3.34      36.2  T
  12    -42.7790780 -0.287052E-08  0.180E-04    3.34     111.1  T

   *** convergence criteria satisfied after 12 iterations ***

         #    Occupation            Energy/Eh            Energy/eV
      -------------------------------------------------------------
         1        2.0000           -0.9185990             -24.9964
       ...           ...                  ...                  ...
        31        1.9996           -0.6230278             -16.9534
        32        1.9995           -0.6194601             -16.8564
        33        1.9979           -0.5974976             -16.2587
        34        1.9932           -0.5789629             -15.7544
        35        1.9817           -0.5631863             -15.3251
        36        1.9779           -0.5602245             -15.2445
        37        1.9748           -0.5581234             -15.1873 (HOMO)
        38        0.0652           -0.4353579             -11.8467 (LUMO)
        39        0.0099           -0.4050467             -11.0219
        40        0.0013           -0.3732218             -10.1559
        41        0.0000           -0.2886859              -7.8555
        42                         -0.2065804              -5.6213
       ...                                ...                  ...
        67                          0.5625656              15.3082
      -------------------------------------------------------------
                  HL-Gap            0.1227656 Eh            3.3406 eV
             Fermi-level           -0.4890455 Eh          -13.3076 eV

 SCC (total)                   0 d,  0 h,  0 min,  0.036 sec
 SCC setup                      ...        0 min,  0.000 sec (  0.705%)
 Dispersion                     ...        0 min,  0.000 sec (  0.912%)
 classical contributions        ...        0 min,  0.000 sec (  0.234%)
 integral evaluation            ...        0 min,  0.005 sec ( 14.735%)
 iterations                     ...        0 min,  0.018 sec ( 50.783%)
 molecular gradient             ...        0 min,  0.011 sec ( 32.225%)
 printout                       ...        0 min,  0.000 sec (  0.371%)

         :::::::::::::::::::::::::::::::::::::::::::::::::::::
         ::                     SUMMARY                     ::
         :::::::::::::::::::::::::::::::::::::::::::::::::::::
         :: total energy             -49.352327923963 Eh    ::
         :: gradient norm              5.330252066005 Eh/a0 ::
         :: HOMO-LUMO gap              3.340621582928 eV    ::
         ::.................................................::
         :: SCC energy               -42.779077977399 Eh    ::
         :: -> isotropic ES            0.141123876439 Eh    ::
         :: -> anisotropic ES         -0.005230418907 Eh    ::
         :: -> anisotropic XC          0.011966818540 Eh    ::
         :: -> dispersion             -0.022657731803 Eh    ::
         :: repulsion energy           0.531105277918 Eh    ::
         :: add. restraining          -7.104469383491 Eh    ::
         :: total charge               1.000000000002 e     ::
         :::::::::::::::::::::::::::::::::::::::::::::::::::::

      ----------------------------------------------------------- 
     |                   =====================                   |
     |                        A N C O P T                        |
     |                   =====================                   |
     |               Approximate Normal Coordinate               |
     |                Rational Function Optimizer                |
      ----------------------------------------------------------- 

          ...................................................
          :                      SETUP                      :
          :.................................................:
          :   optimization level             loose          :
          :   max. optcycles                   200          :
          :   ANC micro-cycles                  20          :
          :   degrees of freedom                69          :
          :.................................................:
          :   RF solver                   davidson          :
          :   write xtbopt.log                true          :
          :   linear?                        false          :
          :   energy convergence         0.5000000E-04 Eh   :
          :   grad. convergence          0.4000000E-02 Eh/α :
          :   maxmium RF displ.          1.0000000          :
          :   Hlow (freq-cutoff)         0.1000000E-01      :
          :   Hmax (freq-cutoff)         5.0000000          :
          :   S6 in model hess.         20.0000000          :
          ...................................................

generating ANC from model Hessian ...
Using Lindh-Hessian (1995)
 Shifting diagonal of input Hessian by    1.8542859912780600     
 Lowest  eigenvalues of input Hessian
    0.010000    0.000000    0.000000    0.000000    0.000000    0.000000
    0.000000    1.857846    1.859723    1.863590    1.864937    1.865051
    1.866009    1.872821    1.873883    1.880570    1.893452    1.895610
 Highest eigenvalues
    3.987059    4.009085    4.084105    4.143972    4.352925    4.519412


........................................................................
.............................. CYCLE    1 ..............................
........................................................................

 iter      E             dE          RMSdq      gap      omega  full diag
   1    -42.7790780 -0.427791E+02  0.626E-05    3.34       0.0  T
   2    -42.7790780 -0.124203E-10  0.329E-05    3.34     607.4  T
   3    -42.7790780  0.106581E-12  0.193E-05    3.34    1034.2  T
     SCC iter.                  ...        0 min,  0.005 sec
     gradient                   ...        0 min,  0.012 sec
 * total energy  :   -49.3523279 Eh     change       -0.6650680E-10 Eh
   gradient norm :     5.3302521 Eh/α   predicted     0.0000000E+00 (-100.00%)
   displ. norm   :     0.9978164 α      lambda       -0.5312270E+01
   maximum displ.:     0.9953767 α      in ANC's #1, #59, #46, ...

........................................................................
.............................. CYCLE    2 ..............................
........................................................................

 iter      E             dE          RMSdq      gap      omega  full diag
   1    -42.7570672 -0.427571E+02  0.734E-01    3.26       0.0  T
   2    -42.7579972 -0.930062E-03  0.405E-01    3.18       1.0  T
   3    -42.7579683  0.289206E-04  0.144E-01    3.22       1.0  T
   4    -42.7581326 -0.164338E-03  0.316E-02    3.20       1.0  T
   5    -42.7581375 -0.484222E-05  0.162E-02    3.19       1.2  T
   6    -42.7581376 -0.121371E-06  0.786E-03    3.20       2.5  T
   7    -42.7581386 -0.998730E-06  0.230E-03    3.19       8.7  T
   8    -42.7581386 -0.437795E-07  0.106E-03    3.20      18.8  T
   9    -42.7581386 -0.284448E-08  0.282E-04    3.20      71.0  T
  10    -42.7581386 -0.766498E-09  0.119E-04    3.20     167.4  T
     SCC iter.                  ...        0 min,  0.014 sec
     gradient                   ...        0 min,  0.012 sec
 * total energy  :   -55.6061226 Eh     change       -0.6253795E+01 Eh
   gradient norm :     7.2140738 Eh/α   predicted    -0.5303540E+01 ( -15.19%)
   displ. norm   :     0.9986587 α      lambda       -0.7202551E+01
   maximum displ.:     0.9969519 α      in ANC's #1, #46, #43, ...

........................................................................
.............................. CYCLE    3 ..............................
........................................................................

 iter      E             dE          RMSdq      gap      omega  full diag
   1    -42.6321938 -0.426322E+02  0.778E-01    2.28       0.0  T
   2    -42.6365660 -0.437219E-02  0.443E-01    2.34       1.0  T
   3    -42.6380504 -0.148443E-02  0.241E-01    2.31       1.0  T
   4    -42.6382875 -0.237073E-03  0.923E-02    2.36       1.0  T
   5    -42.6383909 -0.103390E-03  0.338E-02    2.34       1.0  T
   6    -42.6383952 -0.428701E-05  0.137E-02    2.34       1.5  T
   7    -42.6383982 -0.302857E-05  0.370E-03    2.34       5.4  T
   8    -42.6383983 -0.116029E-06  0.195E-03    2.34      10.3  T
   9    -42.6383984 -0.220299E-07  0.738E-04    2.34      27.1  T
  10    -42.6383984 -0.340436E-08  0.238E-04    2.34      84.0  T
     SCC iter.                  ...        0 min,  0.014 sec
     gradient                   ...        0 min,  0.012 sec
 * total energy  :   -63.7839058 Eh     change       -0.8177783E+01 Eh
   gradient norm :     9.1806412 Eh/α   predicted    -0.7192901E+01 ( -12.04%)
   displ. norm   :     0.9988315 α      lambda       -0.9168124E+01
   maximum displ.:     0.9967633 α      in ANC's #1, #59, #46, ...

........................................................................
.............................. CYCLE    4 ..............................
........................................................................

 iter      E             dE          RMSdq      gap      omega  full diag
   1    -42.3858626 -0.423859E+02  0.166E+00    1.02       0.0  T
   2    -42.3262412  0.596213E-01  0.202E+00    2.45       1.0  T
   3    -42.4541923 -0.127951E+00  0.473E-01    1.53       1.0  T
   4    -42.4544321 -0.239752E-03  0.218E-01    1.51       1.0  T
   5    -42.4547779 -0.345837E-03  0.747E-02    1.52       1.0  T
   6    -42.4547855 -0.755991E-05  0.296E-02    1.53       1.0  T
   7    -42.4547925 -0.699853E-05  0.146E-02    1.53       1.4  T
   8    -42.4547954 -0.291358E-05  0.498E-03    1.52       4.0  T
   9    -42.4547957 -0.331749E-06  0.301E-03    1.52       6.6  T
  10    -42.4547958 -0.748068E-07  0.125E-03    1.52      16.0  T
  11    -42.4547958 -0.154255E-07  0.383E-04    1.52      52.2  T
  12    -42.4547958 -0.106729E-08  0.238E-04    1.52      83.9  T
     SCC iter.                  ...        0 min,  0.017 sec
     gradient                   ...        0 min,  0.012 sec
 * total energy  :   -73.9296018 Eh     change       -0.1014570E+02 Eh
   gradient norm :    11.1390173 Eh/α   predicted    -0.9157420E+01 (  -9.74%)
   displ. norm   :     0.9987120 α      lambda       -0.1112222E+02
   maximum displ.:     0.9954318 α      in ANC's #1, #59, #46, ...

........................................................................
.............................. CYCLE    5 ..............................
........................................................................

 iter      E             dE          RMSdq      gap      omega  full diag
   1    -42.0024541 -0.420025E+02  0.311E+00    0.55       0.0  T
   2    -41.1459075  0.856547E+00  0.519E+00    2.25       1.0  T
   3    -42.3576764 -0.121177E+01  0.132E+00    1.26       1.0  T
   4    -42.3659288 -0.825243E-02  0.939E-01    1.22       1.0  T
   5    -42.3627251  0.320372E-02  0.592E-01    1.32       1.0  T
   6    -42.3677417 -0.501653E-02  0.164E-01    1.26       1.0  T
   7    -42.3683541 -0.612458E-03  0.558E-02    1.26       1.0  T
   8    -42.3683912 -0.371118E-04  0.259E-02    1.27       1.0  T
   9    -42.3683927 -0.151652E-05  0.110E-02    1.27       1.8  T
  10    -42.3683943 -0.158606E-05  0.299E-03    1.27       6.7  T
  11    -42.3683944 -0.267874E-07  0.156E-03    1.27      12.8  T
  12    -42.3683944 -0.259147E-07  0.403E-04    1.27      49.6  T
  13    -42.3683944 -0.176217E-08  0.159E-04    1.27     126.1  T
     SCC iter.                  ...        0 min,  0.018 sec
     gradient                   ...        0 min,  0.012 sec
 * total energy  :   -85.8852321 Eh     change       -0.1195563E+02 Eh
   gradient norm :    11.7187973 Eh/α   predicted    -0.1110791E+02 (  -7.09%)
   displ. norm   :     0.9985154 α      lambda       -0.1169827E+02
   maximum displ.:     0.9942377 α      in ANC's #1, #59, #50, ...

........................................................................
.............................. CYCLE    6 ..............................
........................................................................

 iter      E             dE          RMSdq      gap      omega  full diag
   1    -42.1359631 -0.421360E+02  0.289E+00    0.68       0.0  T
   2    -42.0132805  0.122683E+00  0.346E+00    0.47       1.0  T
   3    -42.4109093 -0.397629E+00  0.173E+00    2.09       1.0  T
   4    -42.4390476 -0.281383E-01  0.126E+00    1.87       1.0  T
   5    -42.4452939 -0.624630E-02  0.854E-01    1.88       1.0  T
   6    -42.4488933 -0.359936E-02  0.281E-01    1.76       1.0  T
   7    -42.4501997 -0.130639E-02  0.135E-01    1.81       1.0  T
   8    -42.4503922 -0.192556E-03  0.675E-02    1.82       1.0  T
   9    -42.4504458 -0.535922E-04  0.131E-02    1.83       1.5  T
  10    -42.4504470 -0.114122E-05  0.421E-03    1.83       4.8  T
  11    -42.4504472 -0.263564E-06  0.215E-03    1.83       9.3  T
  12    -42.4504473 -0.528027E-07  0.525E-04    1.83      38.1  T
  13    -42.4504473 -0.234091E-08  0.227E-04    1.83      88.1  T
     SCC iter.                  ...        0 min,  0.018 sec
     gradient                   ...        0 min,  0.012 sec
 * total energy  :   -66.5852439 Eh     change        0.1929999E+02 Eh
   gradient norm :   280.9648788 Eh/α   predicted    -0.1168092E+02 (-160.52%)
   displ. norm   :     0.9998751 α      lambda       -0.2809148E+03
   maximum displ.:     0.9888417 α      in ANC's #1, #48, #59, ...

........................................................................
.............................. CYCLE    7 ..............................
........................................................................

 iter      E             dE          RMSdq      gap      omega  full diag
   1    -42.0600945 -0.420601E+02  0.326E+00    0.71       0.0  T
   2    -42.1163359 -0.562413E-01  0.303E+00    1.39       1.0  T
   3    -42.3463268 -0.229991E+00  0.125E+00    1.81       1.0  T
   4    -42.3657667 -0.194399E-01  0.677E-01    1.46       1.0  T
   5    -42.3718383 -0.607161E-02  0.303E-01    1.27       1.0  T
   6    -42.3723375 -0.499170E-03  0.132E-01    1.28       1.0  T
   7    -42.3726330 -0.295516E-03  0.486E-02    1.30       1.0  T
   8    -42.3726664 -0.333519E-04  0.179E-02    1.32       1.1  T
   9    -42.3726699 -0.350031E-05  0.745E-03    1.32       2.7  T
  10    -42.3726703 -0.453711E-06  0.268E-03    1.32       7.5  T
  11    -42.3726703  0.491161E-08  0.177E-03    1.32      11.3  T
  12    -42.3726704 -0.539403E-07  0.642E-04    1.32      31.2  T
  13    -42.3726704 -0.706421E-08  0.154E-04    1.32     130.2  T
     SCC iter.                  ...        0 min,  0.018 sec
     gradient                   ...        0 min,  0.012 sec
 * total energy  :   -82.6888569 Eh     change       -0.1610361E+02 Eh
   gradient norm :    12.7428623 Eh/α   predicted    -0.2808944E+03 (1644.29%)
   displ. norm   :     0.3204596 α      lambda       -0.8012049E+00
   maximum displ.:     0.1343921 α      in ANC's #48, #23, #45, ...

........................................................................
.............................. CYCLE    8 ..............................
........................................................................

 iter      E             dE          RMSdq      gap      omega  full diag
   1    -42.4401809 -0.424402E+02  0.102E+00    2.10       0.0  T
   2    -42.4414249 -0.124401E-02  0.932E-01    1.39       1.0  T
   3    -42.4592860 -0.178611E-01  0.363E-01    1.80       1.0  T
   4    -42.4591521  0.133897E-03  0.224E-01    1.59       1.0  T
   5    -42.4601806 -0.102854E-02  0.103E-01    1.67       1.0  T
   6    -42.4603747 -0.194048E-03  0.199E-02    1.68       1.0  T
   7    -42.4603776 -0.299637E-05  0.993E-03    1.69       2.0  T
   8    -42.4603786 -0.939964E-06  0.469E-03    1.68       4.3  T
   9    -42.4603788 -0.255851E-06  0.136E-03    1.69      14.7  T
  10    -42.4603789 -0.153422E-07  0.657E-04    1.69      30.4  T
  11    -42.4603789 -0.373366E-08  0.127E-04    1.69     156.9  T
     SCC iter.                  ...        0 min,  0.015 sec
     gradient                   ...        0 min,  0.011 sec
 * total energy  :   -83.2481956 Eh     change       -0.5593388E+00 Eh
   gradient norm :    12.5398770 Eh/α   predicted    -0.4417536E+00 ( -21.02%)
   displ. norm   :     0.6045850 α      lambda       -0.3386730E+01
   maximum displ.:     0.2620853 α      in ANC's #1, #55, #56, ...

........................................................................
.............................. CYCLE    9 ..............................
........................................................................

 iter      E             dE          RMSdq      gap      omega  full diag
   1    -42.5143786 -0.425144E+02  0.102E+00    2.23       0.0  T
   2    -42.5165684 -0.218979E-02  0.661E-01    2.04       1.0  T
   3    -42.5155352  0.103317E-02  0.434E-01    2.17       1.0  T
   4    -42.5191038 -0.356863E-02  0.118E-01    2.10       1.0  T
   5    -42.5192425 -0.138694E-03  0.639E-02    2.13       1.0  T
   6    -42.5193272 -0.846712E-04  0.218E-02    2.13       1.0  T
   7    -42.5193308 -0.363546E-05  0.121E-02    2.13       1.6  T
   8    -42.5193319 -0.101856E-05  0.468E-03    2.13       4.3  T
   9    -42.5193321 -0.283016E-06  0.184E-03    2.13      10.9  T
  10    -42.5193321 -0.988238E-08  0.449E-04    2.13      44.6  T
  11    -42.5193321 -0.303704E-08  0.151E-04    2.13     132.5  T
     SCC iter.                  ...        0 min,  0.015 sec
     gradient                   ...        0 min,  0.012 sec
 * total energy  :   -86.1085952 Eh     change       -0.2860400E+01 Eh
   gradient norm :    11.6159168 Eh/α   predicted    -0.2312332E+01 ( -19.16%)
   displ. norm   :     0.7771319 α      lambda       -0.8668388E+01
   maximum displ.:     0.6981928 α      in ANC's #1, #50, #60, ...

........................................................................
.............................. CYCLE   10 ..............................
........................................................................

 iter      E             dE          RMSdq      gap      omega  full diag
   1    -42.3769511 -0.423770E+02  0.210E+00    0.74       0.0  T
   2    -41.7642735  0.612678E+00  0.431E+00    0.78       1.0  T
   3    -42.4995180 -0.735244E+00  0.684E-01    1.74       1.0  T
   4    -42.5064136 -0.689568E-02  0.390E-01    1.59       1.0  T
   5    -42.5067247 -0.311101E-03  0.244E-01    1.60       1.0  T
   6    -42.5078596 -0.113485E-02  0.799E-02    1.63       1.0  T
   7    -42.5079897 -0.130144E-03  0.331E-02    1.64       1.0  T
   8    -42.5079959 -0.612285E-05  0.180E-02    1.64       1.1  T
   9    -42.5079964 -0.549353E-06  0.775E-03    1.64       2.6  T
  10    -42.5079965 -0.112272E-06  0.306E-03    1.64       6.5  T
  11    -42.5079965 -0.123676E-07  0.145E-03    1.64      13.8  T
  12    -42.5079965 -0.786911E-08  0.561E-04    1.64      35.6  T
  13    -42.5079965 -0.352415E-09  0.191E-04    1.64     104.8  T
     SCC iter.                  ...        0 min,  0.018 sec
     gradient                   ...        0 min,  0.012 sec
 * total energy  :   -76.0518089 Eh     change        0.1005679E+02 Eh
   gradient norm :   144.5350867 Eh/α   predicted    -0.6951760E+01 (-169.13%)
   displ. norm   :     0.3853473 α      lambda       -0.5414074E+02
   maximum displ.:     0.2040994 α      in ANC's #1, #59, #48, ...

........................................................................
.............................. CYCLE   11 ..............................
........................................................................

 iter      E             dE          RMSdq      gap      omega  full diag
   1    -42.4807846 -0.424808E+02  0.867E-01    1.74       0.0  T
   2    -42.4508993  0.298852E-01  0.115E+00    1.59       1.0  T
   3    -42.5003039 -0.494045E-01  0.370E-01    2.03       1.0  T
   4    -42.5004511 -0.147236E-03  0.205E-01    2.00       1.0  T
   5    -42.5008685 -0.417428E-03  0.100E-01    2.06       1.0  T
   6    -42.5010942 -0.225667E-03  0.193E-02    2.04       1.0  T
   7    -42.5010988 -0.454586E-05  0.947E-03    2.03       2.1  T
   8    -42.5010991 -0.348612E-06  0.365E-03    2.04       5.5  T
   9    -42.5010992 -0.119895E-06  0.127E-03    2.04      15.7  T
  10    -42.5010992 -0.564923E-08  0.447E-04    2.04      44.7  T
  11    -42.5010992 -0.658204E-09  0.175E-04    2.04     114.1  T
     SCC iter.                  ...        0 min,  0.015 sec
     gradient                   ...        0 min,  0.012 sec
 * total energy  :   -88.8181150 Eh     change       -0.1276631E+02 Eh
   gradient norm :     3.0359893 Eh/α   predicted    -0.3109015E+02 ( 143.53%)
   displ. norm   :     0.2413003 α      lambda       -0.1505140E+00
   maximum displ.:     0.0982627 α      in ANC's #1, #60, #57, ...

........................................................................
.............................. CYCLE   12 ..............................
........................................................................

 iter      E             dE          RMSdq      gap      omega  full diag
   1    -42.5061189 -0.425061E+02  0.462E-01    2.02       0.0  T
   2    -42.5057464  0.372563E-03  0.408E-01    2.09       1.0  T
   3    -42.5092193 -0.347298E-02  0.196E-01    2.11       1.0  T
   4    -42.5093115 -0.921793E-04  0.705E-02    2.11       1.0  T
   5    -42.5093658 -0.543203E-04  0.350E-02    2.13       1.0  T
   6    -42.5093950 -0.291494E-04  0.100E-02    2.12       2.0  T
   7    -42.5093960 -0.102015E-05  0.535E-03    2.12       3.7  T
   8    -42.5093962 -0.190519E-06  0.134E-03    2.12      14.9  T
   9    -42.5093962 -0.143621E-07  0.510E-04    2.12      39.2  T
  10    -42.5093962 -0.704027E-09  0.142E-04    2.12     141.1  T
     SCC iter.                  ...        0 min,  0.014 sec
     gradient                   ...        0 min,  0.012 sec
 * total energy  :   -88.8638487 Eh     change       -0.4573367E-01 Eh
   gradient norm :     2.8154417 Eh/α   predicted    -0.7964216E-01 (  74.14%)
   displ. norm   :     0.1128705 α      lambda       -0.6455347E-01
   maximum displ.:     0.0453097 α      in ANC's #1, #50, #47, ...

........................................................................
.............................. CYCLE   13 ..............................
........................................................................

 iter      E             dE          RMSdq      gap      omega  full diag
   1    -42.5098429 -0.425098E+02  0.157E-01    2.12       0.0  T
   2    -42.5098620 -0.191756E-04  0.101E-01    2.13       1.0  T
   3    -42.5097516  0.110455E-03  0.771E-02    2.11       1.0  T
   4    -42.5099169 -0.165291E-03  0.164E-02    2.12       1.2  T
   5    -42.5099202 -0.334144E-05  0.859E-03    2.12       2.3  T
   6    -42.5099217 -0.146736E-05  0.291E-03    2.12       6.9  T
   7    -42.5099218 -0.660782E-07  0.139E-03    2.12      14.4  T
   8    -42.5099218 -0.112847E-07  0.448E-04    2.12      44.6  T
   9    -42.5099218 -0.251308E-08  0.156E-04    2.12     128.4  T
     SCC iter.                  ...        0 min,  0.013 sec
     gradient                   ...        0 min,  0.012 sec
 * total energy  :   -88.9084484 Eh     change       -0.4459973E-01 Eh
   gradient norm :     1.7467142 Eh/α   predicted    -0.3268741E-01 ( -26.71%)
   displ. norm   :     0.1525542 α      lambda       -0.4364781E-01
   maximum displ.:     0.0458654 α      in ANC's #34, #48, #47, ...

........................................................................
.............................. CYCLE   14 ..............................
........................................................................

 iter      E             dE          RMSdq      gap      omega  full diag
   1    -42.5148815 -0.425149E+02  0.190E-01    2.13       0.0  T
   2    -42.5149604 -0.789529E-04  0.114E-01    2.14       1.0  T
   3    -42.5149116  0.488371E-04  0.708E-02    2.13       1.0  T
   4    -42.5149846 -0.730196E-04  0.219E-02    2.14       1.0  T
   5    -42.5149955 -0.108911E-04  0.739E-03    2.14       2.7  T
   6    -42.5149963 -0.812327E-06  0.408E-03    2.14       4.9  T
   7    -42.5149966 -0.220318E-06  0.192E-03    2.14      10.4  T
   8    -42.5149966 -0.689531E-07  0.618E-04    2.14      32.4  T
   9    -42.5149966 -0.411500E-08  0.246E-04    2.14      81.2  T
     SCC iter.                  ...        0 min,  0.013 sec
     gradient                   ...        0 min,  0.012 sec
 * total energy  :   -88.9400739 Eh     change       -0.3162552E-01 Eh
   gradient norm :     0.6972101 Eh/α   predicted    -0.2233170E-01 ( -29.39%)
   displ. norm   :     0.1616271 α      lambda       -0.2258613E-01
   maximum displ.:     0.0543385 α      in ANC's #34, #33, #47, ...

........................................................................
.............................. CYCLE   15 ..............................
........................................................................

 iter      E             dE          RMSdq      gap      omega  full diag
   1    -42.5204301 -0.425204E+02  0.190E-01    2.14       0.0  T
   2    -42.5205262 -0.961226E-04  0.127E-01    2.15       1.0  T
   3    -42.5204714  0.548432E-04  0.761E-02    2.15       1.0  T
   4    -42.5205866 -0.115171E-03  0.327E-02    2.15       1.0  T
   5    -42.5206086 -0.220885E-04  0.889E-03    2.15       2.3  T
   6    -42.5206094 -0.731845E-06  0.434E-03    2.15       4.6  T
   7    -42.5206096 -0.201580E-06  0.196E-03    2.15      10.2  T
   8    -42.5206096 -0.553505E-07  0.836E-04    2.15      23.9  T
   9    -42.5206096 -0.933241E-08  0.280E-04    2.15      71.5  T
     SCC iter.                  ...        0 min,  0.013 sec
     gradient                   ...        0 min,  0.012 sec
 * total energy  :   -88.9544720 Eh     change       -0.1439807E-01 Eh
   gradient norm :     0.2931872 Eh/α   predicted    -0.1158811E-01 ( -19.52%)
   displ. norm   :     0.1085928 α      lambda       -0.7485346E-02
   maximum displ.:     0.0380199 α      in ANC's #34, #33, #23, ...

........................................................................
.............................. CYCLE   16 ..............................
........................................................................

 iter      E             dE          RMSdq      gap      omega  full diag
   1    -42.5247873 -0.425248E+02  0.126E-01    2.14       0.0  T
   2    -42.5248245 -0.371959E-04  0.890E-02    2.14       1.0  T
   3    -42.5248631 -0.386038E-04  0.538E-02    2.15       1.0  T
   4    -42.5248989 -0.358541E-04  0.187E-02    2.15       1.1  T
   5    -42.5249035 -0.453604E-05  0.685E-03    2.14       2.9  T
   6    -42.5249041 -0.616067E-06  0.353E-03    2.15       5.7  T
   7    -42.5249043 -0.202672E-06  0.155E-03    2.15      12.9  T
   8    -42.5249043 -0.348333E-07  0.574E-04    2.15      34.9  T
   9    -42.5249043 -0.299720E-08  0.175E-04    2.15     114.5  T
     SCC iter.                  ...        0 min,  0.013 sec
     gradient                   ...        0 min,  0.012 sec
 * total energy  :   -88.9607338 Eh     change       -0.6261803E-02 Eh
   gradient norm :     0.5999820 Eh/α   predicted    -0.3786946E-02 ( -39.52%)
   displ. norm   :     0.3157644 α      lambda       -0.2143053E-01
   maximum displ.:     0.1075191 α      in ANC's #34, #33, #23, ...

........................................................................
.............................. CYCLE   17 ..............................
........................................................................

 iter      E             dE          RMSdq      gap      omega  full diag
   1    -42.5337901 -0.425338E+02  0.347E-01    2.12       0.0  T
   2    -42.5340990 -0.308852E-03  0.247E-01    2.12       1.0  T
   3    -42.5344644 -0.365431E-03  0.145E-01    2.13       1.0  T
   4    -42.5347110 -0.246622E-03  0.546E-02    2.14       1.0  T
   5    -42.5347468 -0.357580E-04  0.212E-02    2.13       1.0  T
   6    -42.5347534 -0.656840E-05  0.112E-02    2.14       1.8  T
   7    -42.5347552 -0.186784E-05  0.496E-03    2.13       4.0  T
   8    -42.5347555 -0.307520E-06  0.199E-03    2.13      10.0  T
   9    -42.5347556 -0.351214E-07  0.519E-04    2.13      38.5  T
  10    -42.5347556 -0.185675E-08  0.200E-04    2.13      99.8  T
     SCC iter.                  ...        0 min,  0.014 sec
     gradient                   ...        0 min,  0.012 sec
 * total energy  :   -88.9785962 Eh     change       -0.1786247E-01 Eh
   gradient norm :     0.7461139 Eh/α   predicted    -0.1178389E-01 ( -34.03%)
   displ. norm   :     0.5524226 α      lambda       -0.3516827E-01
   maximum displ.:     0.1868782 α      in ANC's #23, #34, #33, ...

........................................................................
.............................. CYCLE   18 ..............................
........................................................................

 iter      E             dE          RMSdq      gap      omega  full diag
   1    -42.5346343 -0.425346E+02  0.569E-01    2.04       0.0  T
   2    -42.5356615 -0.102713E-02  0.384E-01    2.13       1.0  T
   3    -42.5357877 -0.126241E-03  0.221E-01    2.06       1.0  T
   4    -42.5364808 -0.693059E-03  0.117E-01    2.13       1.0  T
   5    -42.5367241 -0.243291E-03  0.437E-02    2.10       1.0  T
   6    -42.5367529 -0.288704E-04  0.219E-02    2.11       1.0  T
   7    -42.5367565 -0.359536E-05  0.101E-02    2.11       2.0  T
   8    -42.5367576 -0.103739E-05  0.437E-03    2.11       4.6  T
   9    -42.5367577 -0.178822E-06  0.950E-04    2.11      21.1  T
  10    -42.5367578 -0.609077E-08  0.453E-04    2.11      44.2  T
     SCC iter.                  ...        0 min,  0.014 sec
     gradient                   ...        0 min,  0.011 sec
 * total energy  :   -88.9935499 Eh     change       -0.1495371E-01 Eh
   gradient norm :     0.7588288 Eh/α   predicted    -0.2295081E-01 (  53.48%)
   displ. norm   :     0.1198478 α      lambda       -0.1267979E-01
   maximum displ.:     0.0498535 α      in ANC's #48, #33, #34, ...

........................................................................
.............................. CYCLE   19 ..............................
........................................................................

 iter      E             dE          RMSdq      gap      omega  full diag
   1    -42.5411533 -0.425412E+02  0.179E-01    2.11       0.0  T
   2    -42.5412707 -0.117394E-03  0.130E-01    2.08       1.0  T
   3    -42.5413433 -0.725684E-04  0.733E-02    2.10       1.0  T
   4    -42.5413926 -0.493787E-04  0.432E-02    2.09       1.0  T
   5    -42.5414259 -0.332910E-04  0.144E-02    2.10       1.4  T
   6    -42.5414283 -0.240383E-05  0.741E-03    2.09       2.7  T
   7    -42.5414288 -0.494336E-06  0.355E-03    2.09       5.6  T
   8    -42.5414290 -0.150683E-06  0.112E-03    2.09      17.9  T
   9    -42.5414290 -0.289455E-08  0.337E-04    2.09      59.3  T
  10    -42.5414290 -0.143476E-08  0.132E-04    2.09     151.4  T
     SCC iter.                  ...        0 min,  0.014 sec
     gradient                   ...        0 min,  0.011 sec
 * total energy  :   -89.0002837 Eh     change       -0.6733732E-02 Eh
   gradient norm :     0.0876935 Eh/α   predicted    -0.6430887E-02 (  -4.50%)
   displ. norm   :     0.1319984 α      lambda       -0.7791410E-02
   maximum displ.:     0.0710852 α      in ANC's #23, #21, #24, ...

........................................................................
.............................. CYCLE   20 ..............................
........................................................................

 iter      E             dE          RMSdq      gap      omega  full diag
   1    -42.5462427 -0.425462E+02  0.111E-01    2.06       0.0  T
   2    -42.5462911 -0.484283E-04  0.652E-02    2.06       1.0  T
   3    -42.5462818  0.932428E-05  0.406E-02    2.07       1.0  T
   4    -42.5463056 -0.237684E-04  0.182E-02    2.06       1.1  T
   5    -42.5463127 -0.709975E-05  0.701E-03    2.06       2.9  T
   6    -42.5463134 -0.739579E-06  0.309E-03    2.06       6.5  T
   7    -42.5463136 -0.199812E-06  0.177E-03    2.06      11.3  T
   8    -42.5463136 -0.305226E-07  0.692E-04    2.06      28.9  T
   9    -42.5463136 -0.152399E-08  0.163E-04    2.06     122.9  T
     SCC iter.                  ...        0 min,  0.013 sec
     gradient                   ...        0 min,  0.011 sec
 * total energy  :   -89.0072008 Eh     change       -0.6917107E-02 Eh
   gradient norm :     0.1492414 Eh/α   predicted    -0.3963606E-02 ( -42.70%)
   displ. norm   :     0.4339481 α      lambda       -0.2159508E-01
   maximum displ.:     0.2426544 α      in ANC's #23, #21, #24, ...
 * RMSD in coord.:     1.1025072 α      energy gain  -0.3965487E+02 Eh

generating ANC from model Hessian ...
Using Lindh-Hessian (1995)
 Shifting diagonal of input Hessian by    7.6573658274567066E-003
 Lowest  eigenvalues of input Hessian
    0.000000    0.000000    0.000000    0.000000    0.000000    0.000000
    0.010000    0.012639    0.014453    0.014546    0.018238    0.020340
    0.020556    0.024118    0.025254    0.030926    0.035690    0.040005
 Highest eigenvalues
    2.202978    2.203302    2.242329    2.507267   29.284221   34.097440


........................................................................
.............................. CYCLE   21 ..............................
........................................................................

 iter      E             dE          RMSdq      gap      omega  full diag
   1    -42.5595756 -0.425596E+02  0.361E-01    1.98       0.0  T
   2    -42.5600386 -0.463021E-03  0.217E-01    1.95       1.0  T
   3    -42.5599073  0.131342E-03  0.138E-01    1.99       1.0  T
   4    -42.5602119 -0.304644E-03  0.619E-02    1.96       1.0  T
   5    -42.5602954 -0.834890E-04  0.214E-02    1.98       1.0  T
   6    -42.5602997 -0.432594E-05  0.108E-02    1.97       1.9  T
   7    -42.5603029 -0.314862E-05  0.551E-03    1.97       3.6  T
   8    -42.5603032 -0.300730E-06  0.205E-03    1.97       9.7  T
   9    -42.5603032 -0.993065E-08  0.484E-04    1.97      41.3  T
  10    -42.5603032 -0.125653E-08  0.235E-04    1.97      85.0  T
     SCC iter.                  ...        0 min,  0.014 sec
     gradient                   ...        0 min,  0.011 sec
 * total energy  :   -89.0204986 Eh     change       -0.1329785E-01 Eh
   gradient norm :     0.1933770 Eh/α   predicted     0.0000000E+00 (-100.00%)
   displ. norm   :     0.2990832 α      lambda       -0.2383153E-01
   maximum displ.:     0.1279596 α      in ANC's #10, #11, #8, ...

........................................................................
.............................. CYCLE   22 ..............................
........................................................................

 iter      E             dE          RMSdq      gap      omega  full diag
   1    -42.5800772 -0.425801E+02  0.233E-01    2.05       0.0  T
   2    -42.5801647 -0.874880E-04  0.145E-01    2.02       1.0  T
   3    -42.5802408 -0.761151E-04  0.103E-01    2.05       1.0  T
   4    -42.5804209 -0.180108E-03  0.257E-02    2.03       1.0  T
   5    -42.5804306 -0.970356E-05  0.105E-02    2.04       1.9  T
   6    -42.5804331 -0.243751E-05  0.529E-03    2.04       3.8  T
   7    -42.5804334 -0.383599E-06  0.268E-03    2.04       7.5  T
   8    -42.5804335 -0.879382E-07  0.934E-04    2.04      21.4  T
   9    -42.5804335 -0.355431E-08  0.222E-04    2.04      90.1  T
     SCC iter.                  ...        0 min,  0.013 sec
     gradient                   ...        0 min,  0.011 sec
 * total energy  :   -88.7913782 Eh     change        0.2291204E+00 Eh
   gradient norm :     5.2399234 Eh/α   predicted    -0.1299851E-01 (-105.67%)
   displ. norm   :     0.1002798 α      lambda       -0.4308838E+00
   maximum displ.:     0.0533132 α      in ANC's #65, #47, #39, ...

........................................................................
.............................. CYCLE   23 ..............................
........................................................................

 iter      E             dE          RMSdq      gap      omega  full diag
   1    -42.5813853 -0.425814E+02  0.100E-01    2.05       0.0  T
   2    -42.5814066 -0.212885E-04  0.581E-02    2.05       1.0  T
   3    -42.5813802  0.264121E-04  0.397E-02    2.04       1.0  T
   4    -42.5814194 -0.392103E-04  0.121E-02    2.05       1.7  T
   5    -42.5814213 -0.184534E-05  0.484E-03    2.05       4.1  T
   6    -42.5814214 -0.161373E-06  0.300E-03    2.05       6.7  T
   7    -42.5814216 -0.177763E-06  0.992E-04    2.05      20.2  T
   8    -42.5814216 -0.530970E-08  0.259E-04    2.05      77.2  T
     SCC iter.                  ...        0 min,  0.011 sec
     gradient                   ...        0 min,  0.011 sec
 * total energy  :   -89.0300048 Eh     change       -0.2386266E+00 Eh
   gradient norm :     0.1180159 Eh/α   predicted    -0.2176088E+00 (  -8.81%)
   displ. norm   :     0.3943261 α      lambda       -0.8644823E-02
   maximum displ.:     0.1782629 α      in ANC's #8, #10, #11, ...

........................................................................
.............................. CYCLE   24 ..............................
........................................................................

 iter      E             dE          RMSdq      gap      omega  full diag
   1    -42.5938827 -0.425939E+02  0.225E-01    2.11       0.0  T
   2    -42.5939678 -0.851493E-04  0.140E-01    2.10       1.0  T
   3    -42.5940380 -0.701961E-04  0.992E-02    2.10       1.0  T
   4    -42.5941659 -0.127862E-03  0.213E-02    2.10       1.0  T
   5    -42.5941727 -0.680004E-05  0.729E-03    2.10       2.7  T
   6    -42.5941734 -0.721494E-06  0.361E-03    2.10       5.5  T
   7    -42.5941735 -0.574461E-07  0.111E-03    2.10      18.0  T
   8    -42.5941735 -0.291230E-08  0.502E-04    2.10      39.8  T
   9    -42.5941735 -0.374163E-08  0.198E-04    2.10     100.9  T
     SCC iter.                  ...        0 min,  0.013 sec
     gradient                   ...        0 min,  0.011 sec
 * total energy  :   -89.0366510 Eh     change       -0.6646146E-02 Eh
   gradient norm :     0.0511860 Eh/α   predicted    -0.4994585E-02 ( -24.85%)
   displ. norm   :     0.4583711 α      lambda       -0.6578998E-02
   maximum displ.:     0.2094520 α      in ANC's #10, #8, #11, ...

........................................................................
.............................. CYCLE   25 ..............................
........................................................................

 iter      E             dE          RMSdq      gap      omega  full diag
   1    -42.5985051 -0.425985E+02  0.280E-01    2.15       0.0  T
   2    -42.5985940 -0.889015E-04  0.196E-01    2.15       1.0  T
   3    -42.5990454 -0.451319E-03  0.117E-01    2.15       1.0  T
   4    -42.5991589 -0.113597E-03  0.239E-02    2.16       1.0  T
   5    -42.5991662 -0.727757E-05  0.102E-02    2.15       2.0  T
   6    -42.5991678 -0.154076E-05  0.468E-03    2.15       4.3  T
   7    -42.5991678 -0.325967E-07  0.257E-03    2.15       7.8  T
   8    -42.5991679 -0.133171E-06  0.896E-04    2.15      22.3  T
   9    -42.5991679 -0.119432E-07  0.274E-04    2.15      73.1  T
     SCC iter.                  ...        0 min,  0.013 sec
     gradient                   ...        0 min,  0.011 sec
 * total energy  :   -89.0408707 Eh     change       -0.4219706E-02 Eh
   gradient norm :     0.0294341 Eh/α   predicted    -0.3980647E-02 (  -5.67%)
   displ. norm   :     0.2617529 α      lambda       -0.1844613E-02
   maximum displ.:     0.1529365 α      in ANC's #10, #6, #8, ...

........................................................................
.............................. CYCLE   26 ..............................
........................................................................

 iter      E             dE          RMSdq      gap      omega  full diag
   1    -42.6006044 -0.426006E+02  0.171E-01    2.17       0.0  T
   2    -42.6006120 -0.757668E-05  0.114E-01    2.17       1.0  T
   3    -42.6006668 -0.547975E-04  0.780E-02    2.17       1.0  T
   4    -42.6007442 -0.773835E-04  0.105E-02    2.17       1.9  T
   5    -42.6007452 -0.100405E-05  0.523E-03    2.17       3.8  T
   6    -42.6007455 -0.326651E-06  0.263E-03    2.17       7.6  T
   7    -42.6007456 -0.788270E-07  0.130E-03    2.17      15.4  T
   8    -42.6007456 -0.183355E-07  0.570E-04    2.17      35.1  T
   9    -42.6007456 -0.613976E-08  0.140E-04    2.17     142.4  T
     SCC iter.                  ...        0 min,  0.013 sec
     gradient                   ...        0 min,  0.011 sec
 * total energy  :   -89.0421005 Eh     change       -0.1229838E-02 Eh
   gradient norm :     0.0210717 Eh/α   predicted    -0.9855115E-03 ( -19.87%)
   displ. norm   :     0.2192298 α      lambda       -0.1311725E-02
   maximum displ.:     0.1256700 α      in ANC's #10, #6, #2, ...

........................................................................
.............................. CYCLE   27 ..............................
........................................................................

 iter      E             dE          RMSdq      gap      omega  full diag
   1    -42.6013208 -0.426013E+02  0.141E-01    2.17       0.0  T
   2    -42.6013310 -0.102499E-04  0.928E-02    2.18       1.0  T
   3    -42.6013590 -0.279918E-04  0.646E-02    2.17       1.0  T
   4    -42.6014147 -0.557349E-04  0.105E-02    2.18       1.9  T
   5    -42.6014151 -0.340031E-06  0.458E-03    2.18       4.4  T
   6    -42.6014155 -0.380708E-06  0.216E-03    2.18       9.2  T
   7    -42.6014156 -0.892373E-07  0.104E-03    2.18      19.2  T
   8    -42.6014156 -0.776539E-08  0.259E-04    2.18      77.3  T
   9    -42.6014156 -0.924857E-09  0.101E-04    2.18     198.5  T
     SCC iter.                  ...        0 min,  0.013 sec
     gradient                   ...        0 min,  0.012 sec
 * total energy  :   -89.0430402 Eh     change       -0.9396536E-03 Eh
   gradient norm :     0.0174901 Eh/α   predicted    -0.6873939E-03 ( -26.85%)
   displ. norm   :     0.2836728 α      lambda       -0.1359381E-02
   maximum displ.:     0.1560931 α      in ANC's #10, #7, #6, ...

........................................................................
.............................. CYCLE   28 ..............................
........................................................................

 iter      E             dE          RMSdq      gap      omega  full diag
   1    -42.6029402 -0.426029E+02  0.161E-01    2.18       0.0  T
   2    -42.6029713 -0.311139E-04  0.958E-02    2.18       1.0  T
   3    -42.6029101  0.612237E-04  0.692E-02    2.18       1.0  T
   4    -42.6029960 -0.859051E-04  0.149E-02    2.18       1.3  T
   5    -42.6029984 -0.234599E-05  0.556E-03    2.18       3.6  T
   6    -42.6029989 -0.567120E-06  0.216E-03    2.18       9.3  T
   7    -42.6029990 -0.537134E-07  0.101E-03    2.18      19.8  T
   8    -42.6029990 -0.210235E-08  0.623E-04    2.18      32.1  T
   9    -42.6029990 -0.875501E-08  0.134E-04    2.18     148.7  T
     SCC iter.                  ...        0 min,  0.013 sec
     gradient                   ...        0 min,  0.011 sec
 * total energy  :   -89.0440401 Eh     change       -0.9998835E-03 Eh
   gradient norm :     0.0308893 Eh/α   predicted    -0.7344299E-03 ( -26.55%)
   displ. norm   :     0.3345547 α      lambda       -0.1391865E-02
   maximum displ.:     0.1721513 α      in ANC's #7, #10, #6, ...

........................................................................
.............................. CYCLE   29 ..............................
........................................................................

 iter      E             dE          RMSdq      gap      omega  full diag
   1    -42.6033389 -0.426033E+02  0.165E-01    2.18       0.0  T
   2    -42.6033794 -0.404984E-04  0.964E-02    2.19       1.0  T
   3    -42.6033510  0.283534E-04  0.491E-02    2.19       1.0  T
   4    -42.6033867 -0.356826E-04  0.164E-02    2.19       1.2  T
   5    -42.6033906 -0.393150E-05  0.608E-03    2.19       3.3  T
   6    -42.6033913 -0.682661E-06  0.252E-03    2.19       7.9  T
   7    -42.6033914 -0.785328E-07  0.966E-04    2.19      20.7  T
   8    -42.6033914  0.601403E-09  0.515E-04    2.19      38.8  T
     SCC iter.                  ...        0 min,  0.011 sec
     gradient                   ...        0 min,  0.011 sec
 * total energy  :   -89.0450518 Eh     change       -0.1011749E-02 Eh
   gradient norm :     0.0199989 Eh/α   predicted    -0.7738398E-03 ( -23.51%)
   displ. norm   :     0.3746543 α      lambda       -0.1103786E-02
   maximum displ.:     0.2004756 α      in ANC's #7, #10, #3, ...

........................................................................
.............................. CYCLE   30 ..............................
........................................................................

 iter      E             dE          RMSdq      gap      omega  full diag
   1    -42.6003211 -0.426003E+02  0.188E-01    2.20       0.0  T
   2    -42.6003339 -0.127931E-04  0.110E-01    2.19       1.0  T
   3    -42.6002357  0.981028E-04  0.670E-02    2.21       1.0  T
   4    -42.6003504 -0.114640E-03  0.915E-03    2.20       2.2  T
   5    -42.6003519 -0.149902E-05  0.452E-03    2.20       4.4  T
   6    -42.6003520 -0.109173E-06  0.190E-03    2.20      10.5  T
   7    -42.6003520 -0.200305E-07  0.825E-04    2.20      24.3  T
   8    -42.6003520 -0.128141E-07  0.385E-04    2.20      52.0  T
     SCC iter.                  ...        0 min,  0.011 sec
     gradient                   ...        0 min,  0.011 sec
 * total energy  :   -89.0454837 Eh     change       -0.4319271E-03 Eh
   gradient norm :     0.0277444 Eh/α   predicted    -0.6293725E-03 (  45.71%)
   displ. norm   :     0.1246834 α      lambda       -0.8602483E-03
   maximum displ.:     0.0741480 α      in ANC's #10, #3, #11, ...

........................................................................
.............................. CYCLE   31 ..............................
........................................................................

 iter      E             dE          RMSdq      gap      omega  full diag
   1    -42.6050498 -0.426050E+02  0.107E-01    2.22       0.0  T
   2    -42.6050586 -0.883024E-05  0.624E-02    2.21       1.0  T
   3    -42.6050299  0.287123E-04  0.386E-02    2.22       1.0  T
   4    -42.6050630 -0.330832E-04  0.726E-03    2.21       2.8  T
   5    -42.6050639 -0.946601E-06  0.202E-03    2.21       9.9  T
   6    -42.6050640 -0.412420E-07  0.952E-04    2.21      21.0  T
   7    -42.6050640 -0.106427E-07  0.440E-04    2.21      45.4  T
     SCC iter.                  ...        0 min,  0.010 sec
     gradient                   ...        0 min,  0.011 sec
 * total energy  :   -89.0457177 Eh     change       -0.2339176E-03 Eh
   gradient norm :     0.0242159 Eh/α   predicted    -0.4368288E-03 (  86.74%)
   displ. norm   :     0.1102007 α      lambda       -0.7587196E-03
   maximum displ.:     0.0513249 α      in ANC's #11, #8, #2, ...

........................................................................
.............................. CYCLE   32 ..............................
........................................................................

 iter      E             dE          RMSdq      gap      omega  full diag
   1    -42.6056972 -0.426057E+02  0.791E-02    2.23       0.0  T
   2    -42.6057123 -0.150547E-04  0.468E-02    2.22       1.0  T
   3    -42.6057214 -0.914531E-05  0.372E-02    2.22       1.0  T
   4    -42.6057384 -0.170033E-04  0.758E-03    2.22       2.6  T
   5    -42.6057389 -0.509951E-06  0.395E-03    2.22       5.1  T
   6    -42.6057392 -0.261011E-06  0.134E-03    2.22      14.9  T
   7    -42.6057392 -0.108683E-07  0.791E-04    2.22      25.3  T
   8    -42.6057392 -0.992301E-08  0.342E-04    2.22      58.5  T
     SCC iter.                  ...        0 min,  0.011 sec
     gradient                   ...        0 min,  0.011 sec
 * total energy  :   -89.0459725 Eh     change       -0.2548451E-03 Eh
   gradient norm :     0.0229640 Eh/α   predicted    -0.3839774E-03 (  50.67%)
   displ. norm   :     0.1366802 α      lambda       -0.2773709E-03
   maximum displ.:     0.0685160 α      in ANC's #7, #10, #3, ...

........................................................................
.............................. CYCLE   33 ..............................
........................................................................

 iter      E             dE          RMSdq      gap      omega  full diag
   1    -42.6043271 -0.426043E+02  0.657E-02    2.23       0.0  T
   2    -42.6043294 -0.238647E-05  0.376E-02    2.22       1.0  T
   3    -42.6043159  0.135616E-04  0.291E-02    2.23       1.0  T
   4    -42.6043339 -0.180139E-04  0.366E-03    2.22       5.5  T
   5    -42.6043340 -0.910655E-07  0.186E-03    2.22      10.7  T
   6    -42.6043340 -0.492653E-07  0.907E-04    2.23      22.1  T
   7    -42.6043340 -0.847643E-08  0.459E-04    2.22      43.6  T
     SCC iter.                  ...        0 min,  0.010 sec
     gradient                   ...        0 min,  0.011 sec
 * total energy  :   -89.0461480 Eh     change       -0.1754861E-03 Eh
   gradient norm :     0.0152948 Eh/α   predicted    -0.1412800E-03 ( -19.49%)
   displ. norm   :     0.0804693 α      lambda       -0.1258368E-03
   maximum displ.:     0.0433284 α      in ANC's #3, #1, #7, ...

........................................................................
.............................. CYCLE   34 ..............................
........................................................................

 iter      E             dE          RMSdq      gap      omega  full diag
   1    -42.6043610 -0.426044E+02  0.340E-02    2.23       0.0  T
   2    -42.6043620 -0.975921E-06  0.205E-02    2.23       1.0  T
   3    -42.6043614  0.565800E-06  0.158E-02    2.23       1.3  T
   4    -42.6043656 -0.421827E-05  0.258E-03    2.23       7.8  T
   5    -42.6043657 -0.847509E-08  0.128E-03    2.23      15.6  T
   6    -42.6043657 -0.416594E-07  0.588E-04    2.23      34.0  T
   7    -42.6043657 -0.515097E-08  0.230E-04    2.23      86.8  T
     SCC iter.                  ...        0 min,  0.010 sec
     gradient                   ...        0 min,  0.011 sec
 * total energy  :   -89.0462471 Eh     change       -0.9908389E-04 Eh
   gradient norm :     0.0133734 Eh/α   predicted    -0.6333329E-04 ( -36.08%)
   displ. norm   :     0.1344726 α      lambda       -0.2415377E-03
   maximum displ.:     0.0798196 α      in ANC's #3, #1, #7, ...

........................................................................
.............................. CYCLE   35 ..............................
........................................................................

 iter      E             dE          RMSdq      gap      omega  full diag
   1    -42.6050280 -0.426050E+02  0.615E-02    2.24       0.0  T
   2    -42.6050300 -0.207712E-05  0.393E-02    2.23       1.0  T
   3    -42.6050387 -0.869577E-05  0.276E-02    2.23       1.0  T
   4    -42.6050491 -0.103571E-04  0.484E-03    2.23       4.1  T
   5    -42.6050491  0.280089E-07  0.284E-03    2.23       7.0  T
   6    -42.6050493 -0.247863E-06  0.935E-04    2.23      21.4  T
   7    -42.6050493 -0.983889E-08  0.378E-04    2.23      53.0  T
     SCC iter.                  ...        0 min,  0.010 sec
     gradient                   ...        0 min,  0.011 sec
 * total energy  :   -89.0464175 Eh     change       -0.1703881E-03 Eh
   gradient norm :     0.0185570 Eh/α   predicted    -0.1229615E-03 ( -27.83%)
   displ. norm   :     0.1127635 α      lambda       -0.1787095E-03
   maximum displ.:     0.0628790 α      in ANC's #1, #3, #7, ...

........................................................................
.............................. CYCLE   36 ..............................
........................................................................

 iter      E             dE          RMSdq      gap      omega  full diag
   1    -42.6057194 -0.426057E+02  0.552E-02    2.24       0.0  T
   2    -42.6057194  0.337607E-07  0.353E-02    2.24       1.0  T
   3    -42.6057281 -0.878174E-05  0.254E-02    2.24       1.0  T
   4    -42.6057364 -0.824006E-05  0.357E-03    2.24       5.6  T
   5    -42.6057364 -0.435733E-07  0.226E-03    2.24       8.8  T
   6    -42.6057366 -0.147995E-06  0.624E-04    2.24      32.1  T
   7    -42.6057366 -0.304006E-08  0.283E-04    2.24      70.7  T
     SCC iter.                  ...        0 min,  0.010 sec
     gradient                   ...        0 min,  0.011 sec
 * total energy  :   -89.0465504 Eh     change       -0.1329605E-03 Eh
   gradient norm :     0.0273610 Eh/α   predicted    -0.9049926E-04 ( -31.94%)
   displ. norm   :     0.1166749 α      lambda       -0.1870545E-03
   maximum displ.:     0.0724536 α      in ANC's #1, #3, #7, ...

........................................................................
.............................. CYCLE   37 ..............................
........................................................................

 iter      E             dE          RMSdq      gap      omega  full diag
   1    -42.6064518 -0.426065E+02  0.573E-02    2.25       0.0  T
   2    -42.6064515  0.280049E-06  0.356E-02    2.24       1.0  T
   3    -42.6064541 -0.254781E-05  0.279E-02    2.25       1.0  T
   4    -42.6064653 -0.111931E-04  0.315E-03    2.25       6.4  T
   5    -42.6064654 -0.107613E-06  0.180E-03    2.25      11.1  T
   6    -42.6064654 -0.767209E-07  0.606E-04    2.25      33.0  T
   7    -42.6064655 -0.297312E-08  0.254E-04    2.25      78.8  T
     SCC iter.                  ...        0 min,  0.010 sec
     gradient                   ...        0 min,  0.011 sec
 * total energy  :   -89.0466884 Eh     change       -0.1379584E-03 Eh
   gradient norm :     0.0425409 Eh/α   predicted    -0.9480656E-04 ( -31.28%)
   displ. norm   :     0.1097755 α      lambda       -0.1968642E-03
   maximum displ.:     0.0711648 α      in ANC's #1, #7, #6, ...

........................................................................
.............................. CYCLE   38 ..............................
........................................................................

 iter      E             dE          RMSdq      gap      omega  full diag
   1    -42.6069693 -0.426070E+02  0.527E-02    2.26       0.0  T
   2    -42.6069695 -0.185481E-06  0.317E-02    2.25       1.0  T
   3    -42.6069607  0.884178E-05  0.261E-02    2.26       1.0  T
   4    -42.6069743 -0.135933E-04  0.207E-03    2.25       9.7  T
   5    -42.6069743 -0.474061E-07  0.126E-03    2.25      15.9  T
   6    -42.6069743 -0.293443E-07  0.585E-04    2.25      34.2  T
   7    -42.6069743 -0.125296E-08  0.187E-04    2.25     107.0  T
     SCC iter.                  ...        0 min,  0.010 sec
     gradient                   ...        0 min,  0.011 sec
 * total energy  :   -89.0468307 Eh     change       -0.1422717E-03 Eh
   gradient norm :     0.0522598 Eh/α   predicted    -0.9962354E-04 ( -29.98%)
   displ. norm   :     0.0930526 α      lambda       -0.1957740E-03
   maximum displ.:     0.0511791 α      in ANC's #1, #3, #7, ...

........................................................................
.............................. CYCLE   39 ..............................
........................................................................

 iter      E             dE          RMSdq      gap      omega  full diag
   1    -42.6071283 -0.426071E+02  0.445E-02    2.26       0.0  T
   2    -42.6071292 -0.942583E-06  0.267E-02    2.26       1.0  T
   3    -42.6071263  0.291781E-05  0.110E-02    2.25       1.8  T
   4    -42.6071295 -0.323551E-05  0.267E-03    2.26       7.5  T
   5    -42.6071297 -0.120636E-06  0.799E-04    2.26      25.0  T
   6    -42.6071297 -0.105788E-08  0.569E-04    2.25      35.2  T
     SCC iter.                  ...        0 min,  0.009 sec
     gradient                   ...        0 min,  0.011 sec
 * total energy  :   -89.0469711 Eh     change       -0.1404592E-03 Eh
   gradient norm :     0.0249910 Eh/α   predicted    -0.9873811E-04 ( -29.70%)
   displ. norm   :     0.1530731 α      lambda       -0.1957599E-03
   maximum displ.:     0.0957583 α      in ANC's #1, #7, #11, ...

........................................................................
.............................. CYCLE   40 ..............................
........................................................................

 iter      E             dE          RMSdq      gap      omega  full diag
   1    -42.6061019 -0.426061E+02  0.706E-02    2.26       0.0  T
   2    -42.6061032 -0.129752E-05  0.422E-02    2.26       1.0  T
   3    -42.6061028  0.405817E-06  0.600E-03    2.26       3.3  T
   4    -42.6061034 -0.672506E-06  0.279E-03    2.25       7.2  T
   5    -42.6061036 -0.145235E-06  0.134E-03    2.26      14.9  T
   6    -42.6061036 -0.126078E-07  0.602E-04    2.26      33.2  T
   7    -42.6061036 -0.277920E-08  0.255E-04    2.26      78.3  T
     SCC iter.                  ...        0 min,  0.010 sec
     gradient                   ...        0 min,  0.011 sec
 * total energy  :   -89.0469832 Eh     change       -0.1212846E-04 Eh
   gradient norm :     0.1507183 Eh/α   predicted    -0.1001799E-03 ( 725.99%)
   displ. norm   :     0.1027386 α      lambda       -0.4622342E-03
   maximum displ.:     0.0758564 α      in ANC's #3, #9, #1, ...

........................................................................
.............................. CYCLE   41 ..............................
........................................................................

 iter      E             dE          RMSdq      gap      omega  full diag
   1    -42.6060782 -0.426061E+02  0.649E-02    2.24       0.0  T
   2    -42.6060790 -0.851231E-06  0.421E-02    2.25       1.0  T
   3    -42.6061016 -0.225875E-04  0.282E-02    2.24       1.0  T
   4    -42.6061106 -0.898634E-05  0.459E-03    2.24       4.4  T
   5    -42.6061107 -0.140336E-06  0.267E-03    2.25       7.5  T
   6    -42.6061109 -0.160236E-06  0.101E-03    2.24      19.9  T
   7    -42.6061109 -0.119559E-07  0.425E-04    2.24      47.1  T
   8    -42.6061109 -0.105641E-08  0.147E-04    2.24     136.0  T
     SCC iter.                  ...        0 min,  0.011 sec
     gradient                   ...        0 min,  0.011 sec
 * total energy  :   -89.0472004 Eh     change       -0.2171362E-03 Eh
   gradient norm :     0.0286446 Eh/α   predicted    -0.2335709E-03 (   7.57%)
   displ. norm   :     0.0548823 α      lambda       -0.1266625E-03
   maximum displ.:     0.0305844 α      in ANC's #3, #1, #9, ...

........................................................................
.............................. CYCLE   42 ..............................
........................................................................

 iter      E             dE          RMSdq      gap      omega  full diag
   1    -42.6065037 -0.426065E+02  0.358E-02    2.24       0.0  T
   2    -42.6065039 -0.216477E-06  0.227E-02    2.24       1.0  T
   3    -42.6065061 -0.217092E-05  0.172E-02    2.24       1.2  T
   4    -42.6065100 -0.392833E-05  0.225E-03    2.24       8.9  T
   5    -42.6065101 -0.406377E-07  0.126E-03    2.24      15.9  T
   6    -42.6065101 -0.245482E-07  0.610E-04    2.24      32.8  T
   7    -42.6065101 -0.477326E-08  0.219E-04    2.24      91.2  T
     SCC iter.                  ...        0 min,  0.010 sec
     gradient                   ...        0 min,  0.011 sec
 * total energy  :   -89.0472904 Eh     change       -0.9004244E-04 Eh
   gradient norm :     0.0338388 Eh/α   predicted    -0.6352470E-04 ( -29.45%)
   displ. norm   :     0.1212608 α      lambda       -0.2301549E-03
   maximum displ.:     0.0791022 α      in ANC's #1, #7, #11, ...
 * RMSD in coord.:     0.4718549 α      energy gain  -0.4008964E-01 Eh

generating ANC from model Hessian ...
Using Lindh-Hessian (1995)
 Shifting diagonal of input Hessian by    7.1152281166636452E-003
 Lowest  eigenvalues of input Hessian
    0.000000    0.000000    0.000000    0.000000    0.000000    0.000000
    0.010000    0.012062    0.013373    0.014432    0.017529    0.019153
    0.021601    0.024789    0.026671    0.036255    0.040816    0.042966
 Highest eigenvalues
    2.181797    2.226852    2.284821    2.510855   28.873367   34.597670


........................................................................
.............................. CYCLE   43 ..............................
........................................................................

 iter      E             dE          RMSdq      gap      omega  full diag
   1    -42.6053744 -0.426054E+02  0.675E-02    2.23       0.0  T
   2    -42.6053760 -0.155777E-05  0.432E-02    2.23       1.0  T
   3    -42.6053633  0.126896E-04  0.312E-02    2.23       1.0  T
   4    -42.6053832 -0.199378E-04  0.401E-03    2.23       5.0  T
   5    -42.6053833 -0.979849E-07  0.214E-03    2.23       9.4  T
   6    -42.6053834 -0.639535E-07  0.120E-03    2.23      16.7  T
   7    -42.6053834 -0.189418E-07  0.336E-04    2.23      59.5  T
   8    -42.6053834 -0.104092E-08  0.163E-04    2.23     122.9  T
     SCC iter.                  ...        0 min,  0.011 sec
     gradient                   ...        0 min,  0.011 sec
 * total energy  :   -89.0473080 Eh     change       -0.1755948E-04 Eh
   gradient norm :     0.1470487 Eh/α   predicted     0.0000000E+00 (-100.00%)
   displ. norm   :     0.0998218 α      lambda       -0.1215959E-01
   maximum displ.:     0.0524777 α      in ANC's #63, #40, #47, ...

........................................................................
.............................. CYCLE   44 ..............................
........................................................................

 iter      E             dE          RMSdq      gap      omega  full diag
   1    -42.6026831 -0.426027E+02  0.104E-01    2.22       0.0  T
   2    -42.6026986 -0.155015E-04  0.586E-02    2.23       1.0  T
   3    -42.6026712  0.274577E-04  0.414E-02    2.22       1.0  T
   4    -42.6027093 -0.381703E-04  0.927E-03    2.23       2.2  T
   5    -42.6027095 -0.132153E-06  0.370E-03    2.23       5.4  T
   6    -42.6027097 -0.186006E-06  0.199E-03    2.23      10.1  T
   7    -42.6027097 -0.521720E-07  0.655E-04    2.23      30.5  T
   8    -42.6027097 -0.611249E-08  0.170E-04    2.23     117.9  T
     SCC iter.                  ...        0 min,  0.011 sec
     gradient                   ...        0 min,  0.011 sec
 * total energy  :   -88.7361734 Eh     change        0.3111346E+00 Eh
   gradient norm :     8.5261027 Eh/α   predicted    -0.6140383E-02 (-101.97%)
   displ. norm   :     0.0832366 α      lambda       -0.6816345E+00
   maximum displ.:     0.0571335 α      in ANC's #63, #64, #47, ...

........................................................................
.............................. CYCLE   45 ..............................
........................................................................

 iter      E             dE          RMSdq      gap      omega  full diag
   1    -42.6073229 -0.426073E+02  0.926E-02    2.24       0.0  T
   2    -42.6073379 -0.150515E-04  0.520E-02    2.23       1.0  T
   3    -42.6073165  0.213606E-04  0.384E-02    2.24       1.0  T
   4    -42.6073492 -0.326855E-04  0.910E-03    2.23       2.2  T
   5    -42.6073493 -0.116407E-06  0.366E-03    2.23       5.5  T
   6    -42.6073496 -0.282601E-06  0.151E-03    2.23      13.2  T
   7    -42.6073496 -0.117603E-07  0.611E-04    2.23      32.7  T
   8    -42.6073496 -0.907859E-08  0.133E-04    2.23     150.8  T
     SCC iter.                  ...        0 min,  0.011 sec
     gradient                   ...        0 min,  0.011 sec
 * total energy  :   -89.0474162 Eh     change       -0.3112429E+00 Eh
   gradient norm :     0.0148227 Eh/α   predicted    -0.3431788E+00 (  10.26%)
   displ. norm   :     0.0258698 α      lambda       -0.1773887E-03
   maximum displ.:     0.0093853 α      in ANC's #4, #8, #11, ...

........................................................................
.............................. CYCLE   46 ..............................
........................................................................

 iter      E             dE          RMSdq      gap      omega  full diag
   1    -42.6067498 -0.426067E+02  0.233E-02    2.24       0.0  T
   2    -42.6067500 -0.149734E-06  0.135E-02    2.23       1.5  T
   3    -42.6067486  0.141741E-05  0.116E-02    2.24       1.7  T
   4    -42.6067511 -0.252682E-05  0.121E-03    2.24      16.6  T
   5    -42.6067511 -0.974349E-08  0.766E-04    2.24      26.1  T
   6    -42.6067511 -0.700899E-08  0.328E-04    2.24      60.9  T
     SCC iter.                  ...        0 min,  0.009 sec
     gradient                   ...        0 min,  0.011 sec
 * total energy  :   -89.0474967 Eh     change       -0.8052668E-04 Eh
   gradient norm :     0.0085629 Eh/α   predicted    -0.5506496E-04 ( -31.62%)
   displ. norm   :     0.0337071 α      lambda       -0.1902148E-03
   maximum displ.:     0.0175295 α      in ANC's #4, #9, #8, ...

........................................................................
.............................. CYCLE   47 ..............................
........................................................................

 iter      E             dE          RMSdq      gap      omega  full diag
   1    -42.6063265 -0.426063E+02  0.214E-02    2.24       0.0  T
   2    -42.6063266 -0.181228E-06  0.129E-02    2.24       1.6  T
   3    -42.6063263  0.386888E-06  0.104E-02    2.24       1.9  T
   4    -42.6063281 -0.182542E-05  0.132E-03    2.24      15.1  T
   5    -42.6063281 -0.108624E-07  0.806E-04    2.24      24.8  T
   6    -42.6063281 -0.919962E-08  0.372E-04    2.24      53.7  T
     SCC iter.                  ...        0 min,  0.009 sec
     gradient                   ...        0 min,  0.011 sec
 * total energy  :   -89.0475455 Eh     change       -0.4873445E-04 Eh
   gradient norm :     0.0088625 Eh/α   predicted    -0.3640976E-04 ( -25.29%)
   displ. norm   :     0.0249420 α      lambda       -0.1223511E-03
   maximum displ.:     0.0121944 α      in ANC's #4, #9, #8, ...

........................................................................
.............................. CYCLE   48 ..............................
........................................................................

 iter      E             dE          RMSdq      gap      omega  full diag
   1    -42.6064077 -0.426064E+02  0.141E-02    2.24       0.0  T
   2    -42.6064078 -0.979762E-07  0.915E-03    2.24       2.2  T
   3    -42.6064075  0.283432E-06  0.647E-03    2.24       3.1  T
   4    -42.6064083 -0.751194E-06  0.106E-03    2.24      18.8  T
   5    -42.6064083 -0.928558E-08  0.498E-04    2.24      40.1  T
   6    -42.6064083 -0.408053E-08  0.269E-04    2.24      74.5  T
     SCC iter.                  ...        0 min,  0.009 sec
     gradient                   ...        0 min,  0.011 sec
 * total energy  :   -89.0475717 Eh     change       -0.2623297E-04 Eh
   gradient norm :     0.0095621 Eh/α   predicted    -0.1694614E-04 ( -35.40%)
   displ. norm   :     0.0440825 α      lambda       -0.2388800E-03
   maximum displ.:     0.0173117 α      in ANC's #10, #4, #9, ...

........................................................................
.............................. CYCLE   49 ..............................
........................................................................

 iter      E             dE          RMSdq      gap      omega  full diag
   1    -42.6067876 -0.426068E+02  0.263E-02    2.24       0.0  T
   2    -42.6067879 -0.287157E-06  0.163E-02    2.24       1.2  T
   3    -42.6067857  0.220633E-05  0.103E-02    2.24       1.9  T
   4    -42.6067883 -0.261543E-05  0.179E-03    2.24      11.2  T
   5    -42.6067883 -0.407189E-07  0.628E-04    2.24      31.8  T
   6    -42.6067883 -0.163907E-08  0.423E-04    2.24      47.3  T
     SCC iter.                  ...        0 min,  0.009 sec
     gradient                   ...        0 min,  0.011 sec
 * total energy  :   -89.0476068 Eh     change       -0.3508656E-04 Eh
   gradient norm :     0.0113164 Eh/α   predicted    -0.2598626E-04 ( -25.94%)
   displ. norm   :     0.0291137 α      lambda       -0.1708665E-03
   maximum displ.:     0.0136477 α      in ANC's #10, #12, #1, ...

........................................................................
.............................. CYCLE   50 ..............................
........................................................................

 iter      E             dE          RMSdq      gap      omega  full diag
   1    -42.6071032 -0.426071E+02  0.176E-02    2.24       0.0  T
   2    -42.6071033 -0.843680E-07  0.104E-02    2.24       1.9  T
   3    -42.6071030  0.301803E-06  0.345E-03    2.24       5.8  T
   4    -42.6071033 -0.341571E-06  0.743E-04    2.24      26.9  T
   5    -42.6071033 -0.114648E-07  0.331E-04    2.24      60.3  T
     SCC iter.                  ...        0 min,  0.007 sec
     gradient                   ...        0 min,  0.011 sec
 * total energy  :   -89.0476312 Eh     change       -0.2436317E-04 Eh
   gradient norm :     0.0115643 Eh/α   predicted    -0.1529419E-04 ( -37.22%)
   displ. norm   :     0.0561639 α      lambda       -0.3701780E-03
   maximum displ.:     0.0271363 α      in ANC's #12, #10, #1, ...

........................................................................
.............................. CYCLE   51 ..............................
........................................................................

 iter      E             dE          RMSdq      gap      omega  full diag
   1    -42.6075044 -0.426075E+02  0.312E-02    2.24       0.0  T
   2    -42.6075046 -0.174381E-06  0.182E-02    2.24       1.1  T
   3    -42.6075010  0.359256E-05  0.146E-02    2.24       1.4  T
   4    -42.6075056 -0.461601E-05  0.132E-03    2.24      15.1  T
   5    -42.6075056 -0.156442E-07  0.785E-04    2.24      25.5  T
   6    -42.6075056 -0.283434E-08  0.408E-04    2.24      49.0  T
     SCC iter.                  ...        0 min,  0.009 sec
     gradient                   ...        0 min,  0.011 sec
 * total energy  :   -89.0476713 Eh     change       -0.4019832E-04 Eh
   gradient norm :     0.0186937 Eh/α   predicted    -0.2830368E-04 ( -29.59%)
   displ. norm   :     0.0623166 α      lambda       -0.4133103E-03
   maximum displ.:     0.0297427 α      in ANC's #12, #1, #10, ...

........................................................................
.............................. CYCLE   52 ..............................
........................................................................

 iter      E             dE          RMSdq      gap      omega  full diag
   1    -42.6076983 -0.426077E+02  0.320E-02    2.24       0.0  T
   2    -42.6076984 -0.932609E-07  0.187E-02    2.24       1.1  T
   3    -42.6076961  0.223903E-05  0.162E-02    2.24       1.2  T
   4    -42.6077006 -0.451306E-05  0.166E-03    2.24      12.0  T
   5    -42.6077007 -0.281407E-07  0.924E-04    2.24      21.6  T
   6    -42.6077007 -0.857802E-08  0.446E-04    2.24      44.8  T
     SCC iter.                  ...        0 min,  0.009 sec
     gradient                   ...        0 min,  0.011 sec
 * total energy  :   -89.0477164 Eh     change       -0.4503569E-04 Eh
   gradient norm :     0.0302429 Eh/α   predicted    -0.2751743E-04 ( -38.90%)
   displ. norm   :     0.1035103 α      lambda       -0.9972128E-03
   maximum displ.:     0.0456721 α      in ANC's #12, #1, #4, ...

........................................................................
.............................. CYCLE   53 ..............................
........................................................................

 iter      E             dE          RMSdq      gap      omega  full diag
   1    -42.6075411 -0.426075E+02  0.500E-02    2.23       0.0  T
   2    -42.6075413 -0.240421E-06  0.297E-02    2.24       1.0  T
[...]
H           -3.06971200614185        1.90703669483280       -0.51068566848738
H           -2.44134404861115        2.38669080654436        1.06815227148326
H           -1.22251825366496       -3.24166545743098        0.75182948924646
H           -1.25056160629593       -3.16673486971454       -1.03344248204733
H           -2.62926186752203       -2.56150238101264       -0.09314055814017
H            1.28653407247622       -3.02903596183915       -0.07529317576073

 Bond Distances (Angstroems)
 ---------------------------
C1-N2=1.3365         C1-O8=1.3525         C1-H16=1.0792        N2-C1=1.3365         N2-C3=1.3648         N2-C6=1.4018         
C3-N2=1.3648         C3-N4=1.3709         C3-H18=1.0662        N4-C3=1.3709         N4-C5=1.3423         N4-H25=1.0080        
C5-N4=1.3423         C5-C6=1.4105         C5-N13=1.3564        C6-N2=1.4018         C6-C5=1.4105         C6-C7=1.3774         
C7-C6=1.3774         C7-N9=1.3655         C7-H17=1.0739        O8-C1=1.3525         O8-H15=0.3787        N9-C7=1.3655         
N9-C10=1.4505        N9-C11=1.3912        C10-N9=1.4505        C10-H19=1.0867       C10-H20=1.0893       C10-H21=1.0917       
C11-N9=1.3912        C11-O12=1.2004       C11-N13=1.4049       O12-C11=1.2004       N13-C5=1.3564        N13-C11=1.4049       
N13-C14=1.4481       C14-N13=1.4481       C14-H22=1.0905       C14-H23=1.0908       C14-H24=1.0889       H15-O8=0.3787        
H16-C1=1.0792        H17-C7=1.0739        H18-C3=1.0662        H19-C10=1.0867       H20-C10=1.0893       H21-C10=1.0917       
H22-C14=1.0905       H23-C14=1.0908       H24-C14=1.0889       H25-N4=1.0080        
 C  H  Rav=1.0841 sigma=0.0085  Rmin=1.0662  Rmax=1.0917     9
 C  C  Rav=1.3939 sigma=0.0165  Rmin=1.3774  Rmax=1.4105     2
 N  H  Rav=1.0080 sigma=0.0000  Rmin=1.0080  Rmax=1.0080     1
 N  C  Rav=1.3848 sigma=0.0369  Rmin=1.3365  Rmax=1.4505    11
 O  H  Rav=0.3787 sigma=0.0000  Rmin=0.3787  Rmax=0.3787     1
 O  C  Rav=1.2765 sigma=0.0760  Rmin=1.2004  Rmax=1.3525     2

 selected bond angles (degree)
 --------------------
O8-C1-N2=120.82                H16-C1-N2=118.32               H16-C1-O8=120.86               C3-N2-C1=126.60                
C6-N2-C1=126.61                C6-N2-C3=106.78                N4-C3-N2=109.55                H18-C3-N2=125.41               
H18-C3-N4=125.04               C5-N4-C3=108.72                H25-N4-C3=124.01               H25-N4-C5=127.27               
C6-C5-N4=108.10                N13-C5-N4=130.03               N13-C5-C6=121.87               C5-C6-N2=106.84                
C7-C6-N2=133.81                C7-C6-C5=119.35                N9-C7-C6=117.59                H17-C7-C6=124.52               
H17-C7-N9=117.89               H15-O8-C1=128.28               C10-N9-C7=119.31               C11-N9-C7=124.87               
C11-N9-C10=115.80              H19-C10-N9=109.90              H20-C10-N9=108.95              H20-C10-H19=109.92             
H21-C10-N9=110.35              H21-C10-H19=109.58             H21-C10-H20=108.11             

 selected dihedral angles (degree)
 ---------------------------------
C3-N2-C1-O8=179.66            C3-N2-C1-H16=  0.31           C6-N2-C1-O8=359.39            C6-N2-C1-H16=180.04           
N4-C3-N2-C1=179.58            N4-C3-N2-C6=359.81            H18-C3-N2-C1=  0.31           H18-C3-N2-C6=180.53           
C5-N4-C3-N2=  0.17            C5-N4-C3-H18=179.45           H25-N4-C3-N2=179.95           H25-N4-C3-H18=359.23          
C6-C5-N4-C3=359.92            C6-C5-N4-H25=180.15           N13-C5-N4-C3=179.92           N13-C5-N4-H25=  0.16          
C5-C6-N2-C1=180.36            C5-C6-N2-C3=  0.14            C7-C6-N2-C1=  0.50            C7-C6-N2-C3=180.28            
N2-C6-C5-N4=359.97            N2-C6-C5-N13=179.96           C7-C6-C5-N4=179.85            C7-C6-C5-N13=359.85           
N9-C7-C6-N2=179.67            N9-C7-C6-C5=359.82            H17-C7-C6-N2=359.72           H17-C7-C6-C5=179.88           
H15-O8-C1-N2=174.70           H15-O8-C1-H16=354.04          C10-N9-C7-C6=178.68           C10-N9-C7-H17=358.63          
C11-N9-C7-C6=  0.53           C11-N9-C7-H17=180.48          H19-C10-N9-C7= 29.61          H19-C10-N9-C11=207.92         
H20-C10-N9-C7=150.09          H20-C10-N9-C11=328.41         H21-C10-N9-C7=268.64          H21-C10-N9-C11= 86.96         
           -------------------------------------------------
          |                Final Singlepoint                |
           -------------------------------------------------

          ...................................................
          :                      SETUP                      :
          :.................................................:
          :  # basis functions                  67          :
          :  # atomic orbitals                  67          :
          :  # shells                           39          :
          :  # electrons                        74          :
          :  max. iterations                   250          :
          :  Hamiltonian                  GFN2-xTB          :
          :  restarted?                      false          :
          :  GBSA solvation                  false          :
          :  PC potential                    false          :
          :  electronic temp.         5000.0000000     K    :
          :  accuracy                    1.0000000          :
          :  -> integral cutoff          0.2500000E+02      :
          :  -> integral neglect         0.1000000E-07      :
          :  -> SCF convergence          0.1000000E-05 Eh   :
          :  -> wf. convergence          0.1000000E-03 e    :
          :  Broyden damping             0.4000000          :
          ...................................................

 iter      E             dE          RMSdq      gap      omega  full diag
   1    -42.7508331 -0.427508E+02  0.145E-04    1.16       0.0  T
   2    -42.7508331  0.459934E-10  0.116E-04    1.16     172.1  T
   3    -42.7508331 -0.144794E-09  0.745E-05    1.16     268.6  T

   *** convergence criteria satisfied after 3 iterations ***

         #    Occupation            Energy/Eh            Energy/eV
      -------------------------------------------------------------
         1        2.0000           -0.9024631             -24.5573
       ...           ...                  ...                  ...
        31        1.9999           -0.6137415             -16.7008
        32        1.9999           -0.6111098             -16.6291
        33        1.9999           -0.6057506             -16.4833
        34        1.9995           -0.5846041             -15.9079
        35        1.9980           -0.5627406             -15.3130
        36        1.9945           -0.5466034             -14.8738
        37        1.5815           -0.4742490             -12.9050 (HOMO)
        38        0.4061           -0.4315476             -11.7430 (LUMO)
        39        0.0176           -0.3783522             -10.2955
        40        0.0032           -0.3515056              -9.5650
        41        0.0000           -0.2834879              -7.7141
        42        0.0000           -0.1947129              -5.2984
       ...           ...                  ...                  ...
        67                          6.1002197             165.9954
      -------------------------------------------------------------
                  HL-Gap            0.0427015 Eh            1.1620 eV
             Fermi-level           -0.4531998 Eh          -12.3322 eV

 SCC (total)                   0 d,  0 h,  0 min,  0.021 sec
 SCC setup                      ...        0 min,  0.000 sec (  0.846%)
 Dispersion                     ...        0 min,  0.000 sec (  0.864%)
 classical contributions        ...        0 min,  0.000 sec (  0.323%)
 integral evaluation            ...        0 min,  0.004 sec ( 21.038%)
 iterations                     ...        0 min,  0.005 sec ( 21.766%)
 molecular gradient             ...        0 min,  0.011 sec ( 54.556%)
 printout                       ...        0 min,  0.000 sec (  0.548%)

         :::::::::::::::::::::::::::::::::::::::::::::::::::::
         ::                     SUMMARY                     ::
         :::::::::::::::::::::::::::::::::::::::::::::::::::::
         :: total energy             -89.173395736487 Eh    ::
         :: gradient norm              0.002974484885 Eh/a0 ::
         :: HOMO-LUMO gap              1.161965988010 eV    ::
         ::.................................................::
         :: SCC energy               -42.750833133376 Eh    ::
         :: -> isotropic ES            0.115262691499 Eh    ::
         :: -> anisotropic ES         -0.004179194163 Eh    ::
         :: -> anisotropic XC          0.010496991916 Eh    ::
         :: -> dispersion             -0.022595701423 Eh    ::
         :: repulsion energy           2.878137297001 Eh    ::
         :: add. restraining         -49.300800514616 Eh    ::
         :: total charge               1.000000000000 e     ::
         :::::::::::::::::::::::::::::::::::::::::::::::::::::

           -------------------------------------------------
          |                Property Printout                |
           -------------------------------------------------

    * Orbital Energies and Occupations

         #    Occupation            Energy/Eh            Energy/eV
      -------------------------------------------------------------
         1        2.0000           -0.9024631             -24.5573
       ...           ...                  ...                  ...
        25        2.0000           -0.6637777             -18.0623
        26        2.0000           -0.6578679             -17.9015
        27        2.0000           -0.6412046             -17.4481
        28        2.0000           -0.6391878             -17.3932
        29        2.0000           -0.6360848             -17.3087
        30        1.9999           -0.6175775             -16.8051
        31        1.9999           -0.6137415             -16.7008
        32        1.9999           -0.6111098             -16.6291
        33        1.9999           -0.6057506             -16.4833
        34        1.9995           -0.5846041             -15.9079
        35        1.9980           -0.5627406             -15.3130
        36        1.9945           -0.5466034             -14.8738
        37        1.5815           -0.4742490             -12.9050 (HOMO)
        38        0.4061           -0.4315476             -11.7430 (LUMO)
        39        0.0176           -0.3783522             -10.2955
        40        0.0032           -0.3515056              -9.5650
        41        0.0000           -0.2834879              -7.7141
        42        0.0000           -0.1947129              -5.2984
        43                         -0.1699262              -4.6239
        44                         -0.1265556              -3.4438
        45                         -0.1127146              -3.0671
        46                         -0.0770578              -2.0969
        47                         -0.0583759              -1.5885
        48                         -0.0255325              -0.6948
       ...                                ...                  ...
        67                          6.1002197             165.9954
      -------------------------------------------------------------
                  HL-Gap            0.0427015 Eh            1.1620 eV
             Fermi-level           -0.4531998 Eh          -12.3322 eV

     #   Z          covCN         q      C6AA      α(0)
     1   6 C        2.787     0.090    25.992     8.351
     2   7 N        2.798     0.069    20.048     6.650
     3   6 C        3.014    -0.013    28.328     8.731
     4   7 N        2.765    -0.058    22.353     7.022
     5   6 C        3.020     0.101    25.747     8.323
     6   6 C        3.071     0.014    27.628     8.618
     7   6 C        2.852    -0.004    28.126     8.692
     8   8 O        1.664    -0.369    20.249     6.075
     9   7 N        2.745    -0.023    21.687     6.916
    10   6 C        3.707    -0.073    22.041     6.711
    11   6 C        2.725     0.312    21.697     7.625
    12   8 O        0.859    -0.375    21.179     6.170
    13   7 N        2.737    -0.056    22.324     7.017
    14   6 C        3.698    -0.071    22.028     6.713
    15   1 H        0.885     0.368     0.541     1.151
    16   1 H        0.926     0.082     1.954     2.186
    17   1 H        0.926     0.108     1.718     2.049
    18   1 H        0.927     0.101     1.779     2.086
    19   1 H        0.925     0.088     1.895     2.152
    20   1 H        0.925     0.114     1.665     2.018
    21   1 H        0.924     0.094     1.839     2.120
    22   1 H        0.924     0.079     1.987     2.205
    23   1 H        0.924     0.080     1.974     2.197
    24   1 H        0.925     0.123     1.590     1.972
    25   1 H        0.860     0.219     1.016     1.579

 Mol. C6AA /au·bohr⁶  :       6641.662186
 Mol. C8AA /au·bohr⁸  :     153124.474586
 Mol. α(0) /au        :        125.331386


Wiberg/Mayer (AO) data.
largest (>0.10) Wiberg bond orders for each atom

 ---------------------------------------------------------------------------
     #   Z sym  total        # sym  WBO       # sym  WBO       # sym  WBO
 ---------------------------------------------------------------------------
     1   6 C    3.564 --     2 N    1.275     8 O    1.120    16 H    0.950
                             3 C    0.120
     2   7 N    3.694 --     1 C    1.275     3 C    1.197     6 C    1.059
     3   6 C    3.632 --     2 N    1.197     4 N    1.187    18 H    0.961
                             1 C    0.120
     4   7 N    3.548 --     5 C    1.253     3 C    1.187    25 H    0.924
     5   6 C    3.845 --     4 N    1.253     6 C    1.223    13 N    1.175
     6   6 C    3.909 --     7 C    1.394     5 C    1.223     2 N    1.059
     7   6 C    3.699 --     6 C    1.394     9 N    1.209    17 H    0.953
     8   8 O    2.111 --     1 C    1.120    15 H    0.858
     9   7 N    3.530 --     7 C    1.209    11 C    1.098    10 C    0.981
                            12 O    0.127
    10   6 C    3.928 --     9 N    0.981    19 H    0.975    20 H    0.966
                            21 H    0.962
    11   6 C    3.946 --    12 O    1.697     9 N    1.098    13 N    1.058
    12   8 O    2.050 --    11 C    1.697    13 N    0.131     9 N    0.127
    13   7 N    3.488 --     5 C    1.175    11 C    1.058    14 C    0.979
                            12 O    0.131
    14   6 C    3.931 --    13 N    0.979    22 H    0.971    23 H    0.970
                            24 H    0.965
    15   1 H    0.865 --     8 O    0.858
    16   1 H    0.992 --     1 C    0.950
    17   1 H    0.987 --     7 C    0.953
    18   1 H    0.989 --     3 C    0.961
    19   1 H    0.990 --    10 C    0.975
    20   1 H    0.984 --    10 C    0.966
    21   1 H    0.982 --    10 C    0.962
    22   1 H    0.989 --    14 C    0.971
    23   1 H    0.988 --    14 C    0.970
    24   1 H    0.984 --    14 C    0.965
    25   1 H    0.951 --     4 N    0.924
 ---------------------------------------------------------------------------

Topologies differ in total number of bonds
Writing topology from bond orders to xtbtopo.mol

molecular dipole:
                 x           y           z       tot (Debye)
 q only:        2.191      -0.556       0.043
   full:        2.723      -0.560       0.082       7.069
molecular quadrupole (traceless):
                xx          xy          yy          xz          yz          zz
 q only:        4.533      -3.577      14.701       0.561       1.139     -19.234
  q+dip:        3.150      -2.382      16.452       0.621       1.386     -19.602
   full:        2.096      -2.253      16.303       0.577       1.351     -18.399

           -------------------------------------------------
          |                Geometry Summary                 |
           -------------------------------------------------

      molecular mass/u    :      195.1988581
   center of mass at/Å    :        0.1894659      -0.0662197      -0.0012860
  moments of inertia/u·Å² :        0.4486221E+03   0.8408494E+03   0.1283081E+04
rotational constants/cm⁻¹ :        0.3757646E-01   0.2004834E-01   0.1313840E-01

 * 26 selected distances

     #   Z          #   Z                                           value/Å
     1   6 C        2   7 N                                       1.3364707
     2   7 N        3   6 C                                       1.3647835
     3   6 C        4   7 N                                       1.3708546
     4   7 N        5   6 C                                       1.3422922
     2   7 N        6   6 C                                       1.4018011
     5   6 C        6   6 C                                       1.4104560
     6   6 C        7   6 C                                       1.3773645
     1   6 C        8   8 O                                       1.3524880
     7   6 C        9   7 N                                       1.3654737
     9   7 N       10   6 C                                       1.4505345 (max)
     9   7 N       11   6 C                                       1.3912406
    11   6 C       12   8 O                                       1.2004172
     5   6 C       13   7 N                                       1.3563651
    11   6 C       13   7 N                                       1.4048629
    13   7 N       14   6 C                                       1.4481107
     8   8 O       15   1 H                                       0.3786877 (min)
     1   6 C       16   1 H                                       1.0792149
     7   6 C       17   1 H                                       1.0739360
     3   6 C       18   1 H                                       1.0661810
    10   6 C       19   1 H                                       1.0867301
    10   6 C       20   1 H                                       1.0892575
    10   6 C       21   1 H                                       1.0916931
    14   6 C       22   1 H                                       1.0905090
    14   6 C       23   1 H                                       1.0908063
    14   6 C       24   1 H                                       1.0889278
     4   7 N       25   1 H                                       1.0080224

 * 6 distinct bonds (by element types)

   Z      Z             #   av. dist./Å        max./Å        min./Å
   1 H    6 C           9     1.0841395     1.0916931     1.0661810
   6 C    6 C           2     1.3939102     1.4104560     1.3773645
   1 H    7 N           1     1.0080224     1.0080224     1.0080224
   6 C    7 N          11     1.3847990     1.4505345     1.3364707
   1 H    8 O           1     0.3786877     0.3786877     0.3786877
   6 C    8 O           2     1.2764526     1.3524880     1.2004172


optimized geometry written to: xtbopt.xyz


           -------------------------------------------------
          | TOTAL ENERGY              -89.173395736487 Eh   |
          | GRADIENT NORM               0.002974484885 Eh/α |
          | HOMO-LUMO GAP               1.161965988010 eV   |
           -------------------------------------------------

------------------------------------------------------------------------
 * finished run on 2024/06/05 at 19:58:12.186     
------------------------------------------------------------------------
 total:
 * wall-time:     0 d,  0 h,  0 min,  3.635 sec
 *  cpu-time:     0 d,  0 h,  0 min,  3.610 sec
 * ratio c/w:     0.993 speedup
 SCF:
 * wall-time:     0 d,  0 h,  0 min,  0.036 sec
 *  cpu-time:     0 d,  0 h,  0 min,  0.036 sec
 * ratio c/w:     1.000 speedup
 ANC optimizer:
 * wall-time:     0 d,  0 h,  0 min,  3.567 sec
 *  cpu-time:     0 d,  0 h,  0 min,  3.563 sec
 * ratio c/w:     0.999 speedup

