25
 energy: -43.832329522023 gnorm: 0.110033070286 xtb: 6.6.1 (8d0f1dd)
C            3.24131398633149        1.17388806283510        0.08780161373813
N            2.30593353455292        0.08654706740826        0.04095096041778
C            2.59656403760526       -1.21651438404017        0.03177479912640
N            1.45135814873553       -1.93455810122423        0.00012478379631
C            0.40309807834643       -1.06131439400450       -0.01399621248366
C            0.93894415382532        0.22175432714317        0.01527726098235
C            0.10314331864661        1.40098923295830       -0.00512993263516
O            0.50164440901472        2.54983136189358       -0.00321569478433
N           -1.24876651053176        1.05506375682345       -0.03483158460769
C           -2.21446264288252        2.15005673573459       -0.05641586805630
C           -1.80763727558236       -0.19917332237444       -0.05199587927915
O           -3.00803048804980       -0.37923587300296       -0.07856120127994
N           -0.94511787690412       -1.31212190243951       -0.03577802755377
C           -1.51290728188773       -2.63824514801338       -0.05325647548018
H            3.72578176594737        1.21997947365485        1.06826466763675
H            4.01004728090231        1.05330317334834       -0.67524127178142
H            2.70003246308112        2.10679206727369       -0.07706513818539
H            3.58255732476434       -1.63545371143784        0.04740161881272
H           -1.66346525386476        3.08712707052842       -0.03136386481079
H           -2.81841065651743        2.09018223857334       -0.96055309608299
H           -2.87266395629778        2.07511949537826        0.80660189019675
H           -1.12187283837067       -3.22913206681781        0.77298816013212
H           -1.25679903611534       -3.15100230135395       -0.95302497667651
H           -2.63493841354737       -2.62761218379788       -0.01349173955428
H            1.40078707786244       -2.93801607431593       -0.01198905396088
25
 energy: -43.837092211306 gnorm: 0.039267045532 xtb: 6.6.1 (8d0f1dd)
C            3.24431053285157        1.18114078901057        0.09046836209535
N            2.30938337345124        0.09948916712537        0.03907856180762
C            2.60484331888816       -1.23277187158056        0.03183219828703
N            1.43377994531063       -1.93947403196552       -0.00011252866894
C            0.39933029963080       -1.06151157642724       -0.01201054985342
C            0.92821926295018        0.22384131438590        0.01368836198714
C            0.10549049986048        1.39132082301640       -0.00654103388007
O            0.49831258340526        2.56077487808184       -0.00449173191790
N           -1.26082371991675        1.04610229343403       -0.03482261851909
C           -2.21776159725090        2.14404234788650       -0.05630461197785
C           -1.81723455568351       -0.20170469030005       -0.05118219912749
O           -3.01863291736455       -0.38230480732755       -0.07909795950915
N           -0.94634926238230       -1.30906833835516       -0.03549804326379
C           -1.49486385653766       -2.64291602956309       -0.05793469282013
H            3.73132121536998        1.22473875523731        1.07012952995085
H            4.01031870569589        1.05808106224942       -0.67733848909911
H            2.69631712876131        2.10786360691566       -0.07436478311642
H            3.58448357219864       -1.65543847188867        0.04730014203010
H           -1.65214674248373        3.07313429801736       -0.03161556022505
H           -2.82135826545680        2.09039789176433       -0.96175723609567
H           -2.87622222257106        2.07562475779164        0.80854067055814
H           -1.12655313109153       -3.22481830859221        0.78976175205888
H           -1.24061012731269       -3.15715447577063       -0.98069404077400
H           -2.59205754719905       -2.57867866324439        0.00143996386109
H            1.37463685594062       -2.94245611917051       -0.01319772616128
25
 energy: -43.838032683620 gnorm: 0.017086026361 xtb: 6.6.1 (8d0f1dd)
C            3.24492736668960        1.18439712514386        0.08949947456100
N            2.30913683202921        0.11055084263570        0.03603293140558
C            2.61386397699479       -1.23172607515414        0.03249103032888
N            1.43431452818726       -1.93809322332199        0.00094676945575
C            0.39897114377147       -1.06648812102900       -0.01052558231561
C            0.92168774219552        0.22306579110120        0.01283929762659
C            0.11511324640588        1.38472567511210       -0.00517621007960
O            0.50493738330477        2.56146400344090       -0.00206222621521
N           -1.26137879445578        1.04737675201308       -0.03461320954721
C           -2.21381833343277        2.14863146007908       -0.05648030684397
C           -1.81574605333416       -0.19728219810536       -0.05089475248123
O           -3.01688240944462       -0.37435750440592       -0.07751574225373
N           -0.95047087656559       -1.30996357469900       -0.03227685525023
C           -1.51304756434118       -2.64629020065219       -0.05328867263456
H            3.72803180329882        1.22287341474964        1.07058156272609
H            4.01270216207088        1.05325059498135       -0.67619222728156
H            2.69994667772736        2.11045936063466       -0.07953358183771
H            3.59314733149185       -1.64111430661181        0.04773910512498
H           -1.65804734542001        3.08448836799875       -0.03115694549064
H           -2.81759943857355        2.09328749979169       -0.96156942868561
H           -2.87335817126170        2.07775713813401        0.80733846540534
H           -1.13205120988941       -3.23183909743494        0.78466507323121
H           -1.25137442496150       -3.15891707840868       -0.97828341187325
H           -2.60628228763505       -2.61689032330108       -0.00618174204177
H            1.38941006421213       -2.94111172196114       -0.01110707740668
25
 energy: -43.838245723141 gnorm: 0.009114806138 xtb: 6.6.1 (8d0f1dd)
C            3.24521659981273        1.17891255207582        0.09192446927567
N            2.30838244257101        0.10765225305634        0.03693633488428
C            2.61138896388985       -1.23441209259611        0.03212021497143
N            1.43294584454600       -1.93748991382349       -0.00157535256519
C            0.40136842361192       -1.06580131190859       -0.01332475450611
C            0.92193739355464        0.22407960680289        0.01304353748726
C            0.11607644367383        1.38468724311034       -0.00648832044846
O            0.49825776858743        2.56080835948723       -0.00423763546681
N           -1.26283239795241        1.04827548102607       -0.03659517755946
C           -2.21754082975399        2.14571246906650       -0.05694067335158
C           -1.81257702171717       -0.19712373851591       -0.05365923413649
O           -3.01232194355067       -0.38090060112694       -0.08033179131282
N           -0.94603156155920       -1.30634087947873       -0.03515502691864
C           -1.51222473533057       -2.63914387104057       -0.04996249509512
H            3.73168557705957        1.21717183257126        1.07098316645299
H            4.01044531940156        1.05408840690072       -0.67690470111851
H            2.69962624646010        2.10573942693871       -0.07116892567178
H            3.58846977539616       -1.64430693612944        0.04663525084272
H           -1.66084630776625        3.08052756681605       -0.03207622233273
H           -2.82278174723603        2.08878700775426       -0.96114657739670
H           -2.87583984000477        2.07331332989437        0.80787861358803
H           -1.12165619276609       -3.22192193827770        0.78449939302588
H           -1.24843761794045       -3.15368074658431       -0.96987262222016
H           -2.60859183985338       -2.59957150016403       -0.00427759036872
H            1.39201458593037       -2.94080740512401       -0.01502814243214
25
 energy: -43.838244144046 gnorm: 0.006596825503 xtb: 6.6.1 (8d0f1dd)
C            3.24199640933952        1.17959458235877        0.08786282008752
N            2.30679654527176        0.10546816841338        0.03749242101874
C            2.60800275027197       -1.23554271557428        0.03574491000692
N            1.43054412839209       -1.93739621718121        0.00309910878537
C            0.40029659527048       -1.06665320923042       -0.01048898597009
C            0.92128052066689        0.22348851016725        0.01554221903722
C            0.11659814462277        1.38437903878936       -0.00391350433610
O            0.49531452912700        2.55901333763607       -0.00284788029486
N           -1.26370543372655        1.04802102652029       -0.03301095013282
C           -2.21421722681560        2.14778800590052       -0.05560217581124
C           -1.81340734273791       -0.19818030395143       -0.04958418087133
O           -3.01337685731154       -0.38289361571752       -0.07732892382873
N           -0.94615614462518       -1.30760298544366       -0.03452573464930
C           -1.50847431935255       -2.64253472335954       -0.05548824545414
H            3.72696258816816        1.22819024389667        1.06727647425260
H            4.00993912630834        1.05541498137410       -0.67818223564490
H            2.69642350773718        2.10630209380437       -0.08205585048991
H            3.58518689485780       -1.64620364873217        0.04903032615209
H           -1.65049872896195        3.07829421167861       -0.03055718723381
H           -2.81740000915021        2.09394646079504       -0.96138942069298
H           -2.87400949208790        2.08014326373874        0.80845650514578
H           -1.12375776736559       -3.22930599317868        0.77894301301357
H           -1.24361483105305       -3.15490881635030       -0.97551815154091
H           -2.60546237532220       -2.59943762295098       -0.00908498043202
H            1.39087213754048       -2.94112947267225       -0.00859365248983
25
 energy: -43.838323697532 gnorm: 0.003723895584 xtb: 6.6.1 (8d0f1dd)
C            3.24438281771467        1.17993136714372        0.09134670522907
N            2.30826070280844        0.10624816790552        0.03614801470921
C            2.60900432258252       -1.23473814846950        0.03188472111406
N            1.43077573368593       -1.93633534664763       -0.00130889191334
C            0.39997363517380       -1.06611490805066       -0.01267128168990
C            0.92214726396211        0.22441215616545        0.01312408932648
C            0.11833415196128        1.38579363172064       -0.00605955818359
O            0.49753097058592        2.56039642819923       -0.00386773008859
N           -1.26335088138630        1.04903532794400       -0.03519818687452
C           -2.21567831496827        2.14732590218945       -0.05693019559770
C           -1.81408601850522       -0.19698047435548       -0.05118815826521
O           -3.01472389800899       -0.37965410335583       -0.07800621699618
N           -0.94729279376083       -1.30766207544232       -0.03497232056436
C           -1.50887642595856       -2.64415376093372       -0.05287880986313
H            3.72897981695116        1.22255377343478        1.07156617954487
H            4.01312064809428        1.05633486111352       -0.67423049049452
H            2.70124473481148        2.10911077838609       -0.07520761704042
H            3.58741363769475       -1.64491473995102        0.04475726229212
H           -1.65677185197560        3.08067257343824       -0.03170458717677
H           -2.81957203277442        2.09207364904726       -0.96213967939281
H           -2.87495789397700        2.07676367564794        0.80722773222756
H           -1.12823116536959       -3.22880302597669        0.78540189447513
H           -1.24762201620999       -3.15908703837071       -0.97332997777723
H           -2.60473872108617       -2.60372346202444       -0.00238926174982
H            1.39086692701880       -2.94023060802710       -0.01409789762359
25
 energy: -43.838319250737 gnorm: 0.003478079306 xtb: 6.6.1 (8d0f1dd)
C            3.24462320994391        1.17939123108563        0.08933512622564
N            2.30913946477275        0.10630523860446        0.03706750336513
C            2.61075333386475       -1.23501851440166        0.03494043718041
N            1.43196175696090       -1.93671421399512        0.00152593669495
C            0.40072385714469       -1.06649313736484       -0.01125572086892
C            0.92249578371123        0.22428828926826        0.01422897723219
C            0.11955262086929        1.38564227861134       -0.00559631844145
O            0.49873795417786        2.56094161397180       -0.00281927561049
N           -1.26315455139358        1.04887585956912       -0.03560918077981
C           -2.21679126112960        2.14601855111340       -0.05604279588544
C           -1.81365367002301       -0.19649105960729       -0.05267552100616
O           -3.01413548939602       -0.37915596457081       -0.08033235996175
N           -0.94704857290222       -1.30680943429256       -0.03481371138078
C           -1.51061916172212       -2.64165819417966       -0.05375712342013
H            3.73219919676995        1.22022958316357        1.06821271985615
H            4.00955649522754        1.05365351292186       -0.67990577942656
H            2.69881463989682        2.10703594940129       -0.07562553912711
H            3.58974672697743       -1.64390301425143        0.04974438461132
H           -1.66066095971353        3.08109405370457       -0.03109652339801
H           -2.82196704506967        2.08959559469008       -0.96035116371107
H           -2.87520396594701        2.07369416087852        0.80868732674117
H           -1.12642638494006       -3.22530326766164        0.78354267986252
H           -1.24837710217234       -3.15383450351858       -0.97543341999926
H           -2.60658778484180       -2.60240670356035       -0.00628813789124
H            1.39245425799805       -2.94072330884921       -0.01040678323446
25
 energy: -43.838342188765 gnorm: 0.001954446825 xtb: 6.6.1 (8d0f1dd)
C            3.24329057245241        1.17967349950675        0.09076217902699
N            2.30833953711865        0.10605576629872        0.03653693702289
C            2.60983249132345       -1.23517815966085        0.03300102121999
N            1.43143382041201       -1.93688101522163       -0.00067880902122
C            0.40033087365555       -1.06688813409363       -0.01204290875484
C            0.92174474244921        0.22400187913056        0.01369162762855
C            0.11894533339542        1.38505958966978       -0.00555867164816
O            0.49699620546851        2.56043509304835       -0.00354012322607
N           -1.26386350702927        1.04808708670525       -0.03506017135520
C           -2.21524654354483        2.14691775526602       -0.05676919469244
C           -1.81400250905245       -0.19738535217825       -0.05133115832661
O           -3.01426741840287       -0.38087987243088       -0.07802338393838
N           -0.94712352357496       -1.30736755191979       -0.03432398878402
C           -1.51013552475012       -2.64229206193922       -0.05239242469649
H            3.72808581059913        1.22202641463062        1.07085736844729
H            4.01064359640066        1.05497162704666       -0.67611586591064
H            2.69747742490325        2.10687306046793       -0.07594148923264
H            3.58854339441445       -1.64410720554964        0.04646045744701
H           -1.65546119339533        3.07992056714036       -0.03198707862869
H           -2.81946431513982        2.09195460320747       -0.96182669090594
H           -2.87454638323447        2.07758711465235        0.80755707609066
H           -1.12380713921198       -3.22585880482274        0.78382722739290
H           -1.24733082316637       -3.15482373596839       -0.97330075927210
H           -2.60650372715473       -2.60273373912117       -0.00502785262208
H            1.39222215412871       -2.94091382313387       -0.01349758563391
25
 energy: -43.838323060934 gnorm: 0.003380272001 xtb: 6.6.1 (8d0f1dd)
C            3.24556888492861        1.17965016880010        0.08979693144995
N            2.30868407387833        0.10618497116551        0.03632451962994
C            2.60839457903466       -1.23484152089382        0.03347334782231
N            1.43043511847293       -1.93594851519440        0.00086448058676
C            0.39996993103342       -1.06593966403044       -0.01196533299097
C            0.92205966356530        0.22505040376360        0.01372823610256
C            0.11897001958128        1.38623289647744       -0.00557424338119
O            0.49629592659997        2.56107947145895       -0.00352335174241
N           -1.26404061852561        1.04874315368633       -0.03505247976967
C           -2.21642405114495        2.14671911480506       -0.05592773694166
C           -1.81379879520976       -0.19716445694382       -0.05195703566652
O           -3.01407533591914       -0.38078053370781       -0.07942284169847
N           -0.94701417771572       -1.30753225116116       -0.03526390383618
C           -1.50923679790853       -2.64367283800750       -0.05389212979575
H            3.73112374240955        1.22369781146897        1.06939455366997
H            4.01407130022275        1.05514783706435       -0.67586830607640
H            2.70357658721265        2.10904888260887       -0.07754048409579
H            3.58649494659680       -1.64522769509873        0.04644405504853
H           -1.65798857992821        3.08042178703104       -0.02984152806443
H           -2.82043634099231        2.09204044812985       -0.96116938262003
H           -2.87587775183609        2.07536580708730        0.80811864070159
H           -1.12880575169881       -3.22924818014330        0.78358519964859
H           -1.24679096691094       -3.15895572123991       -0.97339201406147
H           -2.60554610124126       -2.60186304927284       -0.00542311058660
H            1.39052384455929       -2.93995372712290       -0.01064034570581
25
 energy: -43.838345963801 gnorm: 0.001422890978 xtb: 6.6.1 (8d0f1dd)
C            3.24431528860230        1.17977138571777        0.09015840122764
N            2.30869826436215        0.10588231750723        0.03667617373398
C            2.60913911612031       -1.23509298282847        0.03361084849177
N            1.43107109154994       -1.93644218687844        0.00030200016474
C            0.40019926765255       -1.06645607575865       -0.01189020320513
C            0.92209688103045        0.22448334135776        0.01398244197656
C            0.11960450312364        1.38584371430239       -0.00550681640888
O            0.49755901764417        2.56071302219499       -0.00341517679004
N           -1.26361865233324        1.04873246887472       -0.03502791817308
C           -2.21591263318547        2.14676830805042       -0.05647771734769
C           -1.81369783803598       -0.19687091401892       -0.05149422104152
O           -3.01406726151614       -0.38001994711076       -0.07882878888934
N           -0.94705181730512       -1.30739287233404       -0.03487820435655
C           -1.50953790545135       -2.64310672397444       -0.05363590625144
H            3.73047773941598        1.22254955428036        1.06954959781220
H            4.01141015477274        1.05576680226176       -0.67703417155176
H            2.70002587855470        2.10810317111385       -0.07579610784069
H            3.58764832276229       -1.64483260186336        0.04713854127672
H           -1.65776547553562        3.08068906008290       -0.03153773909919
H           -2.82034499695868        2.09113914670506       -0.96137663021403
H           -2.87496591574863        2.07600117878535        0.80791867724484
H           -1.12724781101275       -3.22807914089228        0.78345281624215
H           -1.24756778877469       -3.15699906475118       -0.97417862582941
H           -2.60569655519626       -2.60242886855216       -0.00456163433109
H            1.39136247452691       -2.94046749154112       -0.01187389921391
25
 energy: -43.827494264521 gnorm: 0.098052383879 xtb: 6.6.1 (8d0f1dd)
C            3.24538138489547        1.18144408980109        0.09133645721749
N            2.31298416156927        0.09785676076773        0.04220507473461
C            2.61276300128014       -1.21783077362625        0.03384408120989
N            1.46408279138034       -1.93071538251268        0.00125759690123
C            0.41541686003156       -1.06735634753927       -0.01759110157024
C            0.94268491682534        0.22846516231888        0.01385990515662
C            0.11162852120707        1.39668555204453       -0.00614614614226
O            0.50658347683769        2.55786671882235       -0.00291633928346
N           -1.24651934703946        1.04821617469080       -0.03960166229443
C           -2.20977527830450        2.14545448701778       -0.06303797304173
C           -1.79790486158499       -0.19918927166001       -0.05732803055980
O           -3.00237440894742       -0.37982894470184       -0.09036582480859
N           -0.95138608759659       -1.32712867052166       -0.02501723633819
C           -1.55587437896571       -2.63156086407854       -0.04460954035805
H            3.73926112616449        1.22478743023236        1.07128824299039
H            4.01130122843987        1.07231976071588       -0.67692224330869
H            2.70100919796392        2.11565131835132       -0.06270552187194
H            3.59798365645686       -1.63342305825945        0.05280181517677
H           -1.65590249963460        3.08138312178549       -0.03747810314390
H           -2.81252066374003        2.08620432319193       -0.96797615576411
H           -2.86904799138156        2.07316464384431        0.79856917002563
H           -1.07182105221645       -3.26270463590695        0.71439335863029
H           -1.36789952368582       -3.12772425312733       -0.95547073204434
H           -2.70909111877089       -2.69215582005904        0.05826214067066
H            1.42046543438971       -2.93351495510755       -0.01027088953812
25
 energy: -43.832837347639 gnorm: 0.040150234431 xtb: 6.6.1 (8d0f1dd)
C            3.24524145736109        1.18563116668680        0.09394594352585
N            2.31194965165051        0.10418035090879        0.04050049818366
C            2.61305848911514       -1.23127465016010        0.03396803066179
N            1.44314298526808       -1.93675931746231        0.00157208526024
C            0.40387002677396       -1.06902909323507       -0.01280601008310
C            0.92824541196360        0.22433611307023        0.01323349407472
C            0.11101183945289        1.38658503117520       -0.00707345461937
O            0.50077260500221        2.55962917796081       -0.00398684174141
N           -1.25914052945414        1.04220144251697       -0.03861393922225
C           -2.21361214654476        2.14156969065785       -0.06316930633766
C           -1.81119495193219       -0.20237672096423       -0.05470284259631
O           -3.01386440371811       -0.38183773098733       -0.09185861953930
N           -0.95173765484100       -1.32046035204643       -0.02506462813109
C           -1.52016497054200       -2.64469848035776       -0.05558936828147
H            3.74077163971990        1.22619949001843        1.07112850945776
H            4.00875841879265        1.07377458152763       -0.67859141925279
H            2.69595056953606        2.11418692019244       -0.06018236794649
H            3.59416890574851       -1.64905546466124        0.05218578728518
H           -1.64555619643678        3.06932716417806       -0.03821708857079
H           -2.81563191234728        2.08735629831855       -0.96953498898299
H           -2.87315524209062        2.07458788883393        0.80063771544972
H           -1.08611252956880       -3.26143105622810        0.74085720066153
H           -1.34346669270414       -3.13746424822432       -1.00413475368549
H           -2.62548556341110       -2.60850051909301        0.08768501638572
H            1.39360933878005       -2.94031111614197       -0.01180830930994
25
 energy: -43.834528287964 gnorm: 0.015923794429 xtb: 6.6.1 (8d0f1dd)
C            3.24856556229814        1.19033391992682        0.09367138483913
N            2.31436088419692        0.11182018160413        0.03749131440434
C            2.62045862675682       -1.22857642260583        0.03381106624002
N            1.44427630412982       -1.93513883345314        0.00215676445476
C            0.40106054265115       -1.07251219727262       -0.01085917446557
C            0.92528141328242        0.22230933976601        0.01130371698823
C            0.11981971327519        1.38390589512490       -0.00762442734344
O            0.50670132615098        2.56042208211963       -0.00340729340099
N           -1.25698716718609        1.04435134371445       -0.03955719446565
C           -2.20938578832949        2.14433115996447       -0.06336813609218
C           -1.81144060318098       -0.19875445744600       -0.05460637402241
O           -3.01323104887976       -0.37342111298424       -0.08775105251965
N           -0.95693336480950       -1.31934550313823       -0.01940973087307
C           -1.54405994736851       -2.64731813157821       -0.04360334831817
H            3.74126647993744        1.22755729216915        1.07127185827116
H            4.01352262659912        1.07380764058861       -0.67762579528348
H            2.70109383671059        2.11807775923595       -0.06358363360933
H            3.60211034655594       -1.63846912618201        0.05292169705060
H           -1.64883214805411        3.07687086832937       -0.03765425949136
H           -2.81207360192794        2.08858300295340       -0.96910257235510
H           -2.86946067662102        2.07457811956170        0.80003224933964
H           -1.08990414627271       -3.26278476092713        0.73429069640395
H           -1.35845045791171       -3.13488492803815       -0.99614906661150
H           -2.64208446309129       -2.66057053421339        0.06728434312584
H            1.40575429666230       -2.93880603073577       -0.00955268962003
25
 energy: -43.834614219219 gnorm: 0.010576579006 xtb: 6.6.1 (8d0f1dd)
C            3.24853994028580        1.18703526186837        0.09639921662065
N            2.31538988998527        0.11100588060777        0.03829616362967
C            2.62264041502737       -1.23025248956662        0.03357879120356
N            1.44679682661675       -1.93510213674009       -0.00154155703242
C            0.40563115480636       -1.07312960655032       -0.01661477521779
C            0.92628995011629        0.22276033760622        0.01145384953585
C            0.12266827177022        1.38424433793648       -0.00619027988645
O            0.50154637710866        2.56179645196267       -0.00011033670733
N           -1.25687976328266        1.04460981903905       -0.04154903644293
C           -2.21263623387510        2.14093642147752       -0.06405369497536
C           -1.80633228353122       -0.20017115158029       -0.06043778961544
O           -3.00649417018813       -0.38124909180254       -0.09576523135427
N           -0.95055060034673       -1.31703722313721       -0.02584283751226
C           -1.55120956291083       -2.64085329255063       -0.03754749767548
H            3.74174844913315        1.22168084102678        1.07332950704300
H            4.01038348591633        1.07222181802164       -0.67791285288847
H            2.69878388809815        2.11374102788112       -0.05770692546365
H            3.60230576556955       -1.63983546427210        0.05274817191843
H           -1.65516489899172        3.07503957455232       -0.03770235062347
H           -2.81630862092325        2.08453309705570       -0.96925755478763
H           -2.87337023381276        2.06998325651288        0.79895272635955
H           -1.07600559113849       -3.25414881993125        0.72762585727888
H           -1.36364061580881       -3.13229727780563       -0.98451108142761
H           -2.65645604224411       -2.64040590697636        0.07905590742259
H            1.41375274819364       -2.93873909815163       -0.01431604675588
25
 energy: -43.834746605961 gnorm: 0.006391000671 xtb: 6.6.1 (8d0f1dd)
C            3.24630305439237        1.18685387541555        0.09276739275796
N            2.31302538423778        0.11040485221659        0.03889330818161
C            2.61878233769921       -1.23133927555691        0.03675918833544
N            1.44258404195931       -1.93475982351707        0.00425625981456
C            0.40342879688772       -1.07260676916610       -0.01128126301282
C            0.92418768839323        0.22316449148420        0.01436936923081
C            0.12222129946439        1.38443422480424       -0.00599739167029
O            0.49911980256620        2.56153056152199       -0.00512902592086
N           -1.25869853180513        1.04489451208708       -0.03763452773103
C           -2.21010475645590        2.14407158423034       -0.06239051447240
C           -1.80840199053287       -0.20051164959127       -0.05369049352548
O           -3.00889791845970       -0.38153422595170       -0.08859933689776
N           -0.95130606678951       -1.31724249120867       -0.02370531981072
C           -1.54578916246914       -2.64518389587459       -0.04469812063315
H            3.73966885936908        1.22725587814787        1.06931638654998
H            4.00922118554503        1.07121889998084       -0.68025772059836
H            2.69778760005520        2.11403892070220       -0.06509500443834
H            3.59759617181070       -1.64204937112453        0.05346751509636
H           -1.64662320079004        3.07480954600954       -0.03817949902845
H           -2.81362552745482        2.08917432821043       -0.96783546923324