72
 energy: 0.000000000000 xtb: 6.6.1 (8d0f1dd)
N           -1.47310921155849        2.74401293103706        2.22063921685122
C           -1.55658879776851        2.16490285539332        1.13274273951491
C           -2.74549199786261        2.05621232186130        0.23826248438941
C           -3.31377553111525        0.64333411542669        0.32332512650568
C           -4.30230156009016        0.24487110156316       -0.58026161703006
C           -4.85238763031941       -1.02286490450319       -0.53363588718165
O           -5.81419972815119       -1.48606034185536       -1.36157882725342
C           -6.39655633239252       -0.60827000183299       -2.29568474302620
C           -4.39972501531283       -1.94646102182611        0.44396929121966
O           -4.98748311285188       -3.16145997157803        0.41085992006324
C           -4.66362127904578       -4.10093827755394        1.40909127743729
C           -3.42072513477031       -1.54561384810496        1.33436546260297
C           -2.88302799614223       -0.26315800396994        1.27400150770375
C           -2.19303798107274        2.30467000305896       -1.18742977106749
C           -1.26651538239283        1.17243369445008       -1.65249429687285
C            0.01082524939134        1.09745454476277       -0.89354803499847
N            0.61779393476578       -0.02034948052406       -0.57705522512502
C            2.00145210352228       -0.02376006389122       -0.15611399603240
C            2.92554934655222       -0.53865282675074       -1.27700088804721
C            4.35756843073516       -0.43050757231754       -0.83075544324989
C            5.07346135469827        0.73206409086248       -1.03980965825901
C            6.38627986649936        0.84224441421807       -0.60344822702769
C            7.00047264773336       -0.20824756335880        0.05722314418200
O            8.26703657141718       -0.21011313101264        0.52410943644933
C            9.06912227848686        0.92943601033931        0.31863058007678
C            6.27039964270142       -1.40439753960823        0.28033466008274
O            6.94829939911432       -2.38012925705718        0.92751999079483
C            6.31537317745639       -3.61583200086742        1.15217711710877
C            4.96302794628964       -1.49347471867959       -0.16064430359178
C           -0.05511211367372       -1.29906247805359       -0.62085686319744
C           -3.86758037025447        3.07992600430699        0.58498060215443
C           -4.49286159663096        2.77383493050346        1.94313289484366
C           -3.39165179876499        4.52917666589254        0.54797523472093
H           -4.66030026466202        0.94509067363451       -1.31640568823548
H           -6.85037928558380        0.25803162192116       -1.80468845313260
H           -7.17287442604349       -1.18600110843259       -2.79318157561361
H           -5.66836817451085       -0.26952966318766       -3.04040255244073
H           -4.88416720672258       -3.71589460520039        2.40913542187496
H           -5.29223570620378       -4.96637458756866        1.20969236903657
H           -3.61139813139015       -4.39919835331056        1.35529357841967
H           -3.07077796610445       -2.21868765711333        2.10002662693138
H           -2.14562754426994        0.02067850696302        2.01001344383370
H           -3.02188875377605        2.38238012313952       -1.88813545054866
H           -1.65198530896729        3.25146700677685       -1.20556284570283
H           -1.81103374245520        0.23006524641044       -1.62116301628650
H           -0.99335688527853        1.37490212198123       -2.69443256973690
H           -0.67628064361333        1.65183887049447        0.61785727145403
H            0.63525841192517        1.98466369793744       -0.92314021190751
H            2.11132552493482       -0.65949692842762        0.72532613231274
H            2.30680473056284        0.98978251704176        0.11078972794250
H            2.76694198818247        0.06750735147374       -2.17075252200790
H            2.67954581369920       -1.57455627803457       -1.51167743520200
H            4.62169998552446        1.56295612048703       -1.56123579000624
H            6.92357674630170        1.75715815945204       -0.79119596719031
H            8.65159112996149        1.81001823324363        0.81701555159939
H            9.20136171144928        1.14042857828877       -0.74698991949293
H           10.03428838009630        0.69003240176163        0.76064937965836
H            7.05567174969094       -4.23621171795340        1.65347565939075
H            5.43848001056755       -3.50813558175093        1.79970565785717
H            6.02060041905269       -4.09420497120334        0.21253282636366
H            4.40102758497114       -2.40127266373392       -0.00490198249042
H           -0.22071299714579       -1.61775583601871       -1.65116008982042
H           -1.01972258008625       -1.24102717432227       -0.10935206830928
H            0.55899954147532       -2.04486085926761       -0.12333730421426
H           -4.63991875734388        2.95501092798550       -0.18098088071825
H           -3.76095216473977        2.90314704960906        2.73380821053058
H           -4.87457614030224        1.75695641518947        1.97884603101694
H           -5.31925552549014        3.45579210326349        2.12325564252114
H           -2.60025590131176        4.69225046143352        1.27368918226171
H           -3.03987406413880        4.81897652321898       -0.43870975059559
H           -4.22191740670577        5.18069648090034        0.80616693961239
H           -0.59832433787845        2.77744694953323        2.72958984441332
72
 energy: -3.529806178068 xtb: 6.6.1 (8d0f1dd)
N           -1.57192759563658        2.76878126310402        2.26095112208861
C           -1.58427595462863        2.15857046063750        1.16952071375173
C           -2.74756109859579        2.04959001347759        0.24155707749359
C           -3.31238296060037        0.63708892956195        0.31994105984228
C           -4.30060345692488        0.23827040672109       -0.58276514718829
C           -4.84846197297836       -1.02973738951093       -0.53995311650878
O           -5.81548726795378       -1.49426200035481       -1.37166670922616
C           -6.39168282799935       -0.61406032891364       -2.30523881643513
C           -4.39693782093698       -1.95353552479889        0.43370132438809
O           -4.99056952770228       -3.17329765331975        0.39981734527968
C           -4.66432248196303       -4.11064895808026        1.39679669541373
C           -3.41849989717445       -1.55521678219513        1.32434212452882
C           -2.88187771786382       -0.27253333565810        1.26715237101441
C           -2.19004634693572        2.29901049044925       -1.18316632590419
C           -1.25886114029812        1.18078038856619       -1.67359435131149
C            0.00991258421087        1.11809384690110       -0.89427169191669
N            0.63253947176149       -0.04200384894970       -0.56719106292245
C            2.00702964409848       -0.03751815203472       -0.15675060123079
C            2.93653017754296       -0.54035045090662       -1.27916415320627
C            4.36423992875752       -0.43433399064586       -0.83876596384949
C            5.08047392532987        0.72990648399520       -1.04215181649619
C            6.39161278891444        0.83927279107648       -0.60341946248919
C            7.00409422880883       -0.21272483003225        0.05584492614272
O            8.27846088742207       -0.21726927593385        0.52401164212401
C            9.07597326571254        0.92256951498654        0.31727445448696
C            6.27412102974956       -1.40615519369205        0.27817153400907
O            6.95495950033159       -2.38680390565639        0.92665695891929
C            6.31821272975807       -3.61965546404401        1.14926037872252
C            4.96895547908341       -1.49612201596716       -0.16479076348635
C           -0.04623485289187       -1.30916058728577       -0.63169544780637
C           -3.86849508453059        3.06540929542184        0.59710919773620
C           -4.44094642930003        2.82463957606240        1.99307125706692
C           -3.42461737483807        4.51883533544273        0.50444370490625
H           -4.65560738047359        0.93917813867733       -1.32023880040672
H           -6.84506782474330        0.25363697114821       -1.81526986855226
H           -7.16792899850910       -1.19036360282700       -2.80559420042147
H           -5.66094856951891       -0.27477902563803       -3.04736811859837
H           -4.88081984233730       -3.72507195768243        2.39815517403246
H           -5.29523623187380       -4.97537075726278        1.19931047152873
H           -3.61245410236558       -4.41056023321434        1.34127797458958
H           -3.06468509594980       -2.23273518903734        2.08547769792839
H           -2.13684418314165        0.00773308460200        1.99583643006885
H           -3.01876292415682        2.38744248322127       -1.88541173631721
H           -1.64442770671635        3.24403083587633       -1.19346874579991
H           -1.79812786387129        0.23477551447965       -1.63338664171732
H           -1.00924480369777        1.38556955346400       -2.72279831368558
H           -0.67803260595476        1.67968106076383        0.69227319950183
H            0.64457211951979        1.99181598144568       -0.93944333665204
H            2.11980335170616       -0.67201867312348        0.72618048006422
H            2.30217880952794        0.97942275153576        0.11306473608131
H            2.76940565685609        0.07088978174761       -2.16769931078238
H            2.68485346250118       -1.57429693675064       -1.51653690883585
H            4.62708857996499        1.56172445259641       -1.56040915800696
H            6.93035705695407        1.75423020475458       -0.79042241586473
H            8.65790825926796        1.80359493453285        0.81543867281436
H            9.20713388440712        1.13496024381077       -0.74878552267693
H           10.04177271267886        0.68368939259658        0.75877533484392
H            7.05746966959229       -4.24201240915047        1.65056128630177
H            5.44057732695782       -3.51114958495814        1.79582457582414
H            6.02165224135839       -4.09729218752748        0.20937939368406
H            4.40420131028002       -2.40224087115074       -0.00733948491130
H           -0.20493923135319       -1.62271571172761       -1.66781549129099
H           -1.01720470390534       -1.24858534325328       -0.13176049929019
H            0.56004698920957       -2.05772553316086       -0.12979337557617
H           -4.67019927841101        2.91367326175150       -0.13351655106639
H           -3.76721980376284        3.08951287858234        2.81256706895537
H           -4.80893622737701        1.80211409370731        2.07451534207608
H           -5.25298446147063        3.51125497258601        2.15795245327928
H           -2.60495076615421        4.70277770844574        1.18994745999835
H           -3.11620294715228        4.78066071706086       -0.50274814619302
H           -4.25302953915770        5.16652099506726        0.78069929050305
H           -0.71659097759431        2.79188973253290        2.80001745475309
72
 energy: 2.381255786206 xtb: 6.6.1 (8d0f1dd)
N           -1.69969803997719        2.78985590342200        2.30081411356877
C           -1.60746405771794        2.15791614754001        1.20506841377098
C           -2.74741082843121        2.04151941941632        0.24455438644518
C           -3.31016574920329        0.62877795750102        0.31269861247150
C           -4.29930228350355        0.22958381024741       -0.58832429031308
C           -4.84348277057996       -1.03919481005046       -0.54938537056679
O           -5.81722283789675       -1.50577137308818       -1.38551237566839
C           -6.38529254736820       -0.62420366995029       -2.31943459019416
C           -4.39307288172392       -1.96266177430920        0.41922816659607
O           -4.99383588887896       -3.18857145925643        0.38559596814030
C           -4.66374344771391       -4.12232021844250        1.38092772571755
C           -3.41377970391952       -1.56870394238583        1.30909758968061
C           -2.87824153011075       -0.28640311134866        1.25446479148763
C           -2.18768117176739        2.29509277083739       -1.18025493040903
C           -1.25339655349113        1.18541187319189       -1.69178530776158
C            0.00908319843073        1.13903169946532       -0.90264923795423
N            0.64439605122023       -0.06169290708860       -0.55685085870263
C            2.00828425325515       -0.04593962941600       -0.15778604138991
C            2.94738052369710       -0.54083676728644       -1.27877105392998
C            4.36964712543440       -0.43685944785033       -0.84191159279957
C            5.08785490626535        0.72768734324104       -1.04102838942482
C            6.39816024831833        0.83586078264366       -0.60105878751141
C            7.00751059067168       -0.21818800736053        0.05523931415501
O            8.29156962958178       -0.22640980360272        0.52313465193067
C            9.08429353519637        0.91257570132741        0.31397594838422
C            6.27817535788233       -1.40766361923646        0.27653736692393
O            6.96259453091331       -2.39550359329527        0.92473175270560
C            6.32185777004038       -3.62525873019655        1.14301710773569
C            4.97421168467033       -1.49785752634570       -0.16660212557980
C           -0.03880641581888       -1.31578083457896       -0.64239993646797
C           -3.86335646982543        3.04925647509511        0.61999602195950
C           -4.37500380524117        2.88785581118060        2.05750714813993
C           -3.45782870743521        4.50619807052583        0.44969795630741
H           -4.65130378541319        0.93136346585909       -1.32724474167217
H           -6.83931947954388        0.24551349633815       -1.83228469676619
H           -7.16118633038943       -1.19925804568415       -2.82309155057076
H           -5.65161654681105       -0.28508174801608       -3.05900702065970
H           -4.87457023543457       -3.73620254925394        2.38414634986158
H           -5.29757682600850       -4.98647428066903        1.18730433101338
H           -3.61251063208865       -4.42520502938874        1.32275391200640
H           -3.05539424235161       -2.25089647622792        2.06502818096399
H           -2.12485977173151       -0.00990815510970        1.97528414119108
H           -3.01762256791143        2.39535007673403       -1.88268557386680
H           -1.63526228495914        3.23710409690020       -1.18254539831522
H           -1.78490829758241        0.23425960062661       -1.64764855729552
H           -1.02962477772907        1.39482015808446       -2.74882579725247
H           -0.67724175308077        1.71237801984125        0.78946829685003
H            0.65733293838000        1.99448718447649       -0.95963872084803
H            2.12881977300810       -0.67943675614882        0.72810651525741
H            2.29571336050388        0.97358592817004        0.11504294909607
H            2.77245094690841        0.07469086277944       -2.16284853093570
H            2.68994045560092       -1.57318914033921       -1.51958018150958
H            4.63251492039166        1.56054761526877       -1.55587115937803
H            6.93810635885518        1.75114627180355       -0.78649601814006
H            8.66788360301572        1.79501698884956        0.81223665522765
H            9.21396194767234        1.12642075536335       -0.75271710620317
H           10.05150154700620        0.67408983362365        0.75357434891144
H            7.06009151009343       -4.25080570900302        1.64295210701350
H            5.44366732443204       -3.51783114401532        1.78922696834660
H            6.02358036283209       -4.10099452767450        0.20215775589976
H            4.40626484011396       -2.40214819512431       -0.00808875075908
H           -0.18547030946258       -1.63230953902765       -1.68290021238337
H           -1.01779280500731       -1.25486064786742       -0.15791412550889
H            0.55771809571243       -2.06642894868809       -0.12987008167160
H           -4.70684583333769        2.86025148674240       -0.05927528304275
H           -3.78069871814179        3.32619957696859        2.90907040152256
H           -4.71916523744059        1.86096656870303        2.19983140199593
H           -5.17575201006664        3.58113746088701        2.19695427813511
H           -2.60372423672761        4.71584663841627        1.08393568437961
H           -3.20975589922022        4.73616317468104       -0.58217924716928
H           -4.28288526239485        5.14657822519451        0.75477062686612
H           -0.86879466380351        2.80560170232685        2.87882203008383
72
 energy: 13.958265047169 xtb: 6.6.1 (8d0f1dd)
N           -1.81445061542313        2.79932108190377        2.33672915202998
C           -1.63261579920904        2.16003808207820        1.24249847225585
C           -2.74882573686182        2.03450874554245        0.25083256502596
C           -3.30817552944662        0.61982107144966        0.30611227994129
C           -4.29744094711049        0.22100046745162       -0.59520084669440
C           -4.83911936172462       -1.04891409847837       -0.55995690340947
O           -5.81711072789183       -1.51649697148299       -1.39913429992433
C           -6.37866487741310       -0.63500095221432       -2.33456599827306
C           -4.38955390725768       -1.97318873086183        0.40451845662959
O           -4.99556952627038       -3.20267757023433        0.37118722710088
C           -4.66286882048805       -4.13440542555977        1.36487112774857
C           -3.40794359829422       -1.58360278602054        1.29311668763068
C           -2.87324191092875       -0.30134784200269        1.24109762608262
C           -2.18648686465518        2.29203548314104       -1.17510958170510
C           -1.25020054191000        1.18927861197360       -1.70648300740670
C            0.00901387021327        1.15308167483297       -0.91537182529835
N            0.65159279229936       -0.07537290215466       -0.54955438981870
C            2.00954410503217       -0.05215983589069       -0.15723126006306
C            2.95574348052005       -0.54064587015766       -1.27819710333079
C            4.37483138941429       -0.43861512620163       -0.84272820832074
C            5.09499305414158        0.72602553848672       -1.03876528926666
C            6.40495404378132        0.83281046087367       -0.59849970859957
C            7.01212996684635       -0.22378190809678        0.05492224052601
O            8.30281775795734       -0.23526569853031        0.52159909744998
C            9.09301970477807        0.90241478222862        0.31029410663268
C            6.28270840695953       -1.41050194445853        0.27531580239145
O            6.96903093277801       -2.40368546304475        0.92225170289533
C            6.32557004287621       -3.63135405423363        1.13649598662770
C            4.97904909876334       -1.50002268477372       -0.16728061181384
C           -0.03207888335641       -1.32210812001040       -0.65281296657396
C           -3.85954478557177        3.03792131646137        0.64933475369204
C           -4.31208363837597        2.96421764331168        2.12830764492017
C           -3.49116171880910        4.49416277312503        0.39316903344101
H           -4.64760105078401        0.92381746562460       -1.33446684384109
H           -6.83373650246753        0.23648535172423       -1.85066626143411
H           -7.15382027391396       -1.20919573465453       -2.84130246930899
H           -5.64202913248551       -0.29659086829301       -3.07176096966506
H           -4.86799736665279       -3.74779404882318        2.36967410231732
H           -5.29970329688978       -4.99774740353414        1.17518220332014
H           -3.61246546056916       -4.44060925095892        1.30361034301834
H           -3.04552496342893       -2.26968727097819        2.04401050522415
H           -2.11228428182196       -0.02849463671385        1.95498447361598
H           -3.01592513041410        2.40256099194752       -1.87848814118865
H           -1.62731737472251        3.23045464932635       -1.17174054503658
H           -1.77381532507966        0.23363886920924       -1.66123245272578
H           -1.04706731279278        1.40364404019040       -2.76943648414441
H           -0.67679700917570        1.74817114104498        0.88448690244253
H            0.66831314660554        1.99583972682252       -0.97685899882538
H            2.13711153646772       -0.68540825483662        0.73025049667782
H            2.29098195736669        0.96900453301291        0.11738782995986
H            2.77633727960161        0.07844111765689       -2.15890056729004
H            2.69502413175488       -1.57181142201520       -1.52203598080066
H            4.63831593043629        1.55980884891477       -1.55096264562002
H            6.94575713008296        1.74811746665748       -0.78252032194443
H            8.67872809483702        1.78617798625742        0.80884909828588
H            9.22113328704019        1.11727678885846       -0.75691316414304
H           10.06153325977842        0.66399877005593        0.74782296922217
H            7.06285422372694       -4.25988754294917        1.63483100210131
H            5.44707792476039       -3.52508150537528        1.78266313755711
H            6.02589449171168       -4.10481369738296        0.19455682573700
H            4.40839695770468       -2.40260422192544       -0.00814929431251
H           -0.16436808223628       -1.64171490927941       -1.69668129838933
H           -1.01927128758952       -1.26119463337149       -0.18461552295148
H            0.55472354944257       -2.07436737000084       -0.12914682991490
H           -4.74075064064506        2.80702847609423        0.02299001203981
H           -3.79029716890083        3.54280785471818        2.99200194746660
H           -4.62537485404054        1.93368710894162        2.33024222824435
H           -5.11766985572771        3.65054354875683        2.23149683075213
H           -2.60232444695494        4.73303448976996        0.97167481212517
H           -3.30759545843010        4.68871058492507       -0.66285530038406
H           -4.31092822319424        5.12815797720978        0.72658264829492
H           -1.01348006490264        2.81739607186681        2.95616008911651
72
 energy: 26.220978941424 xtb: 6.6.1 (8d0f1dd)
N           -1.90621227091161        2.79497545966144        2.36550349501335
C           -1.65622054207163        2.16535542964350        1.28015429933403
C           -2.75084387708628        2.02932097339233        0.26221217796578
C           -3.30658226594166        0.61097319958787        0.30141484657152
C           -4.29509007767067        0.21297856563161       -0.60224623722701
C           -4.83520956938095       -1.05843000138390       -0.57109208747573
O           -5.81500302281734       -1.52598366110305       -1.41190556510433
C           -6.37185523487010       -0.64575162343155       -2.34985926181635
C           -4.38634558193830       -1.98480811570869        0.39018488214682
O           -4.99580255144786       -3.21521729901250        0.35697964910639
C           -4.66197259912641       -4.14677142792929        1.34907960604123
C           -3.40131501177885       -1.59943774442761        1.27700479373060
C           -2.86733708012431       -0.31691157643058        1.22803882773108
C           -2.18591806390278        2.29081218485921       -1.16655958763597
C           -1.24908376358603        1.19226996903755       -1.71569419014408
C            0.01015796397440        1.16003377366491       -0.93036469547806
N            0.65466189104949       -0.08333871447602       -0.54529245417848
C            2.01145781085868       -0.05670931441347       -0.15600515104180
C            2.96202813821356       -0.54035080191604       -1.27788615559158
C            4.38019695588671       -0.43995398670579       -0.84214772806656
C            5.10209983286955        0.72440446725017       -1.03638738687418
C            6.41215190948806        0.82971483743307       -0.59645537753139
C            7.01806581249519       -0.22938372264875        0.05443308290030
O            8.31203382016957       -0.24354247992475        0.51941671612283
C            9.10197551027431        0.89260629489793        0.30651962059844
C            6.28785442807047       -1.41451646113161        0.27411536460722
O            6.97435826630848       -2.41090155121867        0.91936595552463
C            6.32931585071752       -3.63748602072319        1.13042070340081
C            4.98375032404107       -1.50253187283075       -0.16759766787814
C           -0.02574878273435       -1.32836085623657       -0.66419749370898
C           -3.85806259510084        3.03331997506625        0.68316048414801
C           -4.25495386890086        3.05161077724166        2.19942676527498
C           -3.52689129606914        4.48126982714090        0.33487784920303
H           -4.64432285696032        0.91673325151901       -1.34119499379085
H           -6.82826788993642        0.22711360381920       -1.86929720756875
H           -7.14592493162448       -1.21949161942695       -2.85932718102680
H           -5.63233584917954       -0.30845934906795       -3.08483330006632
H           -4.86163067436396       -3.75974398177818        2.35511516121130
H           -5.30193498016108       -5.00888372226517        1.16295940720862
H           -3.61261600564430       -4.45661398047612        1.28442488112402
H           -3.03552838183090       -2.28872633315028        2.02312556080132
H           -2.09960694733818       -0.04786765402385        1.93596699477202
H           -3.01371837065770        2.40912548313619       -1.87140583863083
H           -1.62031649672417        3.22522968924799       -1.15986999729051
H           -1.76461554307516        0.23248660157073       -1.67402914870490
H           -1.06165229175674        1.41336087440781       -2.78250812146018
H           -0.67725522103142        1.78323015922518        0.97765881044753
H            0.67750159771341        1.99544263491406       -0.98935062317602
H            2.14417771895886       -0.69133116060093        0.73110832272819
H            2.28833925271757        0.96488230025220        0.12051436631571
H            2.78091405621168        0.08216030287629       -2.15567066205956
H            2.70045948180881       -1.57062544185262       -1.52491782070370
H            4.64463148557674        1.55906965748635       -1.54654345130278
H            6.95351691245450        1.74485343596623       -0.77912341519823
H            8.68989273856782        1.77742221845577        0.80551153106388
H            9.22869368764559        1.10801809535336       -0.76103322441399
H           10.07149614206659        0.65387744196349        0.74213478923968
H            7.06569900514215       -4.26855341428474        1.62722636675521
H            5.45075295835425       -3.53210854906696        1.77677593990142
H            6.02855672681568       -4.10873694617772        0.18752783633538
H            4.41092211016149       -2.40358559486973       -0.00822955052775
H           -0.14191028874953       -1.65015682553574       -1.71049010981083
H           -1.02059810163697       -1.26840201132988       -0.21231747721921
H            0.55179593749779       -2.08175316223653       -0.12988978873758
H           -4.76971987590774        2.75748267573263        0.11297693942764
H           -3.80494411831261        3.74356554656553        3.06122658290515
H           -4.53147132674720        2.02052702605565        2.45844396096973
H           -5.07751645542780        3.71509286392926        2.26182947339238
H           -2.60748905106990        4.75135591948005        0.85309544281019
H           -3.40857393461586        4.63699241519110       -0.73921777129580
H           -4.33771534536967        5.11187135324935        0.69427811942307
H           -1.14544613966962        2.82517852983728        3.03121744460597
72
 energy: 35.495605659493 xtb: 6.6.1 (8d0f1dd)
N           -1.97427742972448        2.77226647081599        2.38867673818225
C           -1.67554128171851        2.17077413266773        1.31709129501532
C           -2.75196290852168        2.02548887565918        0.27795070440614
C           -3.30511189717510        0.60273416886139        0.29948525515703
C           -4.29217083911649        0.20617932487306       -0.60830901419162
C           -4.83184969952408       -1.06694663578316       -0.58196137474072
O           -5.81055492475145       -1.53319461430424       -1.42275432280569
C           -6.36507486221415       -0.65525676647472       -2.36419685902035
C           -4.38354319173583       -1.99706936396261        0.37713516419539
O           -4.99444161716526       -3.22514709842678        0.34360556481475
C           -4.66135025341836       -4.15901019286940        1.33419859912524
C           -3.39426766484102       -1.61543020730744        1.26169315139494
C           -2.86082456705126       -0.33229642030930        1.21652117369054
C           -2.18453651448686        2.29141777097674       -1.15445455756335
C           -1.24870238037235        1.19391372955782       -1.71752376722239
C            0.01506673846494        1.15634882300692       -0.94613283284140
N            0.65309340979855       -0.08384301620474       -0.54495263254567
C            2.01386461612501       -0.05991525177105       -0.15484073799086
C            2.96583760347488       -0.53997689671177       -1.27818579209260
C            4.38565171237932       -0.44097674199817       -0.84076054416870