      -----------------------------------------------------------      
     |                   =====================                   |     
     |                           x T B                           |     
     |                   =====================                   |     
     |                         S. Grimme                         |     
     |          Mulliken Center for Theoretical Chemistry        |     
     |                    University of Bonn                     |     
      -----------------------------------------------------------      

   * xtb version 6.6.1 (8d0f1dd) compiled by 'conda@1efc2f54142f' on 2023-08-01

   xtb is free software: you can redistribute it and/or modify it under
   the terms of the GNU Lesser General Public License as published by
   the Free Software Foundation, either version 3 of the License, or
   (at your option) any later version.
   
   xtb is distributed in the hope that it will be useful,
   but WITHOUT ANY WARRANTY; without even the implied warranty of
   MERCHANTABILITY or FITNESS FOR A PARTICULAR PURPOSE.  See the
   GNU Lesser General Public License for more details.
   
   Cite this work as:
   * C. Bannwarth, E. Caldeweyher, S. Ehlert, A. Hansen, P. Pracht,
     J. Seibert, S. Spicher, S. Grimme, WIREs Comput. Mol. Sci., 2020, 11,
     e01493. DOI: 10.1002/wcms.1493
   
   for GFN2-xTB:
   * C. Bannwarth, S. Ehlert and S. Grimme., J. Chem. Theory Comput., 2019,
     15, 1652-1671. DOI: 10.1021/acs.jctc.8b01176
   for GFN1-xTB:
   * S. Grimme, C. Bannwarth, P. Shushkov, J. Chem. Theory Comput., 2017,
     13, 1989-2009. DOI: 10.1021/acs.jctc.7b00118
   for GFN0-xTB:
   * P. Pracht, E. Caldeweyher, S. Ehlert, S. Grimme, ChemRxiv, 2019, preprint.
     DOI: 10.26434/chemrxiv.8326202.v1
   for GFN-FF:
   * S. Spicher and S. Grimme, Angew. Chem. Int. Ed., 2020, 59, 15665-15673.
     DOI: 10.1002/anie.202004239
   
   for ALPB and GBSA implicit solvation:
   * S. Ehlert, M. Stahn, S. Spicher, S. Grimme, J. Chem. Theory Comput.,
     2021, 17, 4250-4261. DOI: 10.1021/acs.jctc.1c00471
   
   for DFT-D4:
   * E. Caldeweyher, C. Bannwarth and S. Grimme, J. Chem. Phys., 2017,
     147, 034112. DOI: 10.1063/1.4993215
   * E. Caldeweyher, S. Ehlert, A. Hansen, H. Neugebauer, S. Spicher,
     C. Bannwarth and S. Grimme, J. Chem. Phys., 2019, 150, 154122.
     DOI: 10.1063/1.5090222
   * E. Caldeweyher, J.-M. Mewes, S. Ehlert and S. Grimme, Phys. Chem. Chem. Phys.
     2020, 22, 8499-8512. DOI: 10.1039/D0CP00502A
   
   for sTDA-xTB:
   * S. Grimme and C. Bannwarth, J. Chem. Phys., 2016, 145, 054103.
     DOI: 10.1063/1.4959605
   
   in the mass-spec context:
   * V. Asgeirsson, C. Bauer and S. Grimme, Chem. Sci., 2017, 8, 4879.
     DOI: 10.1039/c7sc00601b
   * J. Koopman and S. Grimme, ACS Omega 2019, 4, 12, 15120-15133.
     DOI: 10.1021/acsomega.9b02011
   
   for metadynamics refer to:
   * S. Grimme, J. Chem. Theory Comput., 2019, 155, 2847-2862
     DOI: 10.1021/acs.jctc.9b00143
   
   for SPH calculations refer to:
   * S. Spicher and S. Grimme, J. Chem. Theory Comput., 2021, 17, 1701-1714
     DOI: 10.1021/acs.jctc.0c01306
   
   with help from (in alphabetical order)
   P. Atkinson, C. Bannwarth, F. Bohle, G. Brandenburg, E. Caldeweyher
   M. Checinski, S. Dohm, S. Ehlert, S. Ehrlich, I. Gerasimov, C. Hölzer
   A. Katbashev, J. Koopman, C. Lavigne, S. Lehtola, F. März, M. Müller,
   F. Musil, H. Neugebauer, J. Pisarek, C. Plett, P. Pracht, F. Pultar,
   J. Seibert, P. Shushkov, S. Spicher, M. Stahn, M. Steiner, T. Strunk,
   J. Stückrath, T. Rose, and J. Unsleber
   
 * started run on 2024/04/06 at 11:14:16.932     

           -------------------------------------------------
          |                Calculation Setup                |
           -------------------------------------------------

          program call               : xtb xtbopt.xyz --opt crude --input .xc2 --gfn2
          hostname                   : n-62-30-23
          coordinate file            : xtbopt.xyz
          omp threads                :                     1

   ID    Z sym.   atoms
    1    7 N      1, 17
    2    6 C      2-6, 8, 9, 11-16, 18-23, 25, 26, 28-33
    3    8 O      7, 10, 24, 27
    4    1 H      34-72

molecular fragmentation (1/2 indicates fragments):
111111111111111111111111111111111111111111111111111121111111111111111111
# atoms in fragment 1/2:    71     1
 fragment masses (1/2) :      454.60        1.01
CMA distance (Bohr)    :   6.099
constraining FC (au)   :  0.0500
########################################################################
[WARNING] Please study the warnings concerning your input carefully
-1- readin_getIntValue: could not parse ''
########################################################################

           -------------------------------------------------
          |                 G F N 2 - x T B                 |
           -------------------------------------------------

        Reference                      10.1021/acs.jctc.8b01176
      * Hamiltonian:
        H0-scaling (s, p, d)           1.850000    2.230000    2.230000
        zeta-weighting                 0.500000
      * Dispersion:
        s8                             2.700000
        a1                             0.520000
        a2                             5.000000
        s9                             5.000000
      * Repulsion:
        kExp                           1.500000    1.000000
        rExp                           1.000000
      * Coulomb:
        alpha                          2.000000
        third order                    shell-resolved
        anisotropic                    true
        a3                             3.000000
        a5                             4.000000
        cn-shift                       1.200000
        cn-exp                         4.000000
        max-rad                        5.000000

q/qsh data taken from xtbrestart
CAMM data taken from xtbrestart

          ...................................................
          :                      SETUP                      :
          :.................................................:
          :  # basis functions                 171          :
          :  # atomic orbitals                 171          :
          :  # shells                          105          :
          :  # electrons                       180          :
          :  max. iterations                   250          :
          :  Hamiltonian                  GFN2-xTB          :
          :  restarted?                       true          :
          :  GBSA solvation                  false          :
          :  PC potential                    false          :
          :  electronic temp.         5000.0000000     K    :
          :  accuracy                    1.0000000          :
          :  -> integral cutoff          0.2500000E+02      :
          :  -> integral neglect         0.1000000E-07      :
          :  -> SCF convergence          0.1000000E-05 Eh   :
          :  -> wf. convergence          0.1000000E-03 e    :
          :  Broyden damping             0.4000000          :
          ...................................................

 iter      E             dE          RMSdq      gap      omega  full diag
   1   -100.6198518 -0.100620E+03  0.256E-05    0.39       0.0  T
   2   -100.6198518  0.126917E-09  0.377E-05    0.39     312.5  T
   3   -100.6198518 -0.115122E-09  0.209E-05    0.39     562.9  T

   *** convergence criteria satisfied after 3 iterations ***

         #    Occupation            Energy/Eh            Energy/eV
      -------------------------------------------------------------
         1        2.0000           -0.8169214             -22.2296
       ...           ...                  ...                  ...
        84        1.9915           -0.5140024             -13.9867
        85        1.9765           -0.4978089             -13.5461
        86        1.9725           -0.4952511             -13.4765
        87        1.8999           -0.4742196             -12.9042
        88        1.8433           -0.4666363             -12.6978
        89        1.7874           -0.4613255             -12.5533
        90        1.3688           -0.4398661             -11.9694 (HOMO)
        91        0.9358           -0.4255730             -11.5804 (LUMO)
        92        0.2435           -0.3963250             -10.7846
        93        0.0088           -0.3416972              -9.2981
        94        0.0029           -0.3242526              -8.8234
        95        0.0026           -0.3224613              -8.7746
       ...           ...                  ...                  ...
       171                          0.5635121              15.3339
      -------------------------------------------------------------
                  HL-Gap            0.0142931 Eh            0.3889 eV
             Fermi-level           -0.4276104 Eh          -11.6359 eV

 SCC (total)                   0 d,  0 h,  0 min,  0.119 sec
 SCC setup                      ...        0 min,  0.001 sec (  0.978%)
 Dispersion                     ...        0 min,  0.002 sec (  1.687%)
 classical contributions        ...        0 min,  0.001 sec (  0.443%)
 integral evaluation            ...        0 min,  0.018 sec ( 15.212%)
 iterations                     ...        0 min,  0.027 sec ( 22.985%)
 molecular gradient             ...        0 min,  0.069 sec ( 58.157%)
 printout                       ...        0 min,  0.001 sec (  0.524%)

         :::::::::::::::::::::::::::::::::::::::::::::::::::::
         ::                     SUMMARY                     ::
         :::::::::::::::::::::::::::::::::::::::::::::::::::::
         :: total energy             -99.250023790414 Eh    ::
         :: gradient norm              0.001542206143 Eh/a0 ::
         :: HOMO-LUMO gap              0.388934403820 eV    ::
         ::.................................................::
         :: SCC energy              -100.619851799698 Eh    ::
         :: -> isotropic ES            0.117355288276 Eh    ::
         :: -> anisotropic ES         -0.001464737492 Eh    ::
         :: -> anisotropic XC          0.043993406414 Eh    ::
         :: -> dispersion             -0.078718574368 Eh    ::
         :: repulsion energy           1.368419105644 Eh    ::
         :: add. restraining           0.000000000000 Eh    ::
         :: total charge               1.000000000052 e     ::
         :::::::::::::::::::::::::::::::::::::::::::::::::::::

      ----------------------------------------------------------- 
     |                   =====================                   |
     |                        A N C O P T                        |
     |                   =====================                   |
     |               Approximate Normal Coordinate               |
     |                Rational Function Optimizer                |
      ----------------------------------------------------------- 

          ...................................................
          :                      SETUP                      :
          :.................................................:
          :   optimization level             crude          :
          :   max. optcycles                   200          :
          :   ANC micro-cycles                  20          :
          :   degrees of freedom               210          :
          :.................................................:
          :   RF solver                   davidson          :
          :   write xtbopt.log                true          :
          :   linear?                        false          :
          :   energy convergence         0.5000000E-03 Eh   :
          :   grad. convergence          0.1000000E-01 Eh/α :
          :   maxmium RF displ.          1.0000000          :
          :   Hlow (freq-cutoff)         0.1000000E-01      :
          :   Hmax (freq-cutoff)         5.0000000          :
          :   S6 in model hess.         20.0000000          :
          ...................................................

generating ANC from model Hessian ...
Using Lindh-Hessian (1995)
 Shifting diagonal of input Hessian by    1.2811764029144837E-002
 Lowest  eigenvalues of input Hessian
    0.010000    0.011321    0.000000    0.000000    0.000000    0.000000
    0.000000    0.000000    0.012844    0.012874    0.012976    0.013054
    0.013135    0.013167    0.013419    0.013624    0.013710    0.013828
 Highest eigenvalues
    2.043684    2.043837    2.046683    2.120056    2.168912    2.184043


........................................................................
.............................. CYCLE    1 ..............................
........................................................................

 iter      E             dE          RMSdq      gap      omega  full diag
   1   -100.6198518 -0.100620E+03  0.141E-05    0.39       0.0  T
   2   -100.6198518  0.146372E-09  0.355E-05    0.39     331.8  T
   3   -100.6198518 -0.157542E-09  0.826E-06    0.39    1426.9  T
     SCC iter.                  ...        0 min,  0.026 sec
     gradient                   ...        0 min,  0.069 sec
 * total energy  :   -99.2500238 Eh     change       -0.4067147E-10 Eh
   gradient norm :     0.0015419 Eh/α   predicted     0.0000000E+00 (-100.00%)
   displ. norm   :     0.0585077 α      lambda       -0.2388206E-04
   maximum displ.:     0.0249008 α      in ANC's #2, #5, #1, ...

   *** GEOMETRY OPTIMIZATION CONVERGED AFTER 1 ITERATIONS ***

------------------------------------------------------------------------
 total energy gain   :        -0.0000000 Eh       -0.0000 kcal/mol
 total RMSD          :         0.0000000 a0        0.0000 Å
 total power (kW/mol):        -0.0000001 (step)   -0.0000 (real)
------------------------------------------------------------------------

 ANCopt (total)                0 d,  0 h,  0 min,  0.183 sec
 optimizer setup                ...        0 min,  0.000 sec (  0.158%)
 model hessian                  ...        0 min,  0.056 sec ( 30.730%)
 ANC generation                 ...        0 min,  0.006 sec (  3.470%)
 coordinate transformation      ...        0 min,  0.000 sec (  0.025%)
 single point calculation       ...        0 min,  0.117 sec ( 64.026%)
 optimization log               ...        0 min,  0.002 sec (  1.109%)
 hessian update                 ...        0 min,  0.000 sec (  0.001%)
 rational function              ...        0 min,  0.000 sec (  0.104%)

================
 final structure:
================
72
 xtb: 6.6.1 (8d0f1dd)
N           -1.74491388038276        2.89297443527542        2.17076478944611
C           -1.70620356228507        2.17593557997904        1.15118883625464
C           -2.85752262489419        1.97695601863266        0.20139934982957
C           -3.36309475493141        0.54714517944470        0.30104449371818
C           -4.27273917340137        0.06305088049150       -0.64158487683381
C           -4.75999517688257       -1.23270629166007       -0.57865170523762
O           -5.63477085510318       -1.78035288652357       -1.44496723282910
C           -6.19866509038463       -0.98338664911365       -2.46038239739794
C           -4.32452750225857       -2.09460384438083        0.46594394686334
O           -4.83674920110806       -3.33967356919145        0.44229037065406
C           -4.52482119421589       -4.23042687755649        1.48843790702505
C           -3.43105364567906       -1.60272590511747        1.40519066114421
C           -2.95847038992836       -0.29911730423141        1.32283736147694
C           -2.28519230085041        2.24760887763297       -1.21521353381477
C           -1.42828589343075        1.10562644019695       -1.79402732633474
C           -0.12803840258644        0.93638619206009       -1.11386696705808
N            0.38268901679717       -0.20107024533682       -0.70716153928943
C            1.72771562544014       -0.23680468863232       -0.17941471589094
C            2.72756352870545       -0.80912245735531       -1.19635467676973
C            4.12428529484860       -0.45246941988215       -0.77745752792732
C            4.60200331364105        0.82489671894841       -0.86557299865230
C            5.84493595164876        1.25485355715741       -0.52799704367799
C            6.74338093966085        0.30656966584635       -0.02450921668751
O            8.00964462549332        0.55231639231894        0.33729403366081
C            8.54575379042889        1.84368523592469        0.15864302730639
C            6.29923483970603       -1.03891967698479        0.12891568968682
O            7.22076935792368       -1.87802936859318        0.64377194030827
C            6.88656324710102       -3.22993721982122        0.85439623303215
C            5.01029892893566       -1.39566951943334       -0.24309110158650
C           -0.31854783023817       -1.46122977600717       -0.80924999835548
C           -4.05215126810262        2.93846435047585        0.48212168022762
C           -4.71675210818613        2.62729541705062        1.82097734782100
C           -3.66048552105221        4.41207466451518        0.43115590159167
H           -4.61534093885457        0.71384433818937       -1.42903866779765
H           -6.73870667020612       -0.12756033698754       -2.04502146127038
H           -6.89910149665477       -1.63162316261263       -2.98321040852520
H           -5.43880110970903       -0.63148610493180       -3.16571131967103
H           -4.83199756276784       -3.83085416816045        2.45908878530304
H           -5.08705560862964       -5.13772612071825        1.27698512246162
H           -3.45564509628589       -4.46445195049621        1.51075530784905
H           -3.09966029149706       -2.22635918559468        2.21938355612603
H           -2.28222663646752        0.05555740842958        2.08480211470927
H           -3.11249614136294        2.42532433998635       -1.90184412679986
H           -1.68383792829045        3.15669110932110       -1.17998582804154
H           -2.00288622975497        0.18045697316905       -1.81000381718730
H           -1.20636841843631        1.38355996132331       -2.83196936863318
H           -0.79927298029678        1.64249111702446        0.81363073840632
H            0.50967011278237        1.81111786174396       -1.00333846350798
H            1.74159624283448       -0.82754990885514        0.73963353304105
H            2.02931918235999        0.80054817163777        0.05955087411478
H            2.52731409106304       -0.35767306190765       -2.17052627026095
H            2.61981766462105       -1.89116018728766       -1.28298244234993
H            1.96490160146032        2.56241488589551        0.09487479197522
H            6.13464980890569        2.28669852727566       -0.63917239464636
H            8.01714136635765        2.58402052813834        0.76651606729440
H            8.51883585706418        2.14379857368565       -0.89322214827000
H            9.58078337541836        1.77920565455096        0.48957966095146
H            7.77775161941423       -3.68631061381645        1.28084267427318
H            6.05549555963492       -3.33169718254876        1.55928917247082
H            6.63667865171481       -3.73321493378077       -0.08462795044934
H            4.67644229498879       -2.41677920091103       -0.14223006534335
H           -0.43256972725899       -1.76106285623641       -1.85268015627971
H           -1.30696418614232       -1.38986401504193       -0.35088609965594
H            0.25021266932588       -2.22764685088712       -0.28921719205714
H           -4.78875471904314        2.75574616420175       -0.30906057063406
H           -4.00975764801449        2.77590941415142        2.63101003695121
H           -5.08128952999344        1.60327759783974        1.85244277920689
H           -5.56029708131859        3.29545470317472        1.97238946095742
H           -2.93498363479509        4.63592854139098        1.20741909709448
H           -3.24743599014128        4.69067236629392       -0.53441592013805
H           -4.54290305738881        5.02227944049425        0.60535799880060
H           -0.89759990205926        2.99256777922091        2.71998703042794

 Bond Distances (Angstroems)
 ---------------------------
N1-C2=1.2471         N1-H72=1.0146        C2-N1=1.2471         C2-C3=1.5057         C2-H47=1.1050        C3-C2=1.5057         
C3-C4=1.5198         C3-C14=1.5516        C3-C31=1.5590        C4-C3=1.5198         C4-C5=1.3965         C4-C13=1.3871        
C5-C4=1.3965         C5-C6=1.3858         C5-H34=1.0775        C6-C5=1.3858         C6-O7=1.3475         C6-C9=1.4226         
O7-C6=1.3475         O7-C8=1.4086         C8-O7=1.4086         C8-H35=1.0939        C8-H36=1.0882        C8-H37=1.0949        
C9-C6=1.4226         C9-O10=1.3465        C9-C12=1.3865        O10-C9=1.3465        O10-C11=1.4090       C11-O10=1.4090       
C11-H38=1.0937       C11-H39=1.0881       C11-H40=1.0947       C12-C9=1.3865        C12-C13=1.3891       C12-H41=1.0778       
C13-C4=1.3871        C13-C12=1.3891       C13-H42=1.0787       C14-C3=1.5516        C14-C15=1.5406       C14-H43=1.0897       
C14-H44=1.0905       C15-C14=1.5406       C15-C16=1.4771       C15-H45=1.0892       C15-H46=1.0972       C16-C15=1.4771       
C16-N17=1.3115       C16-H48=1.0881       N17-C16=1.3115       N17-C18=1.4453       N17-C30=1.4457       C18-N17=1.4453       
C18-C19=1.5367       C18-H49=1.0926       C18-H50=1.1064       C19-C18=1.5367       C19-C20=1.5012       C19-H51=1.0922       
C19-H52=1.0908       C20-C19=1.5012       C20-C21=1.3666       C20-C29=1.4001       C21-C20=1.3666       C21-C22=1.3578       
C22-C21=1.3578       C22-C23=1.4000       C22-H54=1.0775       C23-C22=1.4000       C23-O24=1.3397       C23-C26=1.4252       
O24-C23=1.3397       O24-C25=1.4096       C25-O24=1.4096       C25-H55=1.0941       C25-H56=1.0942       C25-H57=1.0886       
C26-C23=1.4252       C26-O27=1.3485       C26-C29=1.3882       O27-C26=1.3485       O27-C28=1.4084       C28-O27=1.4084       
C28-H58=1.0883       C28-H59=1.0945       C28-H60=1.0943       C29-C20=1.4001       C29-C26=1.3882       C29-H61=1.0790       
C30-N17=1.4457       C30-H62=1.0916       C30-H63=1.0919       C30-H64=1.0869       C31-C3=1.5590        C31-C32=1.5268       
C31-C33=1.5256       C31-H65=1.0963       C32-C31=1.5268       C32-H66=1.0854       C32-H67=1.0874       C32-H68=1.0867       
C33-C31=1.5256       C33-H69=1.0858       C33-H70=1.0865       C33-H71=1.0869       H34-C5=1.0775        H35-C8=1.0939        
H36-C8=1.0882        H37-C8=1.0949        H38-C11=1.0937       H39-C11=1.0881       H40-C11=1.0947       H41-C12=1.0778       
H42-C13=1.0787       H43-C14=1.0897       H44-C14=1.0905       H45-C15=1.0892       H46-C15=1.0972       H47-C2=1.1050        
H48-C16=1.0881       H49-C18=1.0926       H50-C18=1.1064       H51-C19=1.0922       H52-C19=1.0908       H54-C22=1.0775       
H55-C25=1.0941       H56-C25=1.0942       H57-C25=1.0886       H58-C28=1.0883       H59-C28=1.0945       H60-C28=1.0943       
H61-C29=1.0790       H62-C30=1.0916       H63-C30=1.0919       H64-C30=1.0869       H65-C31=1.0963       H66-C32=1.0854       
H67-C32=1.0874       H68-C32=1.0867       H69-C33=1.0858       H70-C33=1.0865       H71-C33=1.0869       H72-N1=1.0146        
 C  H  Rav=1.0899 sigma=0.0065  Rmin=1.0775  Rmax=1.1064    37
 C  C  Rav=1.4523 sigma=0.0691  Rmin=1.3578  Rmax=1.5590    22
 N  H  Rav=1.0146 sigma=0.0000  Rmin=1.0146  Rmax=1.0146     1
 N  C  Rav=1.3624 sigma=0.0862  Rmin=1.2471  Rmax=1.4457     4
 O  C  Rav=1.3772 sigma=0.0318  Rmin=1.3397  Rmax=1.4096     8

 selected bond angles (degree)
 --------------------
H72-N1-C2=118.23               C3-C2-N1=124.61                H47-C2-N1=123.56               H47-C2-C3=111.78               
C4-C3-C2=109.71                C14-C3-C2=105.71               C14-C3-C4=110.28               C31-C3-C2=113.01               
C31-C3-C4=108.27               C31-C3-C14=109.84              C5-C4-C3=119.90                C13-C4-C3=121.68               
C13-C4-C5=118.41               C6-C5-C4=121.50                H34-C5-C4=119.41               H34-C5-C6=119.09               
O7-C6-C5=125.39                C9-C6-C5=119.49                C9-C6-O7=115.12                C8-O7-C6=119.56                
H35-C8-O7=111.50               H36-C8-O7=105.48               H36-C8-H35=109.31              H37-C8-O7=111.62               
H37-C8-H35=109.62              H37-C8-H36=109.19              O10-C9-C6=115.52               C12-C9-C6=118.67               
C12-C9-O10=125.81              C11-O10-C9=119.16              

 selected dihedral angles (degree)
 ---------------------------------
C3-C2-N1-H72=182.82           H47-C2-N1-H72=  0.04          C4-C3-C2-N1=248.39            C4-C3-C2-H47= 70.88           
C14-C3-C2-N1=129.48           C14-C3-C2-H47=311.98          C31-C3-C2-N1=  9.31           C31-C3-C2-H47=191.81          
C5-C4-C3-C2=190.86            C5-C4-C3-C14=306.91           C5-C4-C3-C31= 67.12           C13-C4-C3-C2= 11.76           
C13-C4-C3-C14=127.81          C13-C4-C3-C31=248.01          C6-C5-C4-C3=180.31            C6-C5-C4-C13=359.44           
H34-C5-C4-C3=359.47           H34-C5-C4-C13=178.60          O7-C6-C5-C4=180.14            O7-C6-C5-H34=  0.98           
C9-C6-C5-C4=359.85            C9-C6-C5-H34=180.68           C8-O7-C6-C5=355.30            C8-O7-C6-C9=175.59            
H35-C8-O7-C6=301.47           H36-C8-O7-C6=182.91           H37-C8-O7-C6= 64.45           O10-C9-C6-C5=180.70           
O10-C9-C6-O7=  0.43           C12-C9-C6-C5=  0.75           C12-C9-C6-O7=180.48           C11-O10-C9-C6=184.03          
C11-O10-C9-C12=  3.98         

 CMA Distance (Angstroems)
 ---------------------------
R(CMA):  3.2277
           -------------------------------------------------
          |                Final Singlepoint                |
           -------------------------------------------------

          ...................................................
          :                      SETUP                      :
          :.................................................:
          :  # basis functions                 171          :
          :  # atomic orbitals                 171          :
          :  # shells                          105          :
          :  # electrons                       180          :
          :  max. iterations                   250          :
          :  Hamiltonian                  GFN2-xTB          :
          :  restarted?                      false          :
          :  GBSA solvation                  false          :
          :  PC potential                    false          :
          :  electronic temp.         5000.0000000     K    :
          :  accuracy                    1.0000000          :
          :  -> integral cutoff          0.2500000E+02      :
          :  -> integral neglect         0.1000000E-07      :
          :  -> SCF convergence          0.1000000E-05 Eh   :
          :  -> wf. convergence          0.1000000E-03 e    :
          :  Broyden damping             0.4000000          :
          ...................................................

 iter      E             dE          RMSdq      gap      omega  full diag
   1   -100.6198518 -0.100620E+03  0.399E-06    0.39       0.0  T
   2   -100.6198518  0.149214E-11  0.451E-06    0.39    2613.1  T
   3   -100.6198518 -0.105160E-11  0.289E-06    0.39    4075.0  T

   *** convergence criteria satisfied after 3 iterations ***

         #    Occupation            Energy/Eh            Energy/eV
      -------------------------------------------------------------
         1        2.0000           -0.8169215             -22.2296
       ...           ...                  ...                  ...
        84        1.9915           -0.5140024             -13.9867
        85        1.9765           -0.4978089             -13.5461
        86        1.9725           -0.4952509             -13.4765
        87        1.8999           -0.4742197             -12.9042
        88        1.8433           -0.4666364             -12.6978
        89        1.7874           -0.4613254             -12.5533
        90        1.3688           -0.4398660             -11.9694 (HOMO)
        91        0.9357           -0.4255725             -11.5804 (LUMO)
        92        0.2435           -0.3963250             -10.7846
        93        0.0088           -0.3416973              -9.2981
        94        0.0029           -0.3242527              -8.8234
        95        0.0026           -0.3224612              -8.7746
       ...           ...                  ...                  ...
       171                          0.5635120              15.3339
      -------------------------------------------------------------
                  HL-Gap            0.0142934 Eh            0.3889 eV
             Fermi-level           -0.4276103 Eh          -11.6359 eV

 SCC (total)                   0 d,  0 h,  0 min,  0.119 sec
 SCC setup                      ...        0 min,  0.001 sec (  0.731%)
 Dispersion                     ...        0 min,  0.002 sec (  1.332%)
 classical contributions        ...        0 min,  0.000 sec (  0.365%)
 integral evaluation            ...        0 min,  0.018 sec ( 15.022%)
 iterations                     ...        0 min,  0.026 sec ( 22.085%)
 molecular gradient             ...        0 min,  0.071 sec ( 59.924%)
 printout                       ...        0 min,  0.001 sec (  0.528%)

         :::::::::::::::::::::::::::::::::::::::::::::::::::::
         ::                     SUMMARY                     ::
         :::::::::::::::::::::::::::::::::::::::::::::::::::::
         :: total energy             -99.250023790461 Eh    ::
         :: gradient norm              0.001541998939 Eh/a0 ::
         :: HOMO-LUMO gap              0.388944470932 eV    ::
         ::.................................................::
         :: SCC energy              -100.619851799744 Eh    ::
         :: -> isotropic ES            0.117355283412 Eh    ::
         :: -> anisotropic ES         -0.001464778308 Eh    ::
         :: -> anisotropic XC          0.043993412994 Eh    ::
         :: -> dispersion             -0.078718622360 Eh    ::
         :: repulsion energy           1.368419105644 Eh    ::
         :: add. restraining           0.000000000000 Eh    ::
         :: total charge               1.000000000052 e     ::
         :::::::::::::::::::::::::::::::::::::::::::::::::::::

           -------------------------------------------------
          |                Property Printout                |
           -------------------------------------------------

    * Orbital Energies and Occupations

         #    Occupation            Energy/Eh            Energy/eV
      -------------------------------------------------------------
         1        2.0000           -0.8169215             -22.2296
       ...           ...                  ...                  ...
        78        1.9977           -0.5346623             -14.5489
        79        1.9976           -0.5340959             -14.5335
        80        1.9971           -0.5312967             -14.4573
        81        1.9965           -0.5280287             -14.3684
        82        1.9939           -0.5193755             -14.1329
        83        1.9927           -0.5163961             -14.0519
        84        1.9915           -0.5140024             -13.9867
        85        1.9765           -0.4978089             -13.5461
        86        1.9725           -0.4952509             -13.4765
        87        1.8999           -0.4742197             -12.9042
        88        1.8433           -0.4666364             -12.6978
        89        1.7874           -0.4613254             -12.5533
        90        1.3688           -0.4398660             -11.9694 (HOMO)
        91        0.9357           -0.4255725             -11.5804 (LUMO)
        92        0.2435           -0.3963250             -10.7846
        93        0.0088           -0.3416973              -9.2981
        94        0.0029           -0.3242527              -8.8234
        95        0.0026           -0.3224612              -8.7746
        96        0.0024           -0.3210901              -8.7373
        97        0.0011           -0.3087689              -8.4020
        98        0.0000           -0.1987315              -5.4078
        99        0.0000           -0.1911597              -5.2017
       100                         -0.1360096              -3.7010
       101                         -0.0728794              -1.9832
       ...                                ...                  ...
       171                          0.5635120              15.3339
      -------------------------------------------------------------
                  HL-Gap            0.0142934 Eh            0.3889 eV
             Fermi-level           -0.4276103 Eh          -11.6359 eV

     #   Z          covCN         q      C6AA      α(0)
     1   7 N        1.774    -0.254    27.442     7.757
     2   6 C        2.827     0.103    25.721     8.310
     3   6 C        3.907     0.007    20.407     6.421
     4   6 C        2.973     0.004    27.936     8.670
     5   6 C        2.920    -0.080    30.002     8.982
     6   6 C        2.861     0.130    25.152     8.221
     7   8 O        1.706    -0.226    17.756     5.689
     8   6 C        3.644     0.026    20.474     6.504
     9   6 C        2.864     0.129    25.172     8.224
    10   8 O        1.706    -0.225    17.730     5.685
    11   6 C        3.645     0.025    20.481     6.504
    12   6 C        2.913    -0.074    29.845     8.958
    13   6 C        2.921    -0.052    29.289     8.875
    14   6 C        3.812    -0.065    21.734     6.636
    15   6 C        3.802    -0.070    21.838     6.653
    16   6 C        2.848     0.023    27.476     8.591
    17   7 N        2.729     0.035    20.638     6.747
    18   6 C        3.760    -0.028    21.123     6.552
    19   6 C        3.807    -0.063    21.700     6.631
    20   6 C        2.964     0.019    27.591     8.616
    21   6 C        2.027    -0.050    32.363     9.188
    22   6 C        2.908    -0.054    29.330     8.880
    23   6 C        2.876     0.140    24.956     8.189
    24   8 O        1.706    -0.207    17.446     5.639
    25   6 C        3.645     0.022    20.532     6.512
    26   6 C        2.859     0.130    25.149     8.220
    27   8 O        1.706    -0.220    17.651     5.672
    28   6 C        3.644     0.025    20.499     6.508
    29   6 C        2.932    -0.074    29.859     8.962
    30   6 C        3.700    -0.075    22.103     6.723
    31   6 C        3.853    -0.007    20.661     6.465
    32   6 C        3.756    -0.119    22.834     6.813
    33   6 C        3.755    -0.120    22.855     6.817
    34   1 H        0.926     0.054     2.267     2.354
    35   1 H        0.924     0.056     2.244     2.342
    36   1 H        0.925     0.083     1.944     2.180
    37   1 H        0.924     0.049     2.333     2.389
    38   1 H        0.924     0.058     2.227     2.334
    39   1 H        0.925     0.083     1.945     2.181
    40   1 H        0.924     0.050     2.323     2.384
    41   1 H        0.926     0.055     2.259     2.350
    42   1 H        0.926     0.043     2.408     2.427
    43   1 H        0.925     0.063     2.162     2.299
    44   1 H        0.924     0.062     2.179     2.308
    45   1 H        0.925     0.066     2.126     2.280
    46   1 H        0.924     0.090     1.882     2.145
    47   1 H        0.922     0.019     2.744     2.591
    48   1 H        0.925     0.112     1.681     2.027
    49   1 H        0.924     0.067     2.122     2.278
    50   1 H        0.922     0.110     1.695     2.036
    51   1 H        0.924     0.065     2.144     2.290
    52   1 H        0.924     0.053     2.280     2.361
    53   1 H        0.000    -0.317    64.137    14.644
    54   1 H        0.926     0.082     1.959     2.189
    55   1 H        0.924     0.062     2.174     2.306
    56   1 H        0.924     0.061     2.182     2.310
    57   1 H        0.925     0.087     1.905     2.158
    58   1 H        0.925     0.086     1.922     2.168
    59   1 H        0.924     0.053     2.279     2.361
    60   1 H        0.924     0.056     2.252     2.347
    61   1 H        0.926     0.063     2.169     2.303
    62   1 H        0.924     0.081     1.974     2.197
    63   1 H        0.924     0.081     1.967     2.193
    64   1 H        0.925     0.084     1.943     2.180
    65   1 H        0.924     0.039     2.456     2.451
    66   1 H        0.925     0.070     2.083     2.257
    67   1 H        0.925     0.036     2.501     2.473
    68   1 H        0.925     0.055     2.264     2.353
    69   1 H        0.925     0.066     2.130     2.282
    70   1 H        0.925     0.038     2.473     2.459
    71   1 H        0.925     0.056     2.241     2.341
    72   1 H        0.860     0.169     1.281     1.773

 Mol. C6AA /au·bohr⁶  :      49842.360866
 Mol. C8AA /au·bohr⁸  :    1121764.684491
 Mol. α(0) /au        :        345.119138


Wiberg/Mayer (AO) data.
largest (>0.10) Wiberg bond orders for each atom

 ---------------------------------------------------------------------------
     #   Z sym  total        # sym  WBO       # sym  WBO       # sym  WBO
 ---------------------------------------------------------------------------
     1   7 N    3.041 --     2 C    1.965    72 H    0.936
     2   6 C    3.934 --     1 N    1.965     3 C    0.991    47 H    0.898
     3   6 C    3.971 --     2 C    0.991     4 C    0.972    14 C    0.957
                            31 C    0.939
     4   6 C    3.943 --    13 C    1.408     5 C    1.369     3 C    0.972
     5   6 C    3.959 --     6 C    1.398     4 C    1.369    34 H    0.958
     6   6 C    3.900 --     5 C    1.398     9 C    1.217     7 O    1.104
     7   8 O    2.254 --     6 C    1.104     8 C    0.977
     8   6 C    3.929 --     7 O    0.977    36 H    0.976    35 H    0.973
                            37 H    0.973
     9   6 C    3.895 --    12 C    1.388     6 C    1.217    10 O    1.106
    10   8 O    2.252 --     9 C    1.106    11 C    0.976
    11   6 C    3.929 --    39 H    0.976    10 O    0.976    40 H    0.973
                            38 H    0.973
    12   6 C    3.959 --    13 C    1.405     9 C    1.388    41 H    0.963
    13   6 C    3.948 --     4 C    1.408    12 C    1.405    42 H    0.962
    14   6 C    3.973 --    15 C    0.977    44 H    0.971    43 H    0.968
                             3 C    0.957
    15   6 C    3.986 --    16 C    1.063    14 C    0.977    45 H    0.960
                            46 H    0.924
    16   6 C    3.678 --    17 N    1.491    15 C    1.063    48 H    0.924
    17   7 N    3.563 --    16 C    1.491    30 C    0.992    18 C    0.981
    18   6 C    3.895 --    17 N    0.981    19 C    0.968    49 H    0.962
                            50 H    0.907
    19   6 C    3.970 --    20 C    1.002    52 H    0.973    18 C    0.968
                            51 H    0.965
    20   6 C    3.894 --    21 C    1.414    29 C    1.333    19 C    1.002
    21   6 C    3.071 --    22 C    1.475    20 C    1.414
    22   6 C    3.926 --    21 C    1.475    23 C    1.314    54 H    0.943
    23   6 C    3.832 --    22 C    1.314    26 C    1.217    24 O    1.123
    24   8 O    2.259 --    23 C    1.123    25 C    0.970
    25   6 C    3.919 --    57 H    0.975    56 H    0.971    24 O    0.970
                            55 H    0.970
    26   6 C    3.884 --    29 C    1.392    23 C    1.217    27 O    1.105
    27   8 O    2.241 --    26 C    1.105    28 C    0.976
    28   6 C    3.927 --    27 O    0.976    58 H    0.976    59 H    0.972
                            60 H    0.972
    29   6 C    3.900 --    26 C    1.392    20 C    1.333    61 H    0.951
    30   6 C    3.951 --    17 N    0.992    64 H    0.978    62 H    0.965
                            63 H    0.960
    31   6 C    3.967 --    33 C    1.009    32 C    1.008    65 H    0.958
                             3 C    0.939
    32   6 C    3.973 --    31 C    1.008    67 H    0.981    68 H    0.980
                            66 H    0.972
    33   6 C    3.976 --    31 C    1.009    70 H    0.982    71 H    0.979
                            69 H    0.973
    34   1 H    0.996 --     5 C    0.958
    35   1 H    0.992 --     8 C    0.973
    36   1 H    0.992 --     8 C    0.976
    37   1 H    0.993 --     8 C    0.973
    38   1 H    0.992 --    11 C    0.973
    39   1 H    0.992 --    11 C    0.976
    40   1 H    0.992 --    11 C    0.973
    41   1 H    0.995 --    12 C    0.963
    42   1 H    0.997 --    13 C    0.962
    43   1 H    0.994 --    14 C    0.968
    44   1 H    0.995 --    14 C    0.971
    45   1 H    0.994 --    15 C    0.960
    46   1 H    0.976 --    15 C    0.924
    47   1 H    0.979 --     2 C    0.898
    48   1 H    0.987 --    16 C    0.924
    49   1 H    0.990 --    18 C    0.962
    50   1 H    0.988 --    18 C    0.907
    51   1 H    0.992 --    19 C    0.965
    52   1 H    0.994 --    19 C    0.973
    53   1 H    0.105
    54   1 H    0.975 --    22 C    0.943
    55   1 H    0.989 --    25 C    0.970
    56   1 H    0.989 --    25 C    0.971
    57   1 H    0.991 --    25 C    0.975
    58   1 H    0.992 --    28 C    0.976
    59   1 H    0.991 --    28 C    0.972
    60   1 H    0.991 --    28 C    0.972
    61   1 H    0.983 --    29 C    0.951
    62   1 H    0.986 --    30 C    0.965
    63   1 H    0.989 --    30 C    0.960
    64   1 H    0.993 --    30 C    0.978
    65   1 H    0.989 --    31 C    0.958
    66   1 H    0.989 --    32 C    0.972
    67   1 H    0.996 --    32 C    0.981
    68   1 H    0.993 --    32 C    0.980
    69   1 H    0.990 --    33 C    0.973
    70   1 H    0.996 --    33 C    0.982
    71   1 H    0.992 --    33 C    0.979
    72   1 H    0.964 --     1 N    0.936
 ---------------------------------------------------------------------------

Topologies differ in total number of bonds
Writing topology from bond orders to xtbtopo.mol

molecular dipole:
                 x           y           z       tot (Debye)
 q only:        0.255      -1.285      -0.927
   full:        0.585      -1.449      -1.024       4.747
molecular quadrupole (traceless):
                xx          xy          yy          xz          yz          zz
 q only:       62.740      -6.626     -22.784       7.044      -9.580     -39.956
  q+dip:       58.411      -3.003     -22.277       9.918     -12.318     -36.134
   full:       57.804      -3.948     -22.917       7.486     -12.611     -34.887

           -------------------------------------------------
          |                Geometry Summary                 |
           -------------------------------------------------

      molecular mass/u    :      455.6105846
   center of mass at/Å    :        0.0267779      -0.0073314      -0.0153876
  moments of inertia/u·Å² :        0.2470280E+04   0.1060843E+05   0.1195128E+05
rotational constants/cm⁻¹ :        0.6824180E-02   0.1589078E-02   0.1410529E-02

 * 65 selected distances

     #   Z          #   Z                                           value/Å
     1   7 N        2   6 C                                       1.2470680
     4   6 C        5   6 C                                       1.3965496
     5   6 C        6   6 C                                       1.3857727
     6   6 C        7   8 O                                       1.3474614
     7   8 O        8   6 C                                       1.4086164
     6   6 C        9   6 C                                       1.4225610
     9   6 C       10   8 O                                       1.3465250
    10   8 O       11   6 C                                       1.4089590
     9   6 C       12   6 C                                       1.3865151
     4   6 C       13   6 C                                       1.3870624
    12   6 C       13   6 C                                       1.3890690
    14   6 C       15   6 C                                       1.5405967 (max)
    15   6 C       16   6 C                                       1.4771270
    16   6 C       17   7 N                                       1.3115103
    17   7 N       18   6 C                                       1.4452995
    18   6 C       19   6 C                                       1.5366883
    20   6 C       21   6 C                                       1.3666175
    21   6 C       22   6 C                                       1.3578300
    22   6 C       23   6 C                                       1.3999807
    23   6 C       24   8 O                                       1.3396705
    24   8 O       25   6 C                                       1.4095968
    23   6 C       26   6 C                                       1.4251831
    26   6 C       27   8 O                                       1.3484837
    27   8 O       28   6 C                                       1.4084429
    20   6 C       29   6 C                                       1.4000694
    26   6 C       29   6 C                                       1.3881699
    17   7 N       30   6 C                                       1.4457377
    31   6 C       32   6 C                                       1.5267794
    31   6 C       33   6 C                                       1.5256236
     5   6 C       34   1 H                                       1.0774933 (min)
     8   6 C       35   1 H                                       1.0938960
     8   6 C       36   1 H                                       1.0881963
     8   6 C       37   1 H                                       1.0948591
    11   6 C       38   1 H                                       1.0936997
    11   6 C       39   1 H                                       1.0881231
    11   6 C       40   1 H                                       1.0947162
    12   6 C       41   1 H                                       1.0777988
    13   6 C       42   1 H                                       1.0787448
    14   6 C       43   1 H                                       1.0897138
    14   6 C       44   1 H                                       1.0905498
    15   6 C       45   1 H                                       1.0892013
    15   6 C       46   1 H                                       1.0971865
    16   6 C       48   1 H                                       1.0881380
    18   6 C       49   1 H                                       1.0926218
    18   6 C       50   1 H                                       1.1064224
    19   6 C       51   1 H                                       1.0922074
    19   6 C       52   1 H                                       1.0908343
    22   6 C       54   1 H                                       1.0774963
    25   6 C       55   1 H                                       1.0940920
    25   6 C       56   1 H                                       1.0941724
    25   6 C       57   1 H                                       1.0885601
    28   6 C       58   1 H                                       1.0882785
    28   6 C       59   1 H                                       1.0944875
    28   6 C       60   1 H                                       1.0943022
    29   6 C       61   1 H                                       1.0790266
    30   6 C       62   1 H                                       1.0916261
    30   6 C       63   1 H                                       1.0918597
    30   6 C       64   1 H                                       1.0868845
    31   6 C       65   1 H                                       1.0963303
    32   6 C       66   1 H                                       1.0853942
    32   6 C       67   1 H                                       1.0874237
    32   6 C       68   1 H                                       1.0867064
    33   6 C       69   1 H                                       1.0858399
    33   6 C       70   1 H                                       1.0865338
    33   6 C       71   1 H                                       1.0869026

 * 4 distinct bonds (by element types)

   Z      Z             #   av. dist./Å        max./Å        min./Å
   1 H    6 C          36     1.0894533     1.1064224     1.0774933
   6 C    6 C          17     1.4301292     1.5405967     1.3578300
   6 C    7 N           4     1.3624039     1.4457377     1.2470680
   6 C    8 O           8     1.3772195     1.4095968     1.3396705


optimized geometry written to: xtbopt.xyz


           -------------------------------------------------
          | TOTAL ENERGY              -99.250023790461 Eh   |
          | GRADIENT NORM               0.001541998939 Eh/α |
          | HOMO-LUMO GAP               0.388944470932 eV   |
           -------------------------------------------------

------------------------------------------------------------------------
 * finished run on 2024/04/06 at 11:14:17.407     
------------------------------------------------------------------------
 total:
 * wall-time:     0 d,  0 h,  0 min,  0.475 sec
 *  cpu-time:     0 d,  0 h,  0 min,  0.446 sec
 * ratio c/w:     0.938 speedup
 SCF:
 * wall-time:     0 d,  0 h,  0 min,  0.120 sec
 *  cpu-time:     0 d,  0 h,  0 min,  0.120 sec
 * ratio c/w:     1.000 speedup
 ANC optimizer:
 * wall-time:     0 d,  0 h,  0 min,  0.309 sec
 *  cpu-time:     0 d,  0 h,  0 min,  0.302 sec
 * ratio c/w:     0.976 speedup

