25
 energy: 0.000000000000 xtb: 6.6.1 (8d0f1dd)
C            3.23720163006194        1.16630919979326        0.08434469647475
N            2.29877817382611        0.07527477071623        0.03981603040599
C            2.58028210190900       -1.21425402444508        0.03006176031096
N            1.43813958087363       -1.93419271955128        0.00098261760884
C            0.39035688448383       -1.05887472636071       -0.00790371836672
C            0.93510056364412        0.21347819449412        0.01709077491437
C            0.09450143893243        1.40504303904423       -0.00410947031874
O            0.49712751527797        2.54126714362870       -0.00342325688240
N           -1.25076640035757        1.06271879480407       -0.03085478223738
C           -2.21907211982101        2.15522099834493       -0.05001256985998
C           -1.81739487048744       -0.20012725993278       -0.04692818574614
O           -2.99983886758376       -0.37846417018721       -0.07008878229737
N           -0.92618586207120       -1.30210215599479       -0.03682761578324
C           -1.46982264913417       -2.64643102187190       -0.06029820460571
H            3.71247264356769        1.21471455160235        1.06488849150277
H            4.00791497605742        1.03430808813993       -0.67357694370751
H            2.69910007168542        2.09770118228144       -0.09130154882931
H            3.56654120610678       -1.63682992603973        0.04233140067262
H           -1.67107961066214        3.09322851271934       -0.02552706933167
H           -2.82428953597071        2.09428624779827       -0.95318082946668
H           -2.87644029173232        2.07745725625962        0.81450067533302
H           -1.17061996399332       -3.19584890659852        0.83242232437030
H           -1.14560257411436       -3.17511610292205       -0.95688275822323
H           -2.55549792440841       -2.55659984320617       -0.07459039797972
H            1.38130855184625       -2.94313852034425       -0.01389874181052
25
 energy: -2.316018241663 xtb: 6.6.1 (8d0f1dd)
C            3.22522125521833        1.17907634963330        0.07251192056088
N            2.29736290474267        0.09100582296293        0.03201454944174
C            2.59644565453212       -1.23397820968111        0.03183693413160
N            1.42957857716219       -1.94917079779353        0.00714336431981
C            0.39263372701935       -1.07072203989686       -0.00696543130429
C            0.92045408944267        0.20997357070664        0.01160302512327
C            0.09392631285395        1.38255259635756       -0.00651343596412
O            0.48913752667376        2.54788023076309       -0.01028470698291
N           -1.26608721628860        1.04752609097440       -0.03274944985269
C           -2.17993014909859        2.19494896273942       -0.03033990558866
C           -1.82887404536026       -0.21396147532260       -0.05775323080680
O           -3.02420124746042       -0.40581170700497       -0.07970240500281
N           -0.93706593540192       -1.31868770781994       -0.03708006456991
C           -1.46025300516393       -2.66990738295407       -0.05145023481029
H            3.70010454608512        1.23632236825754        1.05515960195096
H            3.99517252832914        1.04180475143519       -0.68775505947272
H            2.67304688385914        2.09876298432229       -0.11261672446585
H            3.57745140704946       -1.65157704623937        0.04596128927920
H           -1.65843461346761        3.18683514058119        0.06036198413018
H           -2.72767811037305        2.22402157142076       -0.94016314801270
H           -2.94557334420988        2.03438286734623        0.73231703083306
H           -1.15515062199094       -3.21343434653484        0.84560764254033
H           -1.12030089934515       -3.20704182358262       -0.93987575407626
H           -2.54652356475065       -2.59827443283338       -0.07225812543228
H            1.37175200787933       -2.95349773566530       -0.00197576982145
25
 energy: 5.892355153308 xtb: 6.6.1 (8d0f1dd)
C            3.20348977598744        1.19059283350720        0.05156589973750
N            2.28907984147610        0.10263165256791        0.01794546702671
C            2.60858653106874       -1.25485740821791        0.03510151687812
N            1.41766452583781       -1.96364365561514        0.01658364926471
C            0.39284586654069       -1.08819982616230       -0.00394522874902
C            0.89935951144414        0.20113569009298        0.00235091683898
C            0.09205886445414        1.34756147973669       -0.01420501481750
O            0.46982641899142        2.53559485617105       -0.02788226597637
N           -1.29038913063942        1.03318238330992       -0.03014138718764
C           -2.13393347881368        2.24824812504051        0.00226571861933
C           -1.84239623904944       -0.22909805248848       -0.06219918776088
O           -3.04356564036318       -0.44515415119224       -0.09128646300273
N           -0.95113316853407       -1.33776343845224       -0.03454609171204
C           -1.44381138004475       -2.70146277111467       -0.03735955959198
H            3.67825642400973        1.26844330671356        1.03534990605615
H            3.97558040358835        1.05272613808019       -0.70855258328584
H            2.63528618840405        2.09781692021712       -0.14673668105396
H            3.58536773140999       -1.66196126209150        0.05131821163538
H           -1.63411375587933        3.29772708277074        0.22195405980249
H           -2.56276084778932        2.44841410892162       -0.95521566644349
H           -3.05615099950949        1.96259596260346        0.60278396502617
H           -1.13139121313668       -3.23534980176604        0.86670943830910
H           -1.08072835532251       -3.25142621491812       -0.91296516910991
H           -2.53141378701195       -2.66325046530107       -0.06843112320104
H            1.36660058081746       -2.96547489024133        0.01657156884502
25
 energy: 18.302363332120 xtb: 6.6.1 (8d0f1dd)
C            3.17875901816909        1.19783433594490        0.03187697628992
N            2.27743297053344        0.10292576974250        0.00565991807154
C            2.61061299221708       -1.26991210115115        0.03795563745913
N            1.41042830596306       -1.97609633498596        0.02447119655250
C            0.38968407072072       -1.10741347113193       -0.00100082087462
C            0.88171631713679        0.18799736880479       -0.00643579196936
C            0.08337190288155        1.32217527563298       -0.02594514954061
O            0.44709050172073        2.51920874089975       -0.04949744236715
N           -1.31719194240680        1.02686589203385       -0.02118996207787
C           -2.10835157701813        2.28884409164357        0.03605884616979
C           -1.85639921771333       -0.24255852639853       -0.05760522641168
O           -3.05582287258604       -0.48460708373197       -0.09796228857753
N           -0.96166758881610       -1.35446355914811       -0.03125851734781
C           -1.42637190840874       -2.73083997653271       -0.02618862298407
H            3.65146499954740        1.29807151041021        1.01608197042097
H            3.95487610557398        1.06381087244569       -0.72551510455269
H            2.59798934115189        2.09577404443033       -0.17858079227532
H            3.58893312390495       -1.66630227052431        0.05580667467560
H           -1.62038384384246        3.37494749239086        0.37265976115303
H           -2.38503178048562        2.66616763900806       -0.95834836474078
H           -3.13682287957852        1.92566752864725        0.46665745910936
H           -1.10866836500273       -3.25388428869591        0.88482925794549
H           -1.03980368994689       -3.28836290015005       -0.88994111318021
H           -2.51472631344138       -2.72818145128481       -0.06889306293053
H            1.37109699766228       -2.97863999612742        0.03333845813012
25
 energy: 26.954585827266 xtb: 6.6.1 (8d0f1dd)
C            3.15567405615700        1.19990652943528        0.02000177493876
N            2.26552105995185        0.09387382773259       -0.00132573356007
C            2.60407075445540       -1.27778278210767        0.04009014056013
N            1.40740642659938       -1.98469518089376        0.02888659006366
C            0.38377170718274       -1.12378644824421        0.00060362498326
C            0.87023938198293        0.17391599042626       -0.01284923405482
C            0.07225740147851        1.30925206400348       -0.03932734808906
O            0.42686242987064        2.50222392095762       -0.07161777059310
N           -1.33922585392822        1.03067021531156       -0.00770803136667
C           -2.10009152667888        2.31678750064645        0.05877064545822
C           -1.86828841358153       -0.25012616007767       -0.04564950824865
O           -3.05985430671202       -0.51463829751643       -0.10037920868613
N           -0.96827281339693       -1.36542191733201       -0.02926432914041
C           -1.41180637964494       -2.75277815048309       -0.02310495507042
H            3.62364888421558        1.31883479633749        1.00447395249276
H            3.93690095013027        1.07269501386649       -0.73281281477777
H            2.56628342414575        2.09162093974119       -0.19952688701518
H            3.58746129999038       -1.66549280046887        0.05924018544854
H           -1.63020385334422        3.43079759537641        0.45816317109185
H           -2.24022016828519        2.79249307263415       -0.90616106323757
H           -3.15477813730451        1.94119391121457        0.34508772555640
H           -1.09267013083041       -3.26760890656047        0.89301273067414
H           -1.00412508635819       -3.31106062261514       -0.87782569629986
H           -2.49942005407072       -2.78203136979790       -0.07783425529849
H            1.38107361591159       -2.98981413941451        0.04409019031773
25
 energy: 29.756775572313 xtb: 6.6.1 (8d0f1dd)
C            3.14364589731493        1.19759920108850        0.01056327123885
N            2.25857983187895        0.08213403791078       -0.00601102185464
C            2.59289121185342       -1.27318531233026        0.03635528407357
N            1.41077419037191       -1.98609153482109        0.02971297257513
C            0.37725879096486       -1.13138103841527        0.00213295431255
C            0.86791500584170        0.16535566675988       -0.01306905247955
C            0.06024815485647        1.31072978125076       -0.03821045078503
O            0.41076758309355        2.49392776490012       -0.08522837462488
N           -1.34990304921903        1.03559971306457        0.01396167679687
C           -2.11909135891632        2.31329486356500        0.06819368848309
C           -1.87676958718501       -0.25409458863983       -0.03431586712279
O           -3.05907910787155       -0.52937624643395       -0.09477642167334
N           -0.96873103507380       -1.36939870650640       -0.02551235178087
C           -1.40744339735026       -2.75997664671766       -0.01960929281907
H            3.60769340551578        1.32301388833832        0.99411437450609
H            3.92661395064523        1.07327449277508       -0.73962139948043
H            2.55270699332825        2.08708619690654       -0.21226052865048
H            3.58202121971579       -1.65694163720180        0.05327454493140
H           -1.66560295363429        3.44329757665509        0.53454788589249
H           -2.09197264657809        2.84289988497934       -0.86226398710934
H           -3.16276941478215        1.95694392802886        0.22032578676457
H           -1.09001616880896       -3.26934119188421        0.89921949010298
H           -0.99065327321188       -3.31150312925493       -0.87150050461339
H           -2.49135321938663       -2.80151244000177       -0.08040629998905
H            1.39448364457337       -2.99332592184387        0.04741751945254
25
 energy: 32.508363755407 xtb: 6.6.1 (8d0f1dd)
C            3.14245956065307        1.19522758915475        0.00032036494332
N            2.25640478730987        0.07759661390543       -0.01257607441977
C            2.58485521941883       -1.26161416255120        0.02666753893128
N            1.41499371362403       -1.98244457757947        0.02600507443020
C            0.37275220681859       -1.13025738070109        0.00631040236267
C            0.86879675509270        0.16508498583630       -0.00805743250150
C            0.05278436108739        1.31394790091622       -0.01969448873707
O            0.40199798810035        2.49351310772097       -0.08737203851704
N           -1.34877268891832        1.03159290917779        0.05397672341741
C           -2.13733982334544        2.29487455322283        0.07057368619997
C           -1.88171275737748       -0.25779698442788       -0.01165690583074
O           -3.06001303348228       -0.53187527330604       -0.07781694277646
N           -0.96699334337209       -1.37006490245965       -0.01550646541058
C           -1.41111857930721       -2.75840395231531       -0.01444072158713
H            3.60677264340325        1.31714186140036        0.98257513307094
H            3.92335450335108        1.06806478837852       -0.75070801905490
H            2.55359229219815        2.08496064416012       -0.22142960359111
H            3.57601441935466       -1.64597524060687        0.03764100673542
H           -1.71484522630006        3.43730450881145        0.60802392836772
H           -1.92616883078754        2.86146000038845       -0.84292022936145
H           -3.21564474234038        1.94309431224909        0.07565977045412
H           -1.09392788148866       -3.26759177029799        0.90324739883029
H           -0.99524984907872       -3.30248928201383       -0.86887068988406
H           -2.49314192893489       -2.79654638521034       -0.07424564332047
H            1.40236490225737       -2.98977526168084        0.04132812339620
25
 energy: 33.119981496562 xtb: 6.6.1 (8d0f1dd)
C            3.14398188969057        1.19387248236231        0.00095087599800
N            2.25453283783441        0.07602787893767       -0.01387187785106
C            2.57716186398725       -1.24742325978545        0.02283781748704
N            1.41768784465583       -1.97657248258561        0.02295103582758
C            0.36810851718628       -1.12408994369960        0.00804998530711
C            0.86983098076329        0.16885551204726       -0.00536329945293
C            0.04651089021512        1.31802980346414       -0.01101879349946
O            0.39927744031190        2.49399231362439       -0.08824648471731
N           -1.34218989474271        1.02531044562829        0.07905456702815
C           -2.14932212297017        2.27896047712727        0.05484519371618
C           -1.88475435059352       -0.25960951085115        0.00261458170927
O           -3.06179882975292       -0.52381945390021       -0.06779875469438
N           -0.96535038031865       -1.36884025267157       -0.01082705191293
C           -1.41607269276332       -2.75513256240472       -0.01698282799216
H            3.60778682677523        1.30989836640393        0.98369343045664
H            3.92460935663346        1.06401951750203       -0.74943708199995
H            2.55808452545546        2.08531015549183       -0.21909192981356
H            3.56841379953194       -1.63696690180482        0.03131087245045
H           -1.76330826277071        3.42133688023074        0.59978894721926
H           -1.86765896978218        2.81864513766682       -0.78239279524062
H           -3.17505896826036        1.95867066117807        0.00509584808565
H           -1.09959000260872       -3.26732486247561        0.89816584625848
H           -1.00233144459569       -3.29472436518626       -0.87465575028524
H           -2.49899954626624       -2.78580088646723       -0.07630437177894
H            1.40266336032070       -2.98359654766075        0.03366591384201
25
 energy: 32.583782090903 xtb: 6.6.1 (8d0f1dd)
C            3.14477530309079        1.19663229345831       -0.00171822559914
N            2.25429440208157        0.08157264122101       -0.01690484054671
C            2.58125917221872       -1.24914613612057        0.02033209860209
N            1.41677011207234       -1.97772432171725        0.02223573436190
C            0.36979835173248       -1.12412374348516        0.00947476455165
C            0.86684530152655        0.17067422024832       -0.00447376841689
C            0.04300876458871        1.31439880643345       -0.00605537524807
O            0.39457713948320        2.49555280404240       -0.08471070493337
N           -1.34678755216875        1.01891313555254        0.09102278981314
C           -2.14806653599239        2.27928491247941        0.05634910015663
C           -1.88598490873667       -0.26369146866181        0.00627824623005
O           -3.06583649720738       -0.52875249700468       -0.06260921576955
N           -0.96627500984440       -1.37157851248093       -0.00774449716366
C           -1.41605521403352       -2.75742819213656       -0.01403844978868
H            3.61132065562636        1.31104387129948        0.98079809657601
H            3.92438980167324        1.06536651237029       -0.75352643782363
H            2.55909405594504        2.08861035171448       -0.22044293448832
H            3.57101520879775       -1.63934005677290        0.02660097993922
H           -1.77766351463188        3.42352138767665        0.61573686910197
H           -1.82124729336069        2.84581459835532       -0.79490331234590
H           -3.19204850352259        1.94749190064369       -0.02159558719875
H           -1.09864380432598       -3.27206892902718        0.89996888138042
H           -1.00596637233872       -3.29820007962001       -0.87359506906147
H           -2.49999841321938       -2.78372838565091       -0.07108336816112
H            1.39964001848183       -2.98406651064564        0.03163812197941
25
 energy: 32.129802555585 xtb: 6.6.1 (8d0f1dd)
C            3.14677474814588        1.19765789033656       -0.00167601659654
N            2.25529933598071        0.08498067637720       -0.01771342243693
C            2.58532083601450       -1.25273264453527        0.02006153705002
N            1.41548936000636       -1.97897369760720        0.02223878397956
C            0.37225855571523       -1.12315550604740        0.00908810958904
C            0.86647584596185        0.17215907077282       -0.00455111182807
C            0.04423794559672        1.31367084660651       -0.00454126299052
O            0.39840775944221        2.49680936272166       -0.07747852921840
N           -1.34685645035172        1.01880116890089        0.09294658979158
C           -2.14366606609354        2.28496482380743        0.05309377050992
C           -1.88326332277740       -0.26239445043515        0.00270017116920
O           -3.06572292336991       -0.52596707697483       -0.06325252634880
N           -0.96626915256798       -1.37116226825056       -0.00806294342893
C           -1.41595048290278       -2.75657416686195       -0.01304122328185
H            3.61521002369042        1.31113177379559        0.98077138721464
H            3.92559182848611        1.06636461162577       -0.75471400004550
H            2.56111533830572        2.09031499188314       -0.21908753273428
H            3.57336379678683       -1.64441690930214        0.02557244386498
H           -1.78775678665483        3.42542457330688        0.61276434576083
H           -1.82607584226126        2.83933981977871       -0.79618495888674
H           -3.19811335441999        1.94048745090151       -0.02161550551311
H           -1.09778723311004       -3.27311565896215        0.90009983662751
H           -1.00961983727645       -3.29984026036518       -0.87369814162595
H           -2.50095318862272       -2.77979940450177       -0.06770776537747
H            1.39470393421233       -2.98494641479930        0.03102186090304
25
 energy: 30.485360469015 xtb: 6.6.1 (8d0f1dd)
C            3.14847137720401        1.19933771094109       -0.00160589035848
N            2.25516459129881        0.08938408457266       -0.01861881774671
C            2.58858842654543       -1.25388908197355        0.01934088956787
N            1.41460004337959       -1.97912620899083        0.02173620793476
C            0.37394676455599       -1.12160165819786        0.00865132449334
C            0.86511214353398        0.17415753026388       -0.00454778096820
C            0.04135501690939        1.31289513583876       -0.00190128938229
O            0.39800590202955        2.49820212775099       -0.06815414370303
N           -1.34923523609381        1.01562605778717        0.09772999036373
C           -2.14549740318252        2.28608412766905        0.04698529084454
C           -1.88211871574596       -0.26385353390415        0.00033023209527
O           -3.06727379802140       -0.52497790287281       -0.06382746931880
N           -0.96636790108657       -1.37185644004248       -0.00786607885457
C           -1.41634824303285       -2.75632273590472       -0.01189659310333
H            3.61917702730493        1.31080622557529        0.98062861474820
H            3.92619073529341        1.06749697034424       -0.75611522949035
H            2.56361856320417        2.09309031031894       -0.21727049830824
H            3.57501226489565       -1.64723102743489        0.02375760030283
H           -1.80429427833846        3.41391467881754        0.60880152566512
H           -1.81438481639620        2.84064548668750       -0.79953043494650
H           -3.18764058621800        1.94205482411674       -0.02177931070584
H           -1.09662287027241       -3.27441609919410        0.90009160875353
H           -1.01458085578228       -3.30140110922786       -0.87435533220027
H           -2.50255078798255       -2.77533042049250       -0.06310789876461
H            1.38988730393436       -2.98466045027630        0.02955737922927
25
 energy: 29.327987741116 xtb: 6.6.1 (8d0f1dd)
C            3.14893893742698        1.19909024646991       -0.00251436927931
N            2.25457519998071        0.08986139351232       -0.01928834986524
C            2.58838533089621       -1.25304096560121        0.01804727933680
N            1.41454284823361       -1.97842252624966        0.02057675997704
C            0.37386866042084       -1.12067558058438        0.00890914668338
C            0.86521670876955        0.17449153359637       -0.00386883177040
C            0.03998463793325        1.31377585639338        0.00172052129450
O            0.39831510936512        2.49834911875845       -0.06320753537975
N           -1.34903973248260        1.01557497563965        0.10444418591055
C           -2.14724193557653        2.28664037948643        0.04364646152409
C           -1.88133562775430       -0.26374665848169        0.00326063335236
O           -3.06682284839329       -0.52282770485201       -0.06283643073371
N           -0.96625327141912       -1.37136305107062       -0.00651353916852
C           -1.41689841897027       -2.75526684883231       -0.01149754085497
H            3.62047436661462        1.30966809389158        0.97932729197650
H            3.92587824625585        1.06718805442266       -0.75779572004095
H            2.56474383538656        2.09349302854748       -0.21717295240548
H            3.57461572734976       -1.64671890896872        0.02135575154962
H           -1.81694090229068        3.40186402735969        0.61092039422604
H           -1.79536125046376        2.83669766741147       -0.79587234584267
H           -3.19014408773317        1.94571777219549       -0.03611615844350
H           -1.09603695385862       -3.27376083345129        0.89964963213132
H           -1.01658272527115       -3.29980930460909       -0.87499450060133
H           -2.50339492970366       -2.77377625258374       -0.06105890161512
H            1.38872774322032       -2.98397491022841        0.02791301418604
25
 energy: 27.434486073631 xtb: 6.6.1 (8d0f1dd)
C            3.14835312725634        1.19860572486957       -0.00325295429069
N            2.25339592857384        0.08949449914044       -0.01932165917436
C            2.58730173087698       -1.25238197859720        0.01789483572195
N            1.41421504541160       -1.97768867136660        0.02015351541089
C            0.37309165797874       -1.12038127069830        0.00895675896029
C            0.86524365283778        0.17400761644440       -0.00410632062558
C            0.03919789574781        1.31472443213818        0.00224894137097
O            0.39920071979516        2.49784392749276       -0.06241791673647
N           -1.34897178732484        1.01722277950452        0.10556423665147
C           -2.14686782297883        2.28994548798317        0.04135616628056
C           -1.88091318794664       -0.26302563537530        0.00400968887027
O           -3.06612635145167       -0.52074808425314       -0.06369827501633
N           -0.96678478371504       -1.37033564573729       -0.00584215656583
C           -1.41713804532454       -2.75418640273077       -0.01107411395074
H            3.61985775850706        1.30939686133150        0.97828457946945
H            3.92498321306095        1.06675794160672       -0.75872382265720
H            2.56462117735115        2.09339328625723       -0.21771786990615
H            3.57398720785778       -1.64507239711214        0.02063539468318
H           -1.82662943873090        3.38213129099639        0.61644745843415
H           -1.78174651073029        2.83780107100073       -0.79237427701764
H           -3.18964488202457        1.94928586641483       -0.04285057356388
H           -1.09554047482601       -3.27202008981739        0.89996043348714
H           -1.01625924871405       -3.29787998198270       -0.87473356128151
H           -2.50336381084457       -2.77440987349408       -0.06056583241568
H            1.38875189729302       -2.98345215184379        0.02820122000898
25
 energy: 25.843168106513 xtb: 6.6.1 (8d0f1dd)
C            3.14762917078557        1.19822035241049       -0.00354535524829
N            2.25301884817914        0.08851343292621       -0.01888667730710
C            2.58632277305381       -1.25241577399916        0.01853604332012
N            1.41395101767866       -1.97752881269790        0.02046626246589
C            0.37236686823358       -1.12075836915006        0.00910688659901
C            0.86546605801993        0.17331228723778       -0.00445660528415
C            0.03989800750374        1.31496407619407        0.00070838278593
O            0.40005610706108        2.49723742009723       -0.06575370159329
N           -1.34870214154469        1.01929737863324        0.10208723629943
C           -2.14489814784104        2.29318968210758        0.04072169497252
C           -1.88120075778420       -0.26200663685688        0.00384354233322
O           -3.06584278918639       -0.52005088836515       -0.06426719383881
N           -0.96742222733730       -1.36928670662501       -0.00569480943368
C           -1.41699469706219       -2.75365483578055       -0.01100900217576
H            3.61852923945543        1.31001987855930        0.97796935874279
H            3.92448115833930        1.06647299277980       -0.75866124418520
H            2.56363742667375        2.09274323851506       -0.21866174117842
H            3.57368987851060       -1.64385898574694        0.02115364400376
H           -1.83027224508025        3.36658814940135        0.62382052947124
H           -1.78013965025299        2.84314937183848       -0.79246811468552
H           -3.18878767091573        1.95206403322633       -0.04221836941158
H           -1.09569124581674       -3.27078261966145        0.90046767867866
H           -1.01417113847767       -3.29677207114889       -0.87394699596874
H           -2.50267782454671       -2.77615717822232       -0.06186583158658
H            1.38996865028759       -2.98347081350085        0.02958827837180
25
 energy: 25.188715747824 xtb: 6.6.1 (8d0f1dd)
C            3.14738360054951        1.19816417339572       -0.00340171864348
N            2.25354332539736        0.08773908907584       -0.01848712971117
C            2.58597492434367       -1.25281507885081        0.01927514803468
N            1.41386186387985       -1.97777036111781        0.02097106485064
C            0.37217101106323       -1.12116904467403        0.00911074496858
C            0.86576915907305        0.17308264492732       -0.00474263617453
C            0.04120118658363        1.31473856919128       -0.00120222733699
O            0.40026403009266        2.49709778015827       -0.06897325597626
N           -1.34831212144712        1.02035586317239        0.09803031311620
C           -2.14302018387383        2.29413588851321        0.04153719033549
C           -1.88174198731560       -0.26124173695487        0.00308001024728
O           -3.06594859007179       -0.52040362094050       -0.06385459906690
N           -0.96765474564938       -1.36872207729524       -0.00605816638526
C           -1.41680801264843       -2.75358359634121       -0.01116714019824
H            3.61770764252984        1.31083174878140        0.97828006679198
H            3.92466129849164        1.06652021252677       -0.75804347033432
H            2.56281359024702        2.09213456902008       -0.21927618754124
H            3.57365720040257       -1.64384879125192        0.02203479260021
H           -1.82929309434556        3.36081288767540        0.62787968858681
H           -1.78616534492579        2.84790772077808       -0.79427474651283
H           -3.18807780944415        1.95294998429771       -0.03861560338569
H           -1.09623007819871       -3.27035078288594        0.90087663160567
H           -1.01244956481723       -3.29668186534067       -0.87328240098445
H           -2.50218299315615       -2.77710162778649       -0.06336181549863
H            1.39109036117599       -2.98375394590224        0.03069934275971
25