      -----------------------------------------------------------      
     |                   =====================                   |     
     |                           x T B                           |     
     |                   =====================                   |     
     |                         S. Grimme                         |     
     |          Mulliken Center for Theoretical Chemistry        |     
     |                    University of Bonn                     |     
      -----------------------------------------------------------      

   * xtb version 6.6.1 (8d0f1dd) compiled by 'conda@1efc2f54142f' on 2023-08-01

   xtb is free software: you can redistribute it and/or modify it under
   the terms of the GNU Lesser General Public License as published by
   the Free Software Foundation, either version 3 of the License, or
   (at your option) any later version.
   
   xtb is distributed in the hope that it will be useful,
   but WITHOUT ANY WARRANTY; without even the implied warranty of
   MERCHANTABILITY or FITNESS FOR A PARTICULAR PURPOSE.  See the
   GNU Lesser General Public License for more details.
   
   Cite this work as:
   * C. Bannwarth, E. Caldeweyher, S. Ehlert, A. Hansen, P. Pracht,
     J. Seibert, S. Spicher, S. Grimme, WIREs Comput. Mol. Sci., 2020, 11,
     e01493. DOI: 10.1002/wcms.1493
   
   for GFN2-xTB:
   * C. Bannwarth, S. Ehlert and S. Grimme., J. Chem. Theory Comput., 2019,
     15, 1652-1671. DOI: 10.1021/acs.jctc.8b01176
   for GFN1-xTB:
   * S. Grimme, C. Bannwarth, P. Shushkov, J. Chem. Theory Comput., 2017,
     13, 1989-2009. DOI: 10.1021/acs.jctc.7b00118
   for GFN0-xTB:
   * P. Pracht, E. Caldeweyher, S. Ehlert, S. Grimme, ChemRxiv, 2019, preprint.
     DOI: 10.26434/chemrxiv.8326202.v1
   for GFN-FF:
   * S. Spicher and S. Grimme, Angew. Chem. Int. Ed., 2020, 59, 15665-15673.
     DOI: 10.1002/anie.202004239
   
   for ALPB and GBSA implicit solvation:
   * S. Ehlert, M. Stahn, S. Spicher, S. Grimme, J. Chem. Theory Comput.,
     2021, 17, 4250-4261. DOI: 10.1021/acs.jctc.1c00471
   
   for DFT-D4:
   * E. Caldeweyher, C. Bannwarth and S. Grimme, J. Chem. Phys., 2017,
     147, 034112. DOI: 10.1063/1.4993215
   * E. Caldeweyher, S. Ehlert, A. Hansen, H. Neugebauer, S. Spicher,
     C. Bannwarth and S. Grimme, J. Chem. Phys., 2019, 150, 154122.
     DOI: 10.1063/1.5090222
   * E. Caldeweyher, J.-M. Mewes, S. Ehlert and S. Grimme, Phys. Chem. Chem. Phys.
     2020, 22, 8499-8512. DOI: 10.1039/D0CP00502A
   
   for sTDA-xTB:
   * S. Grimme and C. Bannwarth, J. Chem. Phys., 2016, 145, 054103.
     DOI: 10.1063/1.4959605
   
   in the mass-spec context:
   * V. Asgeirsson, C. Bauer and S. Grimme, Chem. Sci., 2017, 8, 4879.
     DOI: 10.1039/c7sc00601b
   * J. Koopman and S. Grimme, ACS Omega 2019, 4, 12, 15120-15133.
     DOI: 10.1021/acsomega.9b02011
   
   for metadynamics refer to:
   * S. Grimme, J. Chem. Theory Comput., 2019, 155, 2847-2862
     DOI: 10.1021/acs.jctc.9b00143
   
   for SPH calculations refer to:
   * S. Spicher and S. Grimme, J. Chem. Theory Comput., 2021, 17, 1701-1714
     DOI: 10.1021/acs.jctc.0c01306
   
   with help from (in alphabetical order)
   P. Atkinson, C. Bannwarth, F. Bohle, G. Brandenburg, E. Caldeweyher
   M. Checinski, S. Dohm, S. Ehlert, S. Ehrlich, I. Gerasimov, C. Hölzer
   A. Katbashev, J. Koopman, C. Lavigne, S. Lehtola, F. März, M. Müller,
   F. Musil, H. Neugebauer, J. Pisarek, C. Plett, P. Pracht, F. Pultar,
   J. Seibert, P. Shushkov, S. Spicher, M. Stahn, M. Steiner, T. Strunk,
   J. Stückrath, T. Rose, and J. Unsleber
   
 * started run on 2024/04/06 at 11:16:10.018     

           -------------------------------------------------
          |                Calculation Setup                |
           -------------------------------------------------

          program call               : xtb struc.xyz --opt loose --input .xc1 --gfn2
          hostname                   : n-62-30-23
          coordinate file            : struc.xyz
          omp threads                :                     1

   ID    Z sym.   atoms
    1    7 N      1, 17
    2    6 C      2-6, 8, 9, 11-16, 18-23, 25, 26, 28-33
    3    8 O      7, 10, 24, 27
    4    1 H      34-72
constraining bond 9 42 to    3.7133300 Å, actual value:    3.3768467 Å

           -------------------------------------------------
          |                 G F N 2 - x T B                 |
           -------------------------------------------------

        Reference                      10.1021/acs.jctc.8b01176
      * Hamiltonian:
        H0-scaling (s, p, d)           1.850000    2.230000    2.230000
        zeta-weighting                 0.500000
      * Dispersion:
        s8                             2.700000
        a1                             0.520000
        a2                             5.000000
        s9                             5.000000
      * Repulsion:
        kExp                           1.500000    1.000000
        rExp                           1.000000
      * Coulomb:
        alpha                          2.000000
        third order                    shell-resolved
        anisotropic                    true
        a3                             3.000000
        a5                             4.000000
        cn-shift                       1.200000
        cn-exp                         4.000000
        max-rad                        5.000000


          ...................................................
          :                      SETUP                      :
          :.................................................:
          :  # basis functions                 171          :
          :  # atomic orbitals                 171          :
          :  # shells                          105          :
          :  # electrons                       180          :
          :  max. iterations                   250          :
          :  Hamiltonian                  GFN2-xTB          :
          :  restarted?                      false          :
          :  GBSA solvation                  false          :
          :  PC potential                    false          :
          :  electronic temp.         5000.0000000     K    :
          :  accuracy                    1.0000000          :
          :  -> integral cutoff          0.2500000E+02      :
          :  -> integral neglect         0.1000000E-07      :
          :  -> SCF convergence          0.1000000E-05 Eh   :
          :  -> wf. convergence          0.1000000E-03 e    :
          :  Broyden damping             0.4000000          :
          ...................................................

 iter      E             dE          RMSdq      gap      omega  full diag
   1   -100.5973919 -0.100597E+03  0.374E+00    3.20       0.0  T
   2   -100.7362642 -0.138872E+00  0.221E+00    1.08       1.0  T
   3   -100.7049001  0.313641E-01  0.141E+00    3.29       1.0  T
   4   -100.7721690 -0.672689E-01  0.526E-01    1.50       1.0  T
   5   -100.7894292 -0.172602E-01  0.190E-01    1.98       1.0  T
   6   -100.7911978 -0.176856E-02  0.792E-02    1.77       1.0  T
   7   -100.7914750 -0.277198E-03  0.375E-02    1.83       1.0  T
   8   -100.7914914 -0.164582E-04  0.140E-02    1.83       1.0  T
   9   -100.7914976 -0.616739E-05  0.474E-03    1.82       2.5  T
  10   -100.7914988 -0.118227E-05  0.172E-03    1.82       6.8  T
  11   -100.7914989 -0.139928E-06  0.766E-04    1.82      15.4  T
  12   -100.7914989 -0.773143E-08  0.318E-04    1.82      37.0  T

   *** convergence criteria satisfied after 12 iterations ***

         #    Occupation            Energy/Eh            Energy/eV
      -------------------------------------------------------------
         1        2.0000           -0.8078051             -21.9815
       ...           ...                  ...                  ...
        84        1.9966           -0.5157491             -14.0342
        85        1.9959           -0.5128261             -13.9547
        86        1.9840           -0.4911498             -13.3649
        87        1.9795           -0.4872543             -13.2589
        88        1.9640           -0.4782114             -13.0128
        89        1.8920           -0.4602041             -12.5228
        90        1.8557           -0.4553147             -12.3897 (HOMO)
        91        0.3166           -0.3884132             -10.5693 (LUMO)
        92        0.0218           -0.3434697              -9.3463
        93        0.0041           -0.3169887              -8.6257
        94        0.0034           -0.3139726              -8.5436
        95        0.0029           -0.3112618              -8.4699
       ...           ...                  ...                  ...
       171                          0.5822580              15.8440
      -------------------------------------------------------------
                  HL-Gap            0.0669015 Eh            1.8205 eV
             Fermi-level           -0.4148687 Eh          -11.2892 eV

 SCC (total)                   0 d,  0 h,  0 min,  0.193 sec
 SCC setup                      ...        0 min,  0.001 sec (  0.563%)
 Dispersion                     ...        0 min,  0.002 sec (  0.990%)
 classical contributions        ...        0 min,  0.000 sec (  0.252%)
 integral evaluation            ...        0 min,  0.021 sec ( 10.757%)
 iterations                     ...        0 min,  0.098 sec ( 50.765%)
 molecular gradient             ...        0 min,  0.070 sec ( 36.335%)
 printout                       ...        0 min,  0.001 sec (  0.329%)

         :::::::::::::::::::::::::::::::::::::::::::::::::::::
         ::                     SUMMARY                     ::
         :::::::::::::::::::::::::::::::::::::::::::::::::::::
         :: total energy             -99.424346883007 Eh    ::
         :: gradient norm              0.096857230989 Eh/a0 ::
         :: HOMO-LUMO gap              1.820481192090 eV    ::
         ::.................................................::
         :: SCC energy              -100.791498925389 Eh    ::
         :: -> isotropic ES            0.109302908418 Eh    ::
         :: -> anisotropic ES          0.005415138735 Eh    ::
         :: -> anisotropic XC          0.042392697176 Eh    ::
         :: -> dispersion             -0.075527661009 Eh    ::
         :: repulsion energy           1.386151658689 Eh    ::
         :: add. restraining          -0.020215968813 Eh    ::
         :: total charge               1.000000000108 e     ::
         :::::::::::::::::::::::::::::::::::::::::::::::::::::

      ----------------------------------------------------------- 
     |                   =====================                   |
     |                        A N C O P T                        |
     |                   =====================                   |
     |               Approximate Normal Coordinate               |
     |                Rational Function Optimizer                |
      ----------------------------------------------------------- 

          ...................................................
          :                      SETUP                      :
          :.................................................:
          :   optimization level             loose          :
          :   max. optcycles                   200          :
          :   ANC micro-cycles                  20          :
          :   degrees of freedom               210          :
          :.................................................:
          :   RF solver                   davidson          :
          :   write xtbopt.log                true          :
          :   linear?                        false          :
          :   energy convergence         0.5000000E-04 Eh   :
          :   grad. convergence          0.4000000E-02 Eh/α :
          :   maxmium RF displ.          1.0000000          :
          :   Hlow (freq-cutoff)         0.1000000E-01      :
          :   Hmax (freq-cutoff)         5.0000000          :
          :   S6 in model hess.         20.0000000          :
          ...................................................

generating ANC from model Hessian ...
Using Lindh-Hessian (1995)
 Shifting diagonal of input Hessian by    9.9179948554153890E-003
 Lowest  eigenvalues of input Hessian
    0.000000    0.000000    0.000000    0.000000    0.000000    0.000000
    0.010000    0.010050    0.010107    0.010250    0.010252    0.010593
    0.010680    0.010935    0.011148    0.011684    0.011779    0.012749
 Highest eigenvalues
    2.035882    2.048293    2.051499    2.158160    2.183183    2.184417


........................................................................
.............................. CYCLE    1 ..............................
........................................................................

 iter      E             dE          RMSdq      gap      omega  full diag
   1   -100.7914989 -0.100791E+03  0.114E-04    1.82       0.0  T
   2   -100.7914989 -0.678995E-10  0.713E-05    1.82     165.2  T
   3   -100.7914989  0.665210E-10  0.496E-05    1.82     237.5  T
     SCC iter.                  ...        0 min,  0.026 sec
     gradient                   ...        0 min,  0.072 sec
 * total energy  :   -99.4243469 Eh     change       -0.4035485E-08 Eh
   gradient norm :     0.0968615 Eh/α   predicted     0.0000000E+00 (-100.00%)
   displ. norm   :     0.5980852 α      lambda       -0.4289692E-01
   maximum displ.:     0.3463056 α      in ANC's #57, #55, #56, ...

........................................................................
.............................. CYCLE    2 ..............................
........................................................................

 iter      E             dE          RMSdq      gap      omega  full diag
   1   -100.8144997 -0.100814E+03  0.403E-01    1.69       0.0  T
   2   -100.8146036 -0.103837E-03  0.251E-01    1.85       1.0  T
   3   -100.8105197  0.408389E-02  0.210E-01    1.52       1.0  T
   4   -100.8149730 -0.445334E-02  0.406E-02    1.81       1.0  T
   5   -100.8151190 -0.145980E-03  0.802E-03    1.77       1.5  T
   6   -100.8151200 -0.986685E-06  0.380E-03    1.77       3.1  T
   7   -100.8151202 -0.243228E-06  0.192E-03    1.77       6.1  T
   8   -100.8151204 -0.142307E-06  0.490E-04    1.77      24.1  T
   9   -100.8151204 -0.370493E-08  0.257E-04    1.77      45.9  T
     SCC iter.                  ...        0 min,  0.073 sec
     gradient                   ...        0 min,  0.069 sec
 * total energy  :   -99.4600482 Eh     change       -0.3570126E-01 Eh
   gradient norm :     0.0793561 Eh/α   predicted    -0.2912338E-01 ( -18.42%)
   displ. norm   :     0.7185974 α      lambda       -0.3634141E-01
   maximum displ.:     0.3995252 α      in ANC's #57, #55, #56, ...

........................................................................
.............................. CYCLE    3 ..............................
........................................................................

 iter      E             dE          RMSdq      gap      omega  full diag
   1   -100.7597297 -0.100760E+03  0.506E-01    1.65       0.0  T
   2   -100.7602545 -0.524815E-03  0.305E-01    1.80       1.0  T
   3   -100.7555351  0.471938E-02  0.229E-01    1.45       1.0  T
   4   -100.7603401 -0.480504E-02  0.744E-02    1.80       1.0  T
   5   -100.7608487 -0.508523E-03  0.117E-02    1.72       1.0  T
   6   -100.7608501 -0.147741E-05  0.541E-03    1.71       2.2  T
   7   -100.7608510 -0.838823E-06  0.221E-03    1.72       5.3  T
   8   -100.7608512 -0.241527E-06  0.826E-04    1.72      14.3  T
   9   -100.7608513 -0.304406E-07  0.356E-04    1.72      33.1  T
     SCC iter.                  ...        0 min,  0.073 sec
     gradient                   ...        0 min,  0.069 sec
 * total energy  :   -99.4896714 Eh     change       -0.2962324E-01 Eh
   gradient norm :     0.1220495 Eh/α   predicted    -0.2755373E-01 (  -6.99%)
   displ. norm   :     0.7244372 α      lambda       -0.3479372E-01
   maximum displ.:     0.3495098 α      in ANC's #57, #55, #53, ...

........................................................................
.............................. CYCLE    4 ..............................
........................................................................

 iter      E             dE          RMSdq      gap      omega  full diag
   1   -100.6206806 -0.100621E+03  0.467E-01    1.09       0.0  T
   2   -100.6147513  0.592927E-02  0.522E-01    1.93       1.0  T
   3   -100.6321493 -0.173980E-01  0.227E-01    1.46       1.0  T
   4   -100.6316890  0.460293E-03  0.122E-01    1.53       1.0  T
   5   -100.6323066 -0.617623E-03  0.547E-02    1.50       1.0  T
   6   -100.6324949 -0.188266E-03  0.183E-02    1.49       1.0  T
   7   -100.6325067 -0.118134E-04  0.807E-03    1.50       1.5  T
   8   -100.6325124 -0.565732E-05  0.243E-03    1.49       4.8  T
   9   -100.6325127 -0.314083E-06  0.963E-04    1.49      12.2  T
  10   -100.6325127 -0.588153E-07  0.426E-04    1.49      27.7  T
     SCC iter.                  ...        0 min,  0.081 sec
     gradient                   ...        0 min,  0.069 sec
 * total energy  :   -99.5295565 Eh     change       -0.3988514E-01 Eh
   gradient norm :     0.2041088 Eh/α   predicted    -0.2652700E-01 ( -33.49%)
   displ. norm   :     0.7201551 α      lambda       -0.7331838E-01
   maximum displ.:     0.3251053 α      in ANC's #57, #53, #55, ...

........................................................................
.............................. CYCLE    5 ..............................
........................................................................

 iter      E             dE          RMSdq      gap      omega  full diag
   1   -100.5117288 -0.100512E+03  0.620E-01    0.45       0.0  T
   2   -100.4284719  0.832570E-01  0.109E+00    1.86       1.0  T
   3   -100.5401033 -0.111631E+00  0.328E-01    1.19       1.0  T
   4   -100.5426492 -0.254598E-02  0.132E-01    0.88       1.0  T
   5   -100.5438934 -0.124420E-02  0.365E-02    0.96       1.0  T
   6   -100.5439964 -0.102970E-03  0.199E-02    1.01       1.0  T
   7   -100.5440200 -0.235569E-04  0.848E-03    1.00       1.4  T
   8   -100.5440249 -0.489653E-05  0.247E-03    0.99       4.8  T
   9   -100.5440250 -0.162767E-06  0.157E-03    0.99       7.5  T
  10   -100.5440251 -0.110885E-06  0.721E-04    0.99      16.3  T
  11   -100.5440252 -0.311906E-07  0.311E-04    0.99      38.0  T
     SCC iter.                  ...        0 min,  0.089 sec
     gradient                   ...        0 min,  0.069 sec
 * total energy  :   -99.6230958 Eh     change       -0.9353924E-01 Eh
   gradient norm :     0.2815879 Eh/α   predicted    -0.5567153E-01 ( -40.48%)
   displ. norm   :     0.7237894 α      lambda       -0.1358451E+00
   maximum displ.:     0.3484254 α      in ANC's #53, #78, #97, ...

........................................................................
.............................. CYCLE    6 ..............................
........................................................................

 iter      E             dE          RMSdq      gap      omega  full diag
   1   -100.4739205 -0.100474E+03  0.417E-01    0.97       0.0  T
   2   -100.4634886  0.104319E-01  0.425E-01    0.57       1.0  T
   3   -100.4705702 -0.708159E-02  0.297E-01    1.15       1.0  T
   4   -100.4762743 -0.570408E-02  0.179E-01    0.77       1.0  T
   5   -100.4783775 -0.210328E-02  0.333E-02    0.89       1.0  T
   6   -100.4784991 -0.121568E-03  0.109E-02    0.87       1.1  T
   7   -100.4785016 -0.251315E-05  0.642E-03    0.87       1.8  T
   8   -100.4785035 -0.188962E-05  0.295E-03    0.87       4.0  T
   9   -100.4785042 -0.729122E-06  0.824E-04    0.87      14.3  T
  10   -100.4785043 -0.309665E-07  0.402E-04    0.87      29.3  T
     SCC iter.                  ...        0 min,  0.081 sec
     gradient                   ...        0 min,  0.070 sec
 * total energy  :   -99.7755718 Eh     change       -0.1524760E+00 Eh
   gradient norm :     0.3510088 Eh/α   predicted    -0.1035058E+00 ( -32.12%)
   displ. norm   :     0.8620616 α      lambda       -0.2471074E+00
   maximum displ.:     0.4091069 α      in ANC's #57, #55, #53, ...

........................................................................
.............................. CYCLE    7 ..............................
........................................................................

 iter      E             dE          RMSdq      gap      omega  full diag
   1   -100.3233482 -0.100323E+03  0.857E-01    0.28       0.0  T
   2   -100.2590486  0.642996E-01  0.864E-01    0.20       1.0  T
   3   -100.3194164 -0.603678E-01  0.576E-01    0.48       1.0  T
   4   -100.3481340 -0.287176E-01  0.365E-01    0.39       1.0  T
   5   -100.3549116 -0.677762E-02  0.125E-01    0.52       1.0  T
   6   -100.3572676 -0.235593E-02  0.267E-02    0.52       1.0  T
   7   -100.3572838 -0.162198E-04  0.171E-02    0.52       1.0  T
   8   -100.3573002 -0.164449E-04  0.826E-03    0.52       1.4  T
   9   -100.3573068 -0.656237E-05  0.157E-03    0.52       7.5  T
  10   -100.3573069 -0.102046E-06  0.823E-04    0.52      14.3  T
  11   -100.3573069 -0.152762E-07  0.354E-04    0.52      33.3  T
     SCC iter.                  ...        0 min,  0.088 sec
     gradient                   ...        0 min,  0.069 sec
 * total energy  :  -100.0565006 Eh     change       -0.2809288E+00 Eh
   gradient norm :     0.5011193 Eh/α   predicted    -0.2153733E+00 ( -23.34%)
   displ. norm   :     0.8517215 α      lambda       -0.3743352E+00
   maximum displ.:     0.3195070 α      in ANC's #53, #57, #78, ...

........................................................................
.............................. CYCLE    8 ..............................
........................................................................

 iter      E             dE          RMSdq      gap      omega  full diag
   1   -100.1881888 -0.100188E+03  0.127E+00    0.93       0.0  T
   2    -99.4938929  0.694296E+00  0.232E+00    1.03       1.0  T
   3   -100.2622639 -0.768371E+00  0.679E-01    0.57       1.0  T
   4   -100.2912386 -0.289747E-01  0.452E-01    0.70       1.0  T
   5   -100.2955496 -0.431098E-02  0.272E-01    0.41       1.0  T
   6   -100.3044020 -0.885236E-02  0.837E-02    0.49       1.0  T
   7   -100.3051328 -0.730870E-03  0.417E-02    0.49       1.0  T
   8   -100.3052074 -0.745748E-04  0.222E-02    0.49       1.0  T
   9   -100.3052510 -0.435635E-04  0.761E-03    0.50       1.5  T
  10   -100.3052545 -0.353197E-05  0.310E-03    0.50       3.8  T
  11   -100.3052550 -0.480230E-06  0.121E-03    0.50       9.7  T
  12   -100.3052551 -0.775964E-07  0.539E-04    0.50      21.9  T
  13   -100.3052551 -0.252666E-07  0.187E-04    0.50      62.9  T
     SCC iter.                  ...        0 min,  0.105 sec
     gradient                   ...        0 min,  0.069 sec
 * total energy  :  -100.3393810 Eh     change       -0.2828804E+00 Eh
   gradient norm :     0.3338971 Eh/α   predicted    -0.3229450E+00 (  14.16%)
   displ. norm   :     0.7778501 α      lambda       -0.1892583E+00
   maximum displ.:     0.3951357 α      in ANC's #53, #78, #41, ...

........................................................................
.............................. CYCLE    9 ..............................
........................................................................

 iter      E             dE          RMSdq      gap      omega  full diag
   1   -100.3226420 -0.100323E+03  0.658E-01    1.22       0.0  T
   2   -100.1940943  0.128548E+00  0.111E+00    0.28       1.0  T
   3   -100.3354906 -0.141396E+00  0.347E-01    1.13       1.0  T
   4   -100.3330014  0.248920E-02  0.247E-01    1.02       1.0  T
   5   -100.3392639 -0.626251E-02  0.104E-01    1.09       1.0  T
   6   -100.3398779 -0.614033E-03  0.669E-02    1.05       1.0  T
   7   -100.3401391 -0.261228E-03  0.256E-02    1.09       1.0  T
   8   -100.3401700 -0.308417E-04  0.149E-02    1.07       1.0  T
   9   -100.3401820 -0.120243E-04  0.770E-03    1.08       1.5  T
  10   -100.3401847 -0.265613E-05  0.312E-03    1.08       3.8  T
  11   -100.3401853 -0.618167E-06  0.113E-03    1.08      10.4  T
  12   -100.3401854 -0.119523E-06  0.580E-04    1.08      20.3  T
  13   -100.3401854 -0.375206E-07  0.226E-04    1.08      52.2  T
     SCC iter.                  ...        0 min,  0.104 sec
     gradient                   ...        0 min,  0.069 sec
 * total energy  :  -100.3462646 Eh     change       -0.6883572E-02 Eh
   gradient norm :     0.5734777 Eh/α   predicted    -0.1518846E+00 (2106.48%)
   displ. norm   :     0.5115863 α      lambda       -0.1810161E+00
   maximum displ.:     0.1263630 α      in ANC's #135, #79, #78, ...

........................................................................
.............................. CYCLE   10 ..............................
........................................................................

 iter      E             dE          RMSdq      gap      omega  full diag
   1   -100.3598535 -0.100360E+03  0.514E-01    1.46       0.0  T
   2   -100.3568811  0.297244E-02  0.376E-01    1.14       1.0  T
   3   -100.3440389  0.128422E-01  0.376E-01    1.48       1.0  T
   4   -100.3583420 -0.143031E-01  0.204E-01    1.23       1.0  T
   5   -100.3624308 -0.408883E-02  0.428E-02    1.37       1.0  T
   6   -100.3626730 -0.242202E-03  0.165E-02    1.36       1.0  T
   7   -100.3626811 -0.809845E-05  0.111E-02    1.35       1.1  T
   8   -100.3626819 -0.741314E-06  0.926E-03    1.35       1.3  T
   9   -100.3626870 -0.508931E-05  0.348E-03    1.35       3.4  T
  10   -100.3626879 -0.975581E-06  0.130E-03    1.35       9.1  T
  11   -100.3626880 -0.898522E-07  0.578E-04    1.35      20.4  T
  12   -100.3626880 -0.604444E-08  0.208E-04    1.35      56.6  T
     SCC iter.                  ...        0 min,  0.096 sec
     gradient                   ...        0 min,  0.070 sec
 * total energy  :  -100.4669725 Eh     change       -0.1207079E+00 Eh
   gradient norm :     0.2055490 Eh/α   predicted    -0.1141959E+00 (  -5.39%)
   displ. norm   :     0.6573920 α      lambda       -0.1042724E+00
   maximum displ.:     0.2140862 α      in ANC's #53, #57, #41, ...

........................................................................
.............................. CYCLE   11 ..............................
........................................................................

 iter      E             dE          RMSdq      gap      omega  full diag
   1   -100.4583413 -0.100458E+03  0.405E-01    1.19       0.0  T
   2   -100.4442155  0.141258E-01  0.454E-01    1.38       1.0  T
   3   -100.4615839 -0.173684E-01  0.220E-01    1.14       1.0  T
   4   -100.4605231  0.106080E-02  0.225E-01    1.49       1.0  T
   5   -100.4648332 -0.431008E-02  0.334E-02    1.31       1.0  T
   6   -100.4648703 -0.371067E-04  0.237E-02    1.30       1.0  T
   7   -100.4648893 -0.189873E-04  0.137E-02    1.30       1.0  T
   8   -100.4649043 -0.150492E-04  0.474E-03    1.30       2.5  T
   9   -100.4649053 -0.957755E-06  0.207E-03    1.30       5.7  T
  10   -100.4649057 -0.413410E-06  0.859E-04    1.30      13.7  T
  11   -100.4649058 -0.391570E-07  0.244E-04    1.30      48.3  T
     SCC iter.                  ...        0 min,  0.089 sec
     gradient                   ...        0 min,  0.069 sec
 * total energy  :  -100.5371866 Eh     change       -0.7021413E-01 Eh
   gradient norm :     0.2349672 Eh/α   predicted    -0.7466759E-01 (   6.34%)
   displ. norm   :     0.7539804 α      lambda       -0.8974421E-01
   maximum displ.:     0.3061445 α      in ANC's #53, #41, #57, ...

........................................................................
.............................. CYCLE   12 ..............................
........................................................................

 iter      E             dE          RMSdq      gap      omega  full diag
   1   -100.5019932 -0.100502E+03  0.565E-01    1.08       0.0  T
   2   -100.4686686  0.333246E-01  0.700E-01    1.42       1.0  T
   3   -100.5188400 -0.501714E-01  0.239E-01    1.13       1.0  T
   4   -100.5175023  0.133778E-02  0.214E-01    1.49       1.0  T
   5   -100.5212856 -0.378334E-02  0.398E-02    1.26       1.0  T
   6   -100.5213998 -0.114162E-03  0.125E-02    1.28       1.0  T
   7   -100.5214000 -0.208025E-06  0.101E-02    1.28       1.2  T
   8   -100.5214046 -0.464674E-05  0.314E-03    1.28       3.7  T
   9   -100.5214048 -0.166221E-06  0.176E-03    1.28       6.7  T
  10   -100.5214050 -0.246219E-06  0.686E-04    1.28      17.2  T
  11   -100.5214051 -0.330738E-07  0.307E-04    1.28      38.4  T
     SCC iter.                  ...        0 min,  0.089 sec
     gradient                   ...        0 min,  0.075 sec
 * total energy  :  -100.5084699 Eh     change        0.2871671E-01 Eh
   gradient norm :     0.5499326 Eh/α   predicted    -0.7038134E-01 (-345.09%)
   displ. norm   :     0.4600382 α      lambda       -0.1500691E+00
   maximum displ.:     0.1496225 α      in ANC's #53, #57, #49, ...

........................................................................
.............................. CYCLE   13 ..............................
........................................................................

 iter      E             dE          RMSdq      gap      omega  full diag
   1   -100.5608587 -0.100561E+03  0.380E-01    1.15       0.0  T
   2   -100.5557583  0.510043E-02  0.311E-01    1.46       1.0  T
   3   -100.5605712 -0.481296E-02  0.241E-01    1.06       1.0  T
   4   -100.5634005 -0.282923E-02  0.133E-01    1.36       1.0  T
   5   -100.5648429 -0.144243E-02  0.200E-02    1.23       1.0  T
   6   -100.5648741 -0.311634E-04  0.740E-03    1.24       1.6  T
   7   -100.5648770 -0.295814E-05  0.422E-03    1.24       2.8  T
   8   -100.5648774 -0.397532E-06  0.196E-03    1.24       6.0  T
   9   -100.5648776 -0.179556E-06  0.677E-04    1.24      17.4  T
  10   -100.5648776 -0.269462E-07  0.330E-04    1.24      35.7  T
     SCC iter.                  ...        0 min,  0.081 sec
     gradient                   ...        0 min,  0.069 sec
 * total energy  :  -100.5889335 Eh     change       -0.8046359E-01 Eh
   gradient norm :     0.1636277 Eh/α   predicted    -0.9091452E-01 (  12.99%)
   displ. norm   :     0.4397479 α      lambda       -0.3735105E-01
   maximum displ.:     0.1384978 α      in ANC's #78, #40, #41, ...

........................................................................
.............................. CYCLE   14 ..............................
........................................................................

 iter      E             dE          RMSdq      gap      omega  full diag
   1   -100.5483777 -0.100548E+03  0.375E-01    1.22       0.0  T
   2   -100.5395426  0.883508E-02  0.421E-01    1.06       1.0  T
   3   -100.5558642 -0.163215E-01  0.167E-01    1.30       1.0  T
   4   -100.5538276  0.203660E-02  0.177E-01    1.01       1.0  T
   5   -100.5568071 -0.297950E-02  0.469E-02    1.22       1.0  T
   6   -100.5570129 -0.205796E-03  0.100E-02    1.19       1.2  T
   7   -100.5570165 -0.361111E-05  0.534E-03    1.20       2.2  T
   8   -100.5570175 -0.104247E-05  0.303E-03    1.19       3.9  T
   9   -100.5570182 -0.652550E-06  0.942E-04    1.19      12.5  T
  10   -100.5570182 -0.190035E-07  0.472E-04    1.19      25.0  T
     SCC iter.                  ...        0 min,  0.080 sec
     gradient                   ...        0 min,  0.075 sec
 * total energy  :  -100.6000669 Eh     change       -0.1113343E-01 Eh
   gradient norm :     0.1659816 Eh/α   predicted    -0.2228698E-01 ( 100.18%)
   displ. norm   :     0.4961527 α      lambda       -0.3027881E-01
   maximum displ.:     0.1175894 α      in ANC's #106, #48, #43, ...

........................................................................
.............................. CYCLE   15 ..............................
........................................................................

 iter      E             dE          RMSdq      gap      omega  full diag
   1   -100.5946276 -0.100595E+03  0.299E-01    1.04       0.0  T
   2   -100.5884761  0.615156E-02  0.302E-01    1.36       1.0  T
   3   -100.5955719 -0.709584E-02  0.181E-01    0.99       1.0  T
   4   -100.5970591 -0.148725E-02  0.117E-01    1.22       1.0  T
   5   -100.5980900 -0.103083E-02  0.177E-02    1.13       1.0  T
   6   -100.5981125 -0.224790E-04  0.676E-03    1.13       1.7  T
   7   -100.5981126 -0.160210E-06  0.468E-03    1.13       2.5  T
   8   -100.5981141 -0.152002E-05  0.233E-03    1.13       5.1  T
   9   -100.5981143 -0.120182E-06  0.133E-03    1.13       8.8  T
  10   -100.5981144 -0.143368E-06  0.344E-04    1.13      34.2  T
  11   -100.5981144 -0.889415E-09  0.135E-04    1.13      87.6  T
     SCC iter.                  ...        0 min,  0.088 sec
     gradient                   ...        0 min,  0.075 sec
 * total energy  :  -100.6210473 Eh     change       -0.2098036E-01 Eh
   gradient norm :     0.1119535 Eh/α   predicted    -0.1886622E-01 ( -10.08%)
   displ. norm   :     0.5167024 α      lambda       -0.2986121E-01
   maximum displ.:     0.1100840 α      in ANC's #159, #5, #48, ...

........................................................................
.............................. CYCLE   16 ..............................
........................................................................

 iter      E             dE          RMSdq      gap      omega  full diag
   1   -100.6373614 -0.100637E+03  0.390E-01    0.86       0.0  T
   2   -100.6363817  0.979665E-03  0.281E-01    1.03       1.0  T
   3   -100.6389415 -0.255975E-02  0.218E-01    0.79       1.0  T
   4   -100.6375111  0.143038E-02  0.195E-01    1.03       1.0  T
   5   -100.6415249 -0.401383E-02  0.424E-02    0.89       1.0  T
   6   -100.6417169 -0.191986E-03  0.135E-02    0.92       1.0  T
   7   -100.6417324 -0.155238E-04  0.671E-03    0.92       1.8  T
   8   -100.6417339 -0.148168E-05  0.360E-03    0.92       3.3  T
   9   -100.6417342 -0.333840E-06  0.188E-03    0.92       6.3  T
  10   -100.6417344 -0.189698E-06  0.558E-04    0.92      21.1  T
  11   -100.6417344 -0.164044E-08  0.234E-04    0.92      50.3  T
     SCC iter.                  ...        0 min,  0.089 sec
     gradient                   ...        0 min,  0.069 sec
 * total energy  :  -100.6353463 Eh     change       -0.1429907E-01 Eh
   gradient norm :     0.1904892 Eh/α   predicted    -0.1891677E-01 (  32.29%)
   displ. norm   :     0.3995812 α      lambda       -0.2332728E-01
   maximum displ.:     0.0874924 α      in ANC's #109, #78, #33, ...

........................................................................
.............................. CYCLE   17 ..............................
........................................................................

 iter      E             dE          RMSdq      gap      omega  full diag
   1   -100.6450538 -0.100645E+03  0.411E-01    0.71       0.0  T
   2   -100.6204910  0.245628E-01  0.554E-01    0.53       1.0  T
   3   -100.6484962 -0.280052E-01  0.225E-01    0.84       1.0  T
   4   -100.6512781 -0.278192E-02  0.168E-01    0.70       1.0  T
   5   -100.6530370 -0.175893E-02  0.269E-02    0.80       1.0  T
   6   -100.6531127 -0.756343E-04  0.721E-03    0.79       1.6  T
   7   -100.6531130 -0.346955E-06  0.481E-03    0.79       2.5  T
   8   -100.6531152 -0.217303E-05  0.196E-03    0.79       6.0  T
   9   -100.6531152  0.176857E-08  0.110E-03    0.79      10.8  T
  10   -100.6531153 -0.121811E-06  0.370E-04    0.79      31.8  T
  11   -100.6531153 -0.743486E-08  0.195E-04    0.79      60.6  T
     SCC iter.                  ...        0 min,  0.088 sec
     gradient                   ...        0 min,  0.069 sec
 * total energy  :  -100.6548094 Eh     change       -0.1946310E-01 Eh
   gradient norm :     0.1356891 Eh/α   predicted    -0.1352591E-01 ( -30.50%)
   displ. norm   :     0.6128168 α      lambda       -0.4072089E-01
   maximum displ.:     0.1650309 α      in ANC's #112, #78, #109, ...

........................................................................
.............................. CYCLE   18 ..............................
........................................................................

 iter      E             dE          RMSdq      gap      omega  full diag
   1   -100.5850249 -0.100585E+03  0.965E-01    0.88       0.0  T
   2   -100.3878683  0.197157E+00  0.147E+00    0.02       1.0  T
   3   -100.6108956 -0.223027E+00  0.500E-01    0.76       1.0  T
   4   -100.6274373 -0.165417E-01  0.334E-01    0.73       1.0  T
   5   -100.6321914 -0.475413E-02  0.924E-02    0.76       1.0  T
   6   -100.6331455 -0.954107E-03  0.260E-02    0.75       1.0  T
   7   -100.6331689 -0.234155E-04  0.152E-02    0.75       1.0  T
   8   -100.6331829 -0.139367E-04  0.561E-03    0.75       2.1  T
   9   -100.6331835 -0.662814E-06  0.287E-03    0.75       4.1  T
  10   -100.6331842 -0.623689E-06  0.871E-04    0.75      13.5  T
  11   -100.6331842 -0.182621E-07  0.505E-04    0.75      23.3  T
     SCC iter.                  ...        0 min,  0.088 sec
     gradient                   ...        0 min,  0.070 sec
 * total energy  :  -100.6754287 Eh     change       -0.2061925E-01 Eh
   gradient norm :     0.1599287 Eh/α   predicted    -0.2800672E-01 (  35.83%)
   displ. norm   :     0.2891616 α      lambda       -0.1774045E-01
   maximum displ.:     0.0795166 α      in ANC's #49, #41, #48, ...

........................................................................
.............................. CYCLE   19 ..............................
........................................................................

 iter      E             dE          RMSdq      gap      omega  full diag
   1   -100.6488302 -0.100649E+03  0.177E-01    0.81       0.0  T
   2   -100.6475834  0.124679E-02  0.160E-01    0.76       1.0  T
   3   -100.6476843 -0.100871E-03  0.147E-01    0.80       1.0  T
   4   -100.6493325 -0.164815E-02  0.522E-02    0.80       1.0  T
   5   -100.6494133 -0.808093E-04  0.407E-02    0.80       1.0  T
   6   -100.6495463 -0.133007E-03  0.560E-03    0.79       2.1  T
   7   -100.6495471 -0.852720E-06  0.326E-03    0.80       3.6  T
   8   -100.6495477 -0.601655E-06  0.172E-03    0.80       6.9  T
   9   -100.6495477 -0.262257E-08  0.780E-04    0.80      15.1  T
  10   -100.6495478 -0.636196E-07  0.262E-04    0.80      45.0  T
     SCC iter.                  ...        0 min,  0.080 sec
     gradient                   ...        0 min,  0.069 sec
 * total energy  :  -100.6880114 Eh     change       -0.1258271E-01 Eh
   gradient norm :     0.0922837 Eh/α   predicted    -0.9611918E-02 ( -23.61%)
   displ. norm   :     0.5194660 α      lambda       -0.2032756E-01
   maximum displ.:     0.1282770 α      in ANC's #115, #37, #49, ...

........................................................................
.............................. CYCLE   20 ..............................
........................................................................

 iter      E             dE          RMSdq      gap      omega  full diag
   1   -100.6613925 -0.100661E+03  0.450E-01    0.90       0.0  T
   2   -100.6412222  0.201703E-01  0.491E-01    0.65       1.0  T
   3   -100.6571851 -0.159629E-01  0.340E-01    0.87       1.0  T
   4   -100.6628735 -0.568846E-02  0.190E-01    0.84       1.0  T
   5   -100.6658793 -0.300576E-02  0.319E-02    0.84       1.0  T
   6   -100.6659717 -0.924442E-04  0.100E-02    0.84       1.2  T
   7   -100.6659830 -0.112466E-04  0.413E-03    0.84       2.9  T
   8   -100.6659840 -0.101406E-05  0.201E-03    0.84       5.9  T
   9   -100.6659840 -0.370477E-10  0.910E-04    0.84      12.9  T
  10   -100.6659841 -0.849859E-07  0.320E-04    0.84      36.8  T
     SCC iter.                  ...        0 min,  0.080 sec
     gradient                   ...        0 min,  0.069 sec
 * total energy  :  -100.7006704 Eh     change       -0.1265898E-01 Eh
   gradient norm :     0.0570282 Eh/α   predicted    -0.1290643E-01 (   1.95%)
   displ. norm   :     0.3728971 α      lambda       -0.8456798E-02
   maximum displ.:     0.1036749 α      in ANC's #36, #32, #48, ...
 * RMSD in coord.:     0.7943028 α      energy gain  -0.1276323E+01 Eh

generating ANC from model Hessian ...
Using Lindh-Hessian (1995)
 Shifting diagonal of input Hessian by    9.9433862715262566E-003
 Lowest  eigenvalues of input Hessian
    0.000000    0.000000    0.000000    0.000000    0.000000    0.000000
    0.010000    0.010060    0.010123    0.010339    0.010607    0.010670
    0.010808    0.011011    0.011161    0.011577    0.011966    0.012634
 Highest eigenvalues
    2.028038    2.049688    2.051993    2.119173    2.184208    2.260325


........................................................................
.............................. CYCLE   21 ..............................
........................................................................

 iter      E             dE          RMSdq      gap      omega  full diag
   1   -100.6745834 -0.100675E+03  0.254E-01    0.90       0.0  T
   2   -100.6625572  0.120262E-01  0.361E-01    0.72       1.0  T
   3   -100.6752618 -0.127045E-01  0.161E-01    0.86       1.0  T
   4   -100.6762268 -0.965069E-03  0.102E-01    0.87       1.0  T
   5   -100.6770371 -0.810268E-03  0.225E-02    0.85       1.0  T
   6   -100.6770779 -0.408038E-04  0.524E-03    0.85       2.2  T
   7   -100.6770793 -0.144192E-05  0.380E-03    0.85       3.1  T
   8   -100.6770798 -0.483426E-06  0.168E-03    0.85       7.0  T
   9   -100.6770798  0.110532E-07  0.764E-04    0.85      15.4  T
  10   -100.6770799 -0.585997E-07  0.276E-04    0.85      42.7  T
     SCC iter.                  ...        0 min,  0.081 sec
     gradient                   ...        0 min,  0.069 sec
 * total energy  :  -100.7040640 Eh     change       -0.3393659E-02 Eh
   gradient norm :     0.0542353 Eh/α   predicted     0.0000000E+00 (-100.00%)
   displ. norm   :     0.2072691 α      lambda       -0.4066137E-02
   maximum displ.:     0.0687790 α      in ANC's #48, #23, #6, ...

........................................................................
.............................. CYCLE   22 ..............................
........................................................................

 iter      E             dE          RMSdq      gap      omega  full diag
   1   -100.6724668 -0.100672E+03  0.961E-02    0.83       0.0  T
   2   -100.6720985  0.368249E-03  0.767E-02    0.85       1.0  T
   3   -100.6717866  0.311942E-03  0.929E-02    0.83       1.0  T
   4   -100.6725018 -0.715148E-03  0.252E-02    0.84       1.0  T
   5   -100.6725660 -0.642240E-04  0.285E-03    0.84       4.1  T
   6   -100.6725663 -0.370524E-06  0.184E-03    0.84       6.4  T
   7   -100.6725665 -0.173515E-06  0.122E-03    0.84       9.6  T
   8   -100.6725666 -0.527172E-07  0.796E-04    0.84      14.8  T
   9   -100.6725666 -0.487180E-07  0.183E-04    0.84      64.5  T
     SCC iter.                  ...        0 min,  0.073 sec
     gradient                   ...        0 min,  0.069 sec
 * total energy  :  -100.7062235 Eh     change       -0.2159491E-02 Eh
   gradient norm :     0.0533967 Eh/α   predicted    -0.2121291E-02 (  -1.77%)
   displ. norm   :     0.2757265 α      lambda       -0.2675707E-02
   maximum displ.:     0.0882281 α      in ANC's #48, #6, #4, ...

........................................................................
.............................. CYCLE   23 ..............................
........................................................................

 iter      E             dE          RMSdq      gap      omega  full diag
   1   -100.6666024 -0.100667E+03  0.112E-01    0.83       0.0  T
   2   -100.6659796  0.622770E-03  0.962E-02    0.85       1.0  T
   3   -100.6658325  0.147125E-03  0.103E-01    0.83       1.0  T
   4   -100.6666687 -0.836212E-03  0.315E-02    0.84       1.0  T
   5   -100.6667607 -0.919608E-04  0.679E-03    0.84       1.7  T
   6   -100.6667633 -0.258640E-05  0.346E-03    0.84       3.4  T
   7   -100.6667640 -0.781833E-06  0.156E-03    0.84       7.6  T
   8   -100.6667641 -0.400902E-07  0.828E-04    0.84      14.2  T
   9   -100.6667642 -0.659124E-07  0.253E-04    0.84      46.6  T
     SCC iter.                  ...        0 min,  0.073 sec
     gradient                   ...        0 min,  0.069 sec
 * total energy  :  -100.7074823 Eh     change       -0.1258805E-02 Eh
   gradient norm :     0.0262047 Eh/α   predicted    -0.1439867E-02 (  14.38%)
   displ. norm   :     0.2040419 α      lambda       -0.8963743E-03
   maximum displ.:     0.0725060 α      in ANC's #6, #4, #12, ...

........................................................................
.............................. CYCLE   24 ..............................
........................................................................

 iter      E             dE          RMSdq      gap      omega  full diag
   1   -100.6690717 -0.100669E+03  0.514E-02    0.85       0.0  T
   2   -100.6689490  0.122710E-03  0.483E-02    0.86       1.0  T
   3   -100.6689894 -0.403546E-04  0.391E-02    0.85       1.0  T
   4   -100.6690465 -0.570638E-04  0.233E-02    0.85       1.0  T
   5   -100.6691055 -0.590183E-04  0.321E-03    0.86       3.7  T
   6   -100.6691061 -0.638325E-06  0.131E-03    0.86       9.0  T
   7   -100.6691062 -0.750668E-07  0.583E-04    0.86      20.2  T
   8   -100.6691062  0.106198E-09  0.324E-04    0.86      36.4  T
     SCC iter.                  ...        0 min,  0.065 sec
     gradient                   ...        0 min,  0.069 sec
 * total energy  :  -100.7082565 Eh     change       -0.7741771E-03 Eh
   gradient norm :     0.0173591 Eh/α   predicted    -0.4668755E-03 ( -39.69%)
   displ. norm   :     0.5154540 α      lambda       -0.1810381E-02
   maximum displ.:     0.1907441 α      in ANC's #6, #4, #7, ...

........................................................................
.............................. CYCLE   25 ..............................
........................................................................

 iter      E             dE          RMSdq      gap      omega  full diag
   1   -100.6729065 -0.100673E+03  0.124E-01    0.91       0.0  T
   2   -100.6724382  0.468302E-03  0.106E-01    0.93       1.0  T
   3   -100.6724219  0.163593E-04  0.947E-02    0.90       1.0  T
   4   -100.6726654 -0.243511E-03  0.602E-02    0.91       1.0  T
   5   -100.6730769 -0.411529E-03  0.800E-03    0.92       1.5  T
   6   -100.6730809 -0.397244E-05  0.319E-03    0.92       3.7  T
   7   -100.6730812 -0.380001E-06  0.145E-03    0.92       8.1  T
   8   -100.6730813 -0.739242E-08  0.725E-04    0.92      16.3  T
   9   -100.6730813 -0.506483E-07  0.276E-04    0.92      42.8  T
     SCC iter.                  ...        0 min,  0.073 sec
     gradient                   ...        0 min,  0.069 sec
 * total energy  :  -100.7094993 Eh     change       -0.1242823E-02 Eh
   gradient norm :     0.0132424 Eh/α   predicted    -0.1145733E-02 (  -7.81%)
   displ. norm   :     0.3470838 α      lambda       -0.7348112E-03
   maximum displ.:     0.1466162 α      in ANC's #4, #6, #7, ...

........................................................................
.............................. CYCLE   26 ..............................
........................................................................

 iter      E             dE          RMSdq      gap      omega  full diag
   1   -100.6744710 -0.100674E+03  0.782E-02    0.96       0.0  T
   2   -100.6743443  0.126732E-03  0.606E-02    0.97       1.0  T
   3   -100.6742087  0.135600E-03  0.641E-02    0.95       1.0  T
   4   -100.6743892 -0.180578E-03  0.340E-02    0.97       1.0  T
   5   -100.6745213 -0.132072E-03  0.509E-03    0.97       2.3  T
   6   -100.6745229 -0.162923E-05  0.196E-03    0.97       6.0  T
   7   -100.6745231 -0.117092E-06  0.935E-04    0.97      12.6  T
   8   -100.6745231 -0.212069E-07  0.378E-04    0.97      31.2  T
     SCC iter.                  ...        0 min,  0.065 sec
     gradient                   ...        0 min,  0.069 sec
 * total energy  :  -100.7100574 Eh     change       -0.5580705E-03 Eh
   gradient norm :     0.0131500 Eh/α   predicted    -0.4116910E-03 ( -26.23%)
   displ. norm   :     0.3557399 α      lambda       -0.7738836E-03
   maximum displ.:     0.1695098 α      in ANC's #4, #6, #8, ...

........................................................................
.............................. CYCLE   27 ..............................
........................................................................

 iter      E             dE          RMSdq      gap      omega  full diag
   1   -100.6768246 -0.100677E+03  0.773E-02    1.02       0.0  T
   2   -100.6767817  0.428969E-04  0.509E-02    1.03       1.0  T
   3   -100.6764613  0.320455E-03  0.681E-02    1.01       1.0  T
   4   -100.6767847 -0.323448E-03  0.235E-02    1.03       1.0  T
   5   -100.6768471 -0.624355E-04  0.470E-03    1.02       2.5  T
   6   -100.6768485 -0.139126E-05  0.198E-03    1.02       5.9  T
   7   -100.6768487 -0.117779E-06  0.928E-04    1.02      12.7  T
   8   -100.6768487 -0.444230E-07  0.225E-04    1.02      52.3  T
     SCC iter.                  ...        0 min,  0.065 sec
     gradient                   ...        0 min,  0.069 sec
 * total energy  :  -100.7106258 Eh     change       -0.5684175E-03 Eh
   gradient norm :     0.0091701 Eh/α   predicted    -0.4359225E-03 ( -23.31%)
   displ. norm   :     0.4206231 α      lambda       -0.6101812E-03
   maximum displ.:     0.1928603 α      in ANC's #4, #6, #22, ...

........................................................................
.............................. CYCLE   28 ..............................
........................................................................

 iter      E             dE          RMSdq      gap      omega  full diag
   1   -100.6749283 -0.100675E+03  0.893E-02    1.06       0.0  T
   2   -100.6748997  0.285669E-04  0.558E-02    1.07       1.0  T
   3   -100.6743415  0.558158E-03  0.800E-02    1.03       1.0  T
   4   -100.6749019 -0.560322E-03  0.205E-02    1.07       1.0  T
   5   -100.6749460 -0.441745E-04  0.524E-03    1.06       2.2  T
   6   -100.6749476 -0.157243E-05  0.230E-03    1.07       5.1  T
   7   -100.6749478 -0.194563E-06  0.945E-04    1.07      12.5  T
   8   -100.6749479 -0.517413E-07  0.243E-04    1.07      48.5  T
     SCC iter.                  ...        0 min,  0.065 sec
     gradient                   ...        0 min,  0.069 sec
 * total energy  :  -100.7110409 Eh     change       -0.4150670E-03 Eh
   gradient norm :     0.0102247 Eh/α   predicted    -0.3590702E-03 ( -13.49%)
   displ. norm   :     0.3494622 α      lambda       -0.5929320E-03
   maximum displ.:     0.1621459 α      in ANC's #4, #6, #8, ...

........................................................................
.............................. CYCLE   29 ..............................
........................................................................

 iter      E             dE          RMSdq      gap      omega  full diag
   1   -100.6772858 -0.100677E+03  0.757E-02    1.08       0.0  T
   2   -100.6772820  0.376714E-05  0.460E-02    1.08       1.0  T
   3   -100.6770038  0.278199E-03  0.558E-02    1.10       1.0  T
   4   -100.6772752 -0.271409E-03  0.132E-02    1.07       1.0  T
   5   -100.6772945 -0.193000E-04  0.449E-03    1.08       2.6  T
   6   -100.6772959 -0.140098E-05  0.246E-03    1.08       4.8  T
   7   -100.6772962 -0.329583E-06  0.886E-04    1.08      13.3  T
   8   -100.6772963 -0.228901E-07  0.403E-04    1.08      29.2  T
     SCC iter.                  ...        0 min,  0.065 sec
     gradient                   ...        0 min,  0.069 sec
 * total energy  :  -100.7113914 Eh     change       -0.3505034E-03 Eh
   gradient norm :     0.0087822 Eh/α   predicted    -0.3326871E-03 (  -5.08%)
   displ. norm   :     0.3405648 α      lambda       -0.3412409E-03
   maximum displ.:     0.1568092 α      in ANC's #4, #8, #6, ...

........................................................................
.............................. CYCLE   30 ..............................
........................................................................

 iter      E             dE          RMSdq      gap      omega  full diag
   1   -100.6755411 -0.100676E+03  0.678E-02    1.09       0.0  T
   2   -100.6755432 -0.208786E-05  0.407E-02    1.09       1.0  T
   3   -100.6754438  0.994714E-04  0.317E-02    1.08       1.0  T
   4   -100.6755410 -0.972642E-04  0.998E-03    1.09       1.2  T
   5   -100.6755474 -0.637447E-05  0.460E-03    1.08       2.6  T
   6   -100.6755489 -0.150780E-05  0.241E-03    1.09       4.9  T
   7   -100.6755493 -0.430058E-06  0.909E-04    1.09      13.0  T
   8   -100.6755494 -0.453421E-07  0.291E-04    1.09      40.5  T
     SCC iter.                  ...        0 min,  0.065 sec
     gradient                   ...        0 min,  0.072 sec
 * total energy  :  -100.7116267 Eh     change       -0.2353343E-03 Eh
   gradient norm :     0.0099997 Eh/α   predicted    -0.1904354E-03 ( -19.08%)
   displ. norm   :     0.2846420 α      lambda       -0.4046897E-03
   maximum displ.:     0.1260685 α      in ANC's #4, #8, #21, ...

........................................................................
.............................. CYCLE   31 ..............................
........................................................................

 iter      E             dE          RMSdq      gap      omega  full diag
   1   -100.6768564 -0.100677E+03  0.593E-02    1.06       0.0  T
   2   -100.6768568 -0.450230E-06  0.354E-02    1.06       1.0  T
   3   -100.6767639  0.928804E-04  0.364E-02    1.07       1.0  T
   4   -100.6768455 -0.815254E-04  0.123E-02    1.06       1.0  T
   5   -100.6768620 -0.164956E-04  0.436E-03    1.07       2.7  T
   6   -100.6768637 -0.178934E-05  0.166E-03    1.06       7.1  T
   7   -100.6768639 -0.131159E-06  0.745E-04    1.06      15.8  T
   8   -100.6768639 -0.207439E-07  0.337E-04    1.06      35.0  T
     SCC iter.                  ...        0 min,  0.065 sec
     gradient                   ...        0 min,  0.069 sec
 * total energy  :  -100.7119052 Eh     change       -0.2784760E-03 Eh
   gradient norm :     0.0094377 Eh/α   predicted    -0.2187719E-03 ( -21.44%)
   displ. norm   :     0.2814428 α      lambda       -0.2675683E-03
   maximum displ.:     0.1313088 α      in ANC's #4, #8, #21, ...

........................................................................
.............................. CYCLE   32 ..............................
........................................................................

 iter      E             dE          RMSdq      gap      omega  full diag
   1   -100.6767138 -0.100677E+03  0.584E-02    1.04       0.0  T
   2   -100.6767065  0.734389E-05  0.356E-02    1.04       1.0  T
   3   -100.6764743  0.232151E-03  0.507E-02    1.05       1.0  T
   4   -100.6767052 -0.230894E-03  0.111E-02    1.04       1.1  T
   5   -100.6767193 -0.140312E-04  0.320E-03    1.04       3.7  T
   6   -100.6767200 -0.697886E-06  0.146E-03    1.04       8.1  T
   7   -100.6767200 -0.813283E-07  0.646E-04    1.04      18.2  T
   8   -100.6767201 -0.298013E-07  0.255E-04    1.04      46.3  T
     SCC iter.                  ...        0 min,  0.065 sec
     gradient                   ...        0 min,  0.069 sec
 * total energy  :  -100.7121112 Eh     change       -0.2059730E-03 Eh
   gradient norm :     0.0102895 Eh/α   predicted    -0.1443899E-03 ( -29.90%)
   displ. norm   :     0.3075386 α      lambda       -0.3364811E-03
   maximum displ.:     0.1539491 α      in ANC's #4, #8, #21, ...

........................................................................
.............................. CYCLE   33 ..............................
........................................................................

 iter      E             dE          RMSdq      gap      omega  full diag
   1   -100.6777162 -0.100678E+03  0.665E-02    1.01       0.0  T
   2   -100.6777022  0.140198E-04  0.408E-02    1.00       1.0  T
   3   -100.6773896  0.312627E-03  0.601E-02    1.02       1.0  T
   4   -100.6777029 -0.313328E-03  0.136E-02    1.00       1.0  T
   5   -100.6777240 -0.211158E-04  0.364E-03    1.01       3.2  T
   6   -100.6777249 -0.915633E-06  0.139E-03    1.00       8.5  T
   7   -100.6777249 -0.193580E-07  0.709E-04    1.00      16.6  T
   8   -100.6777250 -0.541861E-07  0.203E-04    1.00      58.1  T
     SCC iter.                  ...        0 min,  0.065 sec
     gradient                   ...        0 min,  0.070 sec
 * total energy  :  -100.7123447 Eh     change       -0.2335292E-03 Eh
   gradient norm :     0.0070248 Eh/α   predicted    -0.1841537E-03 ( -21.14%)
   displ. norm   :     0.4316027 α      lambda       -0.2867116E-03
   maximum displ.:     0.2319196 α      in ANC's #4, #22, #8, ...

........................................................................
.............................. CYCLE   34 ..............................
........................................................................

 iter      E             dE          RMSdq      gap      omega  full diag
   1   -100.6742134 -0.100674E+03  0.891E-02    0.99       0.0  T
   2   -100.6742173 -0.384705E-05  0.521E-02    0.99       1.0  T
   3   -100.6741457  0.715276E-04  0.308E-02    0.99       1.0  T
   4   -100.6742094 -0.636431E-04  0.103E-02    0.99       1.1  T
   5   -100.6742191 -0.975989E-05  0.494E-03    0.99       2.4  T
   6   -100.6742212 -0.204245E-05  0.245E-03    0.99       4.8  T
   7   -100.6742214 -0.261195E-06  0.104E-03    0.99      11.3  T
   8   -100.6742215 -0.983711E-07  0.328E-04    0.99      35.9  T
   9   -100.6742215 -0.992506E-08  0.132E-04    0.99      89.1  T
     SCC iter.                  ...        0 min,  0.073 sec
     gradient                   ...        0 min,  0.075 sec
 * total energy  :  -100.7124833 Eh     change       -0.1385803E-03 Eh
   gradient norm :     0.0097764 Eh/α   predicted    -0.1700611E-03 (  22.72%)
   displ. norm   :     0.1663287 α      lambda       -0.3006934E-03
   maximum displ.:     0.0915932 α      in ANC's #4, #10, #22, ...

........................................................................
.............................. CYCLE   35 ..............................
........................................................................

 iter      E             dE          RMSdq      gap      omega  full diag
   1   -100.6777515 -0.100678E+03  0.386E-02    0.99       0.0  T
   2   -100.6777496  0.182335E-05  0.233E-02    0.99       1.0  T
   3   -100.6776496  0.999891E-04  0.315E-02    0.98       1.0  T
   4   -100.6777485 -0.988094E-04  0.862E-03    0.99       1.4  T
   5   -100.6777555 -0.704097E-05  0.378E-03    0.99       3.1  T
   6   -100.6777567 -0.118363E-05  0.110E-03    0.99      10.7  T
   7   -100.6777567 -0.503099E-07  0.545E-04    0.99      21.6  T
   8   -100.6777567 -0.740395E-08  0.165E-04    0.99      71.3  T
     SCC iter.                  ...        0 min,  0.065 sec
     gradient                   ...        0 min,  0.069 sec
 * total energy  :  -100.7126697 Eh     change       -0.1863852E-03 Eh
   gradient norm :     0.0055838 Eh/α   predicted    -0.1545092E-03 ( -17.10%)
   displ. norm   :     0.2744272 α      lambda       -0.1898191E-03
   maximum displ.:     0.1694876 α      in ANC's #4, #22, #8, ...

........................................................................
.............................. CYCLE   36 ..............................
........................................................................

 iter      E             dE          RMSdq      gap      omega  full diag
   1   -100.6774016 -0.100677E+03  0.643E-02    1.00       0.0  T
   2   -100.6773919  0.971945E-05  0.383E-02    1.01       1.0  T
   3   -100.6769636  0.428257E-03  0.617E-02    0.97       1.0  T
   4   -100.6774045 -0.440922E-03  0.666E-03    1.00       1.8  T
   5   -100.6774078 -0.328905E-05  0.266E-03    1.00       4.4  T
   6   -100.6774079 -0.197898E-07  0.209E-03    1.00       5.6  T
   7   -100.6774082 -0.320992E-06  0.545E-04    1.00      21.6  T
   8   -100.6774082 -0.176786E-07  0.140E-04    1.00      84.0  T
     SCC iter.                  ...        0 min,  0.065 sec
     gradient                   ...        0 min,  0.069 sec
 * total energy  :  -100.7128315 Eh     change       -0.1618622E-03 Eh
   gradient norm :     0.0066092 Eh/α   predicted    -0.1020635E-03 ( -36.94%)
   displ. norm   :     0.4831897 α      lambda       -0.4008553E-03
   maximum displ.:     0.2958488 α      in ANC's #4, #22, #8, ...

........................................................................
.............................. CYCLE   37 ..............................
........................................................................

 iter      E             dE          RMSdq      gap      omega  full diag
   1   -100.6779997 -0.100678E+03  0.114E-01    1.03       0.0  T
   2   -100.6779613  0.383387E-04  0.686E-02    1.05       1.0  T
   3   -100.6767787  0.118263E-02  0.108E-01    0.97       1.0  T
   4   -100.6779862 -0.120748E-02  0.190E-02    1.05       1.0  T
   5   -100.6780220 -0.358622E-04  0.536E-03    1.04       2.2  T
   6   -100.6780229 -0.862660E-06  0.293E-03    1.04       4.0  T
   7   -100.6780234 -0.458104E-06  0.837E-04    1.04      14.1  T
   8   -100.6780234 -0.379934E-07  0.280E-04    1.04      42.1  T
     SCC iter.                  ...        0 min,  0.065 sec
     gradient                   ...        0 min,  0.069 sec
 * total energy  :  -100.7131090 Eh     change       -0.2774374E-03 Eh
   gradient norm :     0.0069105 Eh/α   predicted    -0.2472235E-03 ( -10.89%)
   displ. norm   :     0.3726104 α      lambda       -0.2557099E-03
   maximum displ.:     0.2252728 α      in ANC's #4, #22, #10, ...

........................................................................
.............................. CYCLE   38 ..............................
........................................................................

 iter      E             dE          RMSdq      gap      omega  full diag
   1   -100.6761134 -0.100676E+03  0.100E-01    1.06       0.0  T
   2   -100.6761077  0.569990E-05  0.594E-02    1.06       1.0  T
   3   -100.6757701  0.337635E-03  0.661E-02    1.05       1.0  T
   4   -100.6761168 -0.346697E-03  0.131E-02    1.07       1.0  T
   5   -100.6761294 -0.126284E-04  0.746E-03    1.05       1.6  T
   6   -100.6761345 -0.506283E-05  0.280E-03    1.06       4.2  T
   7   -100.6761349 -0.400122E-06  0.987E-04    1.06      11.9  T
   8   -100.6761349 -0.549616E-07  0.261E-04    1.06      45.1  T
     SCC iter.                  ...        0 min,  0.065 sec
     gradient                   ...        0 min,  0.069 sec
 * total energy  :  -100.7132627 Eh     change       -0.1537881E-03 Eh
   gradient norm :     0.0091138 Eh/α   predicted    -0.1456074E-03 (  -5.32%)
   displ. norm   :     0.3467762 α      lambda       -0.2899902E-03
   maximum displ.:     0.1908352 α      in ANC's #4, #6, #7, ...

........................................................................
.............................. CYCLE   39 ..............................
........................................................................

 iter      E             dE          RMSdq      gap      omega  full diag
   1   -100.6785459 -0.100679E+03  0.789E-02    1.07       0.0  T
   2   -100.6785407  0.514454E-05  0.464E-02    1.06       1.0  T
   3   -100.6781545  0.386196E-03  0.576E-02    1.10       1.0  T
   4   -100.6785494 -0.394872E-03  0.845E-03    1.06       1.4  T
   5   -100.6785536 -0.418544E-05  0.410E-03    1.07       2.9  T
   6   -100.6785543 -0.725620E-06  0.147E-03    1.07       8.0  T
   7   -100.6785544 -0.651385E-07  0.899E-04    1.07      13.1  T
   8   -100.6785545 -0.119151E-06  0.199E-04    1.07      59.1  T
     SCC iter.                  ...        0 min,  0.065 sec
     gradient                   ...        0 min,  0.071 sec
 * total energy  :  -100.7134709 Eh     change       -0.2081463E-03 Eh
   gradient norm :     0.0085579 Eh/α   predicted    -0.1624349E-03 ( -21.96%)
   displ. norm   :     0.4830869 α      lambda       -0.3697144E-03
   maximum displ.:     0.2807952 α      in ANC's #4, #22, #6, ...

........................................................................
.............................. CYCLE   40 ..............................
........................................................................

 iter      E             dE          RMSdq      gap      omega  full diag
   1   -100.6768355 -0.100677E+03  0.104E-01    1.06       0.0  T
   2   -100.6767749  0.606014E-04  0.651E-02    1.03       1.0  T
   3   -100.6753824  0.139250E-02  0.113E-01    1.10       1.0  T
   4   -100.6768575 -0.147510E-02  0.621E-03    1.05       1.9  T
   5   -100.6768588 -0.129095E-05  0.370E-03    1.05       3.2  T
   6   -100.6768591 -0.248618E-06  0.229E-03    1.05       5.2  T
   7   -100.6768593 -0.253563E-06  0.110E-03    1.05      10.8  T
   8   -100.6768594 -0.945918E-07  0.227E-04    1.05      52.0  T
   9   -100.6768594 -0.175994E-08  0.140E-04    1.05      84.2  T
     SCC iter.                  ...        0 min,  0.073 sec
     gradient                   ...        0 min,  0.069 sec
 * total energy  :  -100.7137223 Eh     change       -0.2514325E-03 Eh
   gradient norm :     0.0091448 Eh/α   predicted    -0.2279998E-03 (  -9.32%)
   displ. norm   :     0.4813433 α      lambda       -0.8133299E-03
   maximum displ.:     0.2667117 α      in ANC's #6, #7, #4, ...

........................................................................
.............................. CYCLE   41 ..............................
........................................................................

 iter      E             dE          RMSdq      gap      omega  full diag
   1   -100.6892001 -0.100689E+03  0.116E-01    1.03       0.0  T
   2   -100.6886784  0.521720E-03  0.100E-01    0.97       1.0  T
   3   -100.6883170  0.361376E-03  0.103E-01    1.05       1.0  T
   4   -100.6892934 -0.976324E-03  0.235E-02    1.01       1.0  T
   5   -100.6893323 -0.389018E-04  0.106E-02    1.02       1.1  T
   6   -100.6893408 -0.849702E-05  0.420E-03    1.02       2.8  T
   7   -100.6893415 -0.784762E-06  0.178E-03    1.02       6.6  T
   8   -100.6893417 -0.113920E-06  0.576E-04    1.02      20.4  T
   9   -100.6893417 -0.166471E-07  0.360E-04    1.02      32.7  T
     SCC iter.                  ...        0 min,  0.073 sec
     gradient                   ...        0 min,  0.069 sec
 * total energy  :  -100.7132694 Eh     change        0.4529396E-03 Eh
   gradient norm :     0.0275171 Eh/α   predicted    -0.5008889E-03 (-210.59%)
   displ. norm   :     0.2632904 α      lambda       -0.1647899E-02
   maximum displ.:     0.1368440 α      in ANC's #4, #21, #22, ...

........................................................................
.............................. CYCLE   42 ..............................
........................................................................

 iter      E             dE          RMSdq      gap      omega  full diag
   1   -100.6772454 -0.100677E+03  0.104E-01    1.02       0.0  T
   2   -100.6772703 -0.249222E-04  0.637E-02    1.03       1.0  T
   3   -100.6765953  0.674995E-03  0.742E-02    0.97       1.0  T
   4   -100.6772186 -0.623336E-03  0.304E-02    1.04       1.0  T
   5   -100.6773076 -0.890126E-04  0.633E-03    1.02       1.9  T
   6   -100.6773107 -0.306674E-05  0.276E-03    1.02       4.3  T
   7   -100.6773107 -0.301246E-07  0.154E-03    1.02       7.7  T
   8   -100.6773109 -0.120770E-06  0.743E-04    1.02      15.9  T
   9   -100.6773109 -0.464743E-07  0.235E-04    1.02      50.2  T
     SCC iter.                  ...        0 min,  0.073 sec
     gradient                   ...        0 min,  0.069 sec
 * total energy  :  -100.7139854 Eh     change       -0.7160436E-03 Eh
   gradient norm :     0.0185838 Eh/α   predicted    -0.8810733E-03 (  23.05%)
   displ. norm   :     0.1597011 α      lambda       -0.7008645E-03
   maximum displ.:     0.0689754 α      in ANC's #22, #4, #6, ...
 * RMSD in coord.:     0.6512589 α      energy gain  -0.1331506E-01 Eh

generating ANC from model Hessian ...
Using Lindh-Hessian (1995)
 Shifting diagonal of input Hessian by    9.9450715334794479E-003
 Lowest  eigenvalues of input Hessian
    0.000000    0.000000    0.000000    0.000000    0.000000    0.000000
    0.010000    0.010041    0.010112    0.010323    0.010600    0.010610
    0.010733    0.010905    0.010966    0.011404    0.011806    0.012343
 Highest eigenvalues
    2.016447    2.047525    2.048042    2.123478    2.184595    2.222093


........................................................................
.............................. CYCLE   43 ..............................
........................................................................

 iter      E             dE          RMSdq      gap      omega  full diag
   1   -100.6765917 -0.100677E+03  0.642E-02    1.04       0.0  T
   2   -100.6765767  0.150631E-04  0.440E-02    1.06       1.0  T
   3   -100.6762322  0.344489E-03  0.614E-02    1.00       1.0  T
   4   -100.6766023 -0.370164E-03  0.159E-02    1.05       1.0  T
   5   -100.6766272 -0.248529E-04  0.570E-03    1.04       2.1  T
   6   -100.6766294 -0.221711E-05  0.277E-03    1.05       4.2  T
   7   -100.6766298 -0.343457E-06  0.132E-03    1.05       8.9  T
   8   -100.6766298 -0.680970E-07  0.346E-04    1.05      34.1  T
   9   -100.6766298 -0.334981E-08  0.183E-04    1.05      64.4  T
     SCC iter.                  ...        0 min,  0.073 sec
     gradient                   ...        0 min,  0.069 sec
 * total energy  :  -100.7139730 Eh     change        0.1244990E-04 Eh
   gradient norm :     0.0136846 Eh/α   predicted     0.0000000E+00 (-100.00%)
   displ. norm   :     0.0895478 α      lambda       -0.4718596E-03
   maximum displ.:     0.0454951 α      in ANC's #30, #29, #8, ...

........................................................................
.............................. CYCLE   44 ..............................
........................................................................

 iter      E             dE          RMSdq      gap      omega  full diag
   1   -100.6796135 -0.100680E+03  0.563E-02    1.04       0.0  T
   2   -100.6796100  0.343793E-05  0.333E-02    1.03       1.0  T
   3   -100.6793363  0.273791E-03  0.510E-02    1.07       1.0  T
   4   -100.6796208 -0.284553E-03  0.526E-03    1.04       2.2  T
   5   -100.6796229 -0.206969E-05  0.289E-03    1.04       4.1  T
   6   -100.6796233 -0.428283E-06  0.181E-03    1.04       6.5  T
   7   -100.6796235 -0.141778E-06  0.672E-04    1.04      17.5  T
   8   -100.6796235 -0.333178E-07  0.283E-04    1.04      41.7  T
     SCC iter.                  ...        0 min,  0.064 sec
     gradient                   ...        0 min,  0.069 sec
 * total energy  :  -100.7143009 Eh     change       -0.3279039E-03 Eh
   gradient norm :     0.0036958 Eh/α   predicted    -0.2378302E-03 ( -27.47%)
   displ. norm   :     0.1637877 α      lambda       -0.2942909E-03
   maximum displ.:     0.0990379 α      in ANC's #30, #29, #8, ...

........................................................................
.............................. CYCLE   45 ..............................
........................................................................

 iter      E             dE          RMSdq      gap      omega  full diag
   1   -100.6810990 -0.100681E+03  0.941E-02    1.03       0.0  T
   2   -100.6810860  0.129600E-04  0.549E-02    1.01       1.0  T
   3   -100.6803049  0.781114E-03  0.841E-02    1.06       1.0  T
   4   -100.6811162 -0.811245E-03  0.514E-03    1.02       2.3  T
   5   -100.6811164 -0.213636E-06  0.365E-03    1.02       3.2  T
   6   -100.6811166 -0.198460E-06  0.296E-03    1.02       4.0  T
   7   -100.6811172 -0.600957E-06  0.395E-04    1.02      29.8  T
   8   -100.6811172 -0.715610E-08  0.268E-04    1.02      44.0  T
     SCC iter.                  ...        0 min,  0.065 sec
     gradient                   ...        0 min,  0.069 sec
 * total energy  :  -100.7145177 Eh     change       -0.2168125E-03 Eh
   gradient norm :     0.0076722 Eh/α   predicted    -0.1511533E-03 ( -30.28%)
   displ. norm   :     0.2917849 α      lambda       -0.3633864E-03
   maximum displ.:     0.1753930 α      in ANC's #30, #29, #6, ...

........................................................................
.............................. CYCLE   46 ..............................
........................................................................

 iter      E             dE          RMSdq      gap      omega  full diag
   1   -100.6799855 -0.100680E+03  0.161E-01    1.00       0.0  T
   2   -100.6799612  0.243032E-04  0.939E-02    0.98       1.0  T
   3   -100.6779689  0.199232E-02  0.134E-01    1.04       1.0  T
   4   -100.6800330 -0.206417E-02  0.843E-03    1.00       1.4  T
   5   -100.6800340 -0.972156E-06  0.552E-03    1.00       2.1  T
   6   -100.6800343 -0.326883E-06  0.430E-03    1.00       2.7  T
   7   -100.6800357 -0.137248E-05  0.778E-04    1.00      15.2  T
   8   -100.6800358 -0.466232E-07  0.429E-04    1.00      27.5  T
   9   -100.6800358 -0.123858E-07  0.187E-04    1.00      63.1  T
     SCC iter.                  ...        0 min,  0.073 sec
     gradient                   ...        0 min,  0.069 sec
 * total energy  :  -100.7147455 Eh     change       -0.2278581E-03 Eh
   gradient norm :     0.0184991 Eh/α   predicted    -0.1971646E-03 ( -13.47%)
   displ. norm   :     0.2039013 α      lambda       -0.3441204E-03
   maximum displ.:     0.1069912 α      in ANC's #30, #6, #29, ...

........................................................................
.............................. CYCLE   47 ..............................
........................................................................

 iter      E             dE          RMSdq      gap      omega  full diag
   1   -100.6791602 -0.100679E+03  0.938E-02    0.98       0.0  T
   2   -100.6791478  0.123865E-04  0.545E-02    0.97       1.0  T
   3   -100.6783788  0.769035E-03  0.824E-02    1.01       1.0  T
   4   -100.6791755 -0.796785E-03  0.470E-03    0.98       2.5  T
   5   -100.6791752  0.352526E-06  0.360E-03    0.98       3.3  T
   6   -100.6791756 -0.430997E-06  0.250E-03    0.98       4.7  T
   7   -100.6791761 -0.454335E-06  0.308E-04    0.98      38.3  T
   8   -100.6791761 -0.321705E-08  0.191E-04    0.98      61.8  T
     SCC iter.                  ...        0 min,  0.065 sec
     gradient                   ...        0 min,  0.069 sec
 * total energy  :  -100.7150418 Eh     change       -0.2962457E-03 Eh
   gradient norm :     0.0189684 Eh/α   predicted    -0.1792215E-03 ( -39.50%)
   displ. norm   :     0.4626674 α      lambda       -0.1278807E-02
   maximum displ.:     0.1980549 α      in ANC's #30, #6, #18, ...

........................................................................
.............................. CYCLE   48 ..............................
........................................................................

 iter      E             dE          RMSdq      gap      omega  full diag
   1   -100.6769933 -0.100677E+03  0.178E-01    0.94       0.0  T
   2   -100.6769413  0.520067E-04  0.104E-01    0.92       1.0  T
   3   -100.6740378  0.290355E-02  0.160E-01    0.96       1.0  T
   4   -100.6770528 -0.301499E-02  0.108E-02    0.93       1.1  T
   5   -100.6770555 -0.273532E-05  0.661E-03    0.94       1.8  T
   6   -100.6770552  0.342070E-06  0.574E-03    0.93       2.1  T
   7   -100.6770576 -0.245965E-05  0.886E-04    0.93      13.3  T
   8   -100.6770577 -0.345488E-07  0.368E-04    0.93      32.0  T
   9   -100.6770577 -0.334283E-08  0.213E-04    0.93      55.3  T
     SCC iter.                  ...        0 min,  0.072 sec
     gradient                   ...        0 min,  0.070 sec
 * total energy  :  -100.7159182 Eh     change       -0.8764422E-03 Eh
   gradient norm :     0.0085556 Eh/α   predicted    -0.7762857E-03 ( -11.43%)
   displ. norm   :     0.6013413 α      lambda       -0.9162604E-03
   maximum displ.:     0.2859107 α      in ANC's #30, #6, #29, ...

........................................................................
.............................. CYCLE   49 ..............................
........................................................................

 iter      E             dE          RMSdq      gap      omega  full diag
   1   -100.6662034 -0.100666E+03  0.256E-01    0.89       0.0  T
   2   -100.6662628 -0.594007E-04  0.149E-01    0.88       1.0  T
   3   -100.6634783  0.278446E-02  0.164E-01    0.92       1.0  T
   4   -100.6662552 -0.277686E-02  0.322E-02    0.88       1.0  T
   5   -100.6663773 -0.122120E-03  0.123E-02    0.89       1.0  T
   6   -100.6663879 -0.106230E-04  0.647E-03    0.89       1.8  T
   7   -100.6663913 -0.343697E-05  0.178E-03    0.89       6.6  T
   8   -100.6663915 -0.162937E-06  0.102E-03    0.89      11.5  T
   9   -100.6663916 -0.753979E-07  0.399E-04    0.89      29.6  T
  10   -100.6663916 -0.549650E-08  0.218E-04    0.89      54.0  T
     SCC iter.                  ...        0 min,  0.080 sec
     gradient                   ...        0 min,  0.069 sec
 * total energy  :  -100.7160942 Eh     change       -0.1759738E-03 Eh
   gradient norm :     0.0343601 Eh/α   predicted    -0.6238164E-03 ( 254.49%)
   displ. norm   :     0.1478326 α      lambda       -0.1626637E-02
   maximum displ.:     0.0771734 α      in ANC's #6, #30, #9, ...

........................................................................
.............................. CYCLE   50 ..............................
........................................................................

 iter      E             dE          RMSdq      gap      omega  full diag
   1   -100.6768016 -0.100677E+03  0.490E-02    0.89       0.0  T
   2   -100.6768306 -0.289496E-04  0.348E-02    0.89       1.0  T
   3   -100.6768100  0.205266E-04  0.185E-02    0.89       1.0  T
   4   -100.6767315  0.785782E-04  0.291E-02    0.88       1.0  T
   5   -100.6768396 -0.108126E-03  0.359E-03    0.89       3.3  T
   6   -100.6768407 -0.109490E-05  0.126E-03    0.89       9.4  T
   7   -100.6768407 -0.404549E-08  0.689E-04    0.89      17.1  T
   8   -100.6768407 -0.311335E-07  0.252E-04    0.89      46.8  T
     SCC iter.                  ...        0 min,  0.065 sec
     gradient                   ...        0 min,  0.069 sec
 * total energy  :  -100.7169265 Eh     change       -0.8322678E-03 Eh
   gradient norm :     0.0265465 Eh/α   predicted    -0.8310945E-03 (  -0.14%)
   displ. norm   :     0.3608203 α      lambda       -0.8888682E-03
   maximum displ.:     0.2054145 α      in ANC's #6, #30, #4, ...

........................................................................
.............................. CYCLE   51 ..............................
........................................................................

 iter      E             dE          RMSdq      gap      omega  full diag
   1   -100.6785993 -0.100679E+03  0.121E-01    0.88       0.0  T
   2   -100.6785979  0.134991E-05  0.702E-02    0.87       1.0  T
   3   -100.6777628  0.835111E-03  0.876E-02    0.89       1.0  T
   4   -100.6786102 -0.847380E-03  0.150E-02    0.87       1.0  T
   5   -100.6786319 -0.217680E-04  0.558E-03    0.88       2.1  T
[...]
         :: -> anisotropic XC          0.036148522177 Eh    ::
         :: -> dispersion             -0.076664146932 Eh    ::
         :: repulsion energy           1.450693669658 Eh    ::
         :: add. restraining          -1.529932200441 Eh    ::
         :: total charge               1.000000000000 e     ::
         :::::::::::::::::::::::::::::::::::::::::::::::::::::

           -------------------------------------------------
          |                Property Printout                |
           -------------------------------------------------

    * Orbital Energies and Occupations

         #    Occupation            Energy/Eh            Energy/eV
      -------------------------------------------------------------
         1        2.0000           -0.8343873             -22.7048
       ...           ...                  ...                  ...
        78        1.9974           -0.5288932             -14.3919
        79        1.9971           -0.5275797             -14.3562
        80        1.9965           -0.5245595             -14.2740
        81        1.9949           -0.5184177             -14.1069
        82        1.9942           -0.5164303             -14.0528
        83        1.9922           -0.5117295             -13.9249
        84        1.9899           -0.5076000             -13.8125
        85        1.9814           -0.4978870             -13.5482
        86        1.9742           -0.4926281             -13.4051
        87        1.9661           -0.4882733             -13.2866
        88        1.8863           -0.4684432             -12.7470
        89        1.8173           -0.4603395             -12.5265
        90        1.6811           -0.4502843             -12.2529 (HOMO)
        91        0.7399           -0.4155321             -11.3072 (LUMO)
        92        0.0025           -0.3180725              -8.6552
        93        0.0017           -0.3115757              -8.4784
        94        0.0014           -0.3092409              -8.4149
        95        0.0000           -0.2470030              -6.7213
        96        0.0000           -0.1869279              -5.0866
        97                         -0.1110926              -3.0230
        98                         -0.0995880              -2.7099
        99                         -0.0889510              -2.4205
       100                         -0.0838413              -2.2814
       101                         -0.0766305              -2.0852
       ...                                ...                  ...
       171                          1.1217959              30.5256
      -------------------------------------------------------------
                  HL-Gap            0.0347522 Eh            0.9457 eV
             Fermi-level           -0.4239615 Eh          -11.5366 eV

     #   Z          covCN         q      C6AA      α(0)
     1   7 N        2.682    -0.212    25.612     7.516
     2   6 C        4.040     0.041    19.811     6.323
     3   6 C        4.141     0.010    20.326     6.403
     4   6 C        3.242     0.007    26.925     8.411
     5   6 C        2.895    -0.069    29.716     8.938
     6   6 C        2.867     0.137    24.999     8.196
     7   8 O        1.705    -0.214    17.548     5.656
     8   6 C        3.644     0.020    20.577     6.520
     9   6 C        3.748     0.088    19.180     6.246
    10   8 O        1.694    -0.330    19.526     5.966
    11   6 C        3.637     0.036    20.336     6.488
    12   6 C        2.896    -0.056    29.393     8.889
    13   6 C        3.192    -0.009    27.743     8.590
    14   6 C        3.809    -0.060    21.653     6.624
    15   6 C        3.805    -0.071    21.849     6.654
    16   6 C        3.728     0.097    19.080     6.236
    17   7 N        2.728    -0.121    23.636     7.221
    18   6 C        3.749    -0.004    20.706     6.490
    19   6 C        3.806    -0.072    21.868     6.657
    20   6 C        2.968     0.009    27.806     8.649
    21   6 C        2.922    -0.044    29.093     8.845
    22   6 C        2.913    -0.065    29.622     8.925
    23   6 C        2.864     0.135    25.041     8.203
    24   8 O        1.706    -0.215    17.573     5.660
    25   6 C        3.645     0.023    20.516     6.510
    26   6 C        2.862     0.136    25.035     8.201
    27   8 O        1.706    -0.218    17.625     5.668
    28   6 C        3.645     0.025    20.484     6.505
    29   6 C        2.919    -0.077    29.912     8.969
    30   6 C        3.693    -0.054    21.727     6.669
    31   6 C        3.850    -0.014    20.784     6.484
    32   6 C        3.755    -0.112    22.697     6.793
    33   6 C        3.756    -0.114    22.745     6.800
    34   1 H        0.926     0.059     2.209     2.324
    35   1 H        0.924     0.064     2.150     2.293
    36   1 H        0.925     0.087     1.912     2.162
    37   1 H        0.924     0.065     2.141     2.288
    38   1 H        0.924     0.048     2.345     2.395
    39   1 H        0.925     0.069     2.101     2.267
    40   1 H        0.924     0.042     2.422     2.434
    41   1 H        0.926     0.059     2.205     2.322
    42   1 H        0.930     0.102     1.768     2.079
    43   1 H        0.924     0.052     2.291     2.367
    44   1 H        0.925     0.060     2.199     2.319
    45   1 H        0.925     0.061     2.193     2.316
    46   1 H        0.924     0.049     2.338     2.391
    47   1 H        0.924     0.061     2.182     2.310
    48   1 H        0.923     0.051     2.304     2.374
    49   1 H        0.924     0.053     2.281     2.362
    50   1 H        0.924     0.051     2.309     2.376
    51   1 H        0.924     0.049     2.327     2.385
    52   1 H        0.924     0.056     2.250     2.346
    53   1 H        0.926     0.052     2.300     2.371
    54   1 H        0.926     0.061     2.187     2.313
    55   1 H        0.924     0.058     2.228     2.334
    56   1 H        0.924     0.059     2.212     2.326
    57   1 H        0.925     0.084     1.935     2.175
    58   1 H        0.925     0.084     1.942     2.179
    59   1 H        0.924     0.053     2.284     2.363
    60   1 H        0.924     0.056     2.247     2.344
    61   1 H        0.926     0.053     2.282     2.363
    62   1 H        0.924     0.048     2.339     2.392
    63   1 H        0.925     0.077     2.008     2.216
    64   1 H        0.925     0.059     2.211     2.325
    65   1 H        0.924     0.046     2.374     2.410
    66   1 H        0.925     0.040     2.446     2.446
    67   1 H        0.925     0.036     2.497     2.471
    68   1 H        0.925     0.054     2.273     2.358
    69   1 H        0.925     0.047     2.358     2.401
    70   1 H        0.925     0.043     2.407     2.426
    71   1 H        0.925     0.055     2.255     2.348
    72   1 H        0.860     0.162     1.324     1.803

 Mol. C6AA /au·bohr⁶  :      46381.692875
 Mol. C8AA /au·bohr⁸  :    1054293.673627
 Mol. α(0) /au        :        327.379271


Wiberg/Mayer (AO) data.
largest (>0.10) Wiberg bond orders for each atom

 ---------------------------------------------------------------------------
     #   Z sym  total        # sym  WBO       # sym  WBO       # sym  WBO
 ---------------------------------------------------------------------------
     1   7 N    3.072 --     2 C    1.030    16 C    0.982    72 H    0.943
     2   6 C    3.958 --     1 N    1.030    47 H    0.945    13 C    0.944
                             3 C    0.941
     3   6 C    3.963 --     4 C    0.991    14 C    0.969    31 C    0.958
                             2 C    0.941
     4   6 C    3.682 --     5 C    1.378    13 C    1.192     3 C    0.991
     5   6 C    3.957 --     6 C    1.431     4 C    1.378    34 H    0.956
     6   6 C    3.687 --     5 C    1.431     7 O    1.160     9 C    0.973
     7   8 O    2.268 --     6 C    1.160     8 C    0.962
     8   6 C    3.921 --    36 H    0.977    35 H    0.972    37 H    0.972
                             7 O    0.962
     9   6 C    3.942 --    12 C    0.998     6 C    0.973    42 H    0.967
                            10 O    0.908
    10   8 O    2.008 --    11 C    0.993     9 C    0.908
    11   6 C    3.935 --    10 O    0.993    40 H    0.976    38 H    0.973
                            39 H    0.971
    12   6 C    3.770 --    13 C    1.670     9 C    0.998    41 H    0.964
    13   6 C    3.933 --    12 C    1.670     4 C    1.192     2 C    0.944
    14   6 C    3.972 --    15 C    1.005    43 H    0.971     3 C    0.969
                            44 H    0.965
    15   6 C    3.979 --    14 C    1.005    16 C    0.985    46 H    0.974
                            45 H    0.964
    16   6 C    3.961 --    17 N    0.988    15 C    0.985     1 N    0.982
                            48 H    0.945
    17   7 N    3.125 --    18 C    1.019    30 C    1.016    16 C    0.988
    18   6 C    3.961 --    17 N    1.019    50 H    0.969    49 H    0.964
                            19 C    0.949
    19   6 C    3.962 --    20 C    1.019    51 H    0.972    52 H    0.968
                            18 C    0.949
    20   6 C    3.925 --    21 C    1.389    29 C    1.379    19 C    1.019
    21   6 C    3.925 --    22 C    1.425    20 C    1.389    53 H    0.967
    22   6 C    3.948 --    21 C    1.425    23 C    1.373    54 H    0.962
    23   6 C    3.870 --    22 C    1.373    26 C    1.208    24 O    1.117
    24   8 O    2.247 --    23 C    1.117    25 C    0.975
    25   6 C    3.925 --    57 H    0.976    24 O    0.975    55 H    0.971
                            56 H    0.971
    26   6 C    3.880 --    29 C    1.391    23 C    1.208    27 O    1.111
    27   8 O    2.249 --    26 C    1.111    28 C    0.977
    28   6 C    3.928 --    27 O    0.977    58 H    0.976    59 H    0.972
                            60 H    0.972
    29   6 C    3.949 --    26 C    1.391    20 C    1.379    61 H    0.961
    30   6 C    3.955 --    17 N    1.016    64 H    0.976    63 H    0.960
                            62 H    0.959
    31   6 C    3.969 --    32 C    1.007    33 C    1.006    65 H    0.960
                             3 C    0.958
    32   6 C    3.986 --    31 C    1.007    68 H    0.983    66 H    0.982
                            67 H    0.982
    33   6 C    3.985 --    31 C    1.006    69 H    0.983    71 H    0.980
                            70 H    0.980
    34   1 H    0.994 --     5 C    0.956
    35   1 H    0.990 --     8 C    0.972
    36   1 H    0.992 --     8 C    0.977
    37   1 H    0.990 --     8 C    0.972
    38   1 H    0.993 --    11 C    0.973
    39   1 H    0.991 --    11 C    0.971
    40   1 H    0.994 --    11 C    0.976
    41   1 H    0.994 --    12 C    0.964
    42   1 H    0.984 --     9 C    0.967
    43   1 H    0.995 --    14 C    0.971
    44   1 H    0.993 --    14 C    0.965
    45   1 H    0.995 --    15 C    0.964
    46   1 H    0.996 --    15 C    0.974
    47   1 H    0.990 --     2 C    0.945
    48   1 H    0.984 --    16 C    0.945
    49   1 H    0.989 --    18 C    0.964
    50   1 H    0.995 --    18 C    0.969
    51   1 H    0.995 --    19 C    0.972
    52   1 H    0.994 --    19 C    0.968
    53   1 H    0.996 --    21 C    0.967
    54   1 H    0.994 --    22 C    0.962
    55   1 H    0.989 --    25 C    0.971
    56   1 H    0.989 --    25 C    0.971
    57   1 H    0.992 --    25 C    0.976
    58   1 H    0.992 --    28 C    0.976
    59   1 H    0.991 --    28 C    0.972
    60   1 H    0.990 --    28 C    0.972
    61   1 H    0.995 --    29 C    0.961
    62   1 H    0.972 --    30 C    0.959
    63   1 H    0.986 --    30 C    0.960
    64   1 H    0.993 --    30 C    0.976
    65   1 H    0.992 --    31 C    0.960
    66   1 H    0.996 --    32 C    0.982
    67   1 H    0.997 --    32 C    0.982
    68   1 H    0.995 --    32 C    0.983
    69   1 H    0.996 --    33 C    0.983
    70   1 H    0.996 --    33 C    0.980
    71   1 H    0.993 --    33 C    0.980
    72   1 H    0.972 --     1 N    0.943
 ---------------------------------------------------------------------------

Topologies differ in total number of bonds
Writing topology from bond orders to xtbtopo.mol

molecular dipole:
                 x           y           z       tot (Debye)
 q only:       -0.464       0.061      -0.142
   full:       -0.709      -0.252      -0.210       1.986
molecular quadrupole (traceless):
                xx          xy          yy          xz          yz          zz
 q only:       82.942       8.410     -26.345       5.470      -2.119     -56.597
  q+dip:       81.212      12.496     -26.495       6.259      -5.142     -54.717
   full:       81.438      12.097     -27.604       4.359      -2.881     -53.834

           -------------------------------------------------
          |                Geometry Summary                 |
           -------------------------------------------------

      molecular mass/u    :      455.6105846
   center of mass at/Å    :        0.0492342       0.0453863       0.0336403
  moments of inertia/u·Å² :        0.2047047E+04   0.1056442E+05   0.1202951E+05
rotational constants/cm⁻¹ :        0.8235098E-02   0.1595699E-02   0.1401357E-02

 * 68 selected distances

     #   Z          #   Z                                           value/Å
     1   7 N        2   6 C                                       1.4266573
     3   6 C        4   6 C                                       1.5081765
     4   6 C        5   6 C                                       1.3825764
     5   6 C        6   6 C                                       1.3812932
     6   6 C        7   8 O                                       1.3354735
     7   8 O        8   6 C                                       1.4148052
    10   8 O       11   6 C                                       1.4070906
     4   6 C       13   6 C                                       1.4178897
    12   6 C       13   6 C                                       1.3406160
     3   6 C       14   6 C                                       1.5339505
    14   6 C       15   6 C                                       1.5274444
     1   7 N       16   6 C                                       1.4570705
    15   6 C       16   6 C                                       1.5322960
    16   6 C       17   7 N                                       1.4486381
    17   7 N       18   6 C                                       1.4348069
    20   6 C       21   6 C                                       1.3885733
    21   6 C       22   6 C                                       1.3851529
    22   6 C       23   6 C                                       1.3891422
    23   6 C       24   8 O                                       1.3443189
    24   8 O       25   6 C                                       1.4091261
    23   6 C       26   6 C                                       1.4248381
    26   6 C       27   8 O                                       1.3458780
    27   8 O       28   6 C                                       1.4079748
    20   6 C       29   6 C                                       1.3930786
    26   6 C       29   6 C                                       1.3865191
    17   7 N       30   6 C                                       1.4382656
     3   6 C       31   6 C                                       1.5391478 (max)
    31   6 C       32   6 C                                       1.5289459
    31   6 C       33   6 C                                       1.5277580
     5   6 C       34   1 H                                       1.0785304
     8   6 C       35   1 H                                       1.0927042
     8   6 C       36   1 H                                       1.0879308
     8   6 C       37   1 H                                       1.0926323
    11   6 C       38   1 H                                       1.0938594
    11   6 C       39   1 H                                       1.0884056
    11   6 C       40   1 H                                       1.0940744
    12   6 C       41   1 H                                       1.0775440
     9   6 C       42   1 H                                       0.7861309 (min)
    14   6 C       43   1 H                                       1.0908429
    14   6 C       44   1 H                                       1.0895137
    15   6 C       45   1 H                                       1.0888887
    15   6 C       46   1 H                                       1.0907563
     2   6 C       47   1 H                                       1.0912042
    16   6 C       48   1 H                                       1.1029834
    18   6 C       49   1 H                                       1.0951943
    18   6 C       50   1 H                                       1.0928520
    19   6 C       51   1 H                                       1.0914201
    19   6 C       52   1 H                                       1.0907838
    21   6 C       53   1 H                                       1.0792955
    22   6 C       54   1 H                                       1.0777787
    25   6 C       55   1 H                                       1.0942413
    25   6 C       56   1 H                                       1.0942333
    25   6 C       57   1 H                                       1.0884939
    28   6 C       58   1 H                                       1.0883172
    28   6 C       59   1 H                                       1.0945109
    28   6 C       60   1 H                                       1.0942407
    29   6 C       61   1 H                                       1.0787381
    30   6 C       62   1 H                                       1.0965982
    30   6 C       63   1 H                                       1.0884740
    30   6 C       64   1 H                                       1.0896059
    31   6 C       65   1 H                                       1.0962690
    32   6 C       66   1 H                                       1.0872507
    32   6 C       67   1 H                                       1.0872143
    32   6 C       68   1 H                                       1.0868951
    33   6 C       69   1 H                                       1.0872933
    33   6 C       70   1 H                                       1.0858244
    33   6 C       71   1 H                                       1.0866473
     1   7 N       72   1 H                                       1.0106088

 * 5 distinct bonds (by element types)

   Z      Z             #   av. dist./Å        max./Å        min./Å
   1 H    6 C          38     1.0815309     1.1029834     0.7861309
   6 C    6 C          17     1.4463176     1.5391478     1.3406160
   1 H    7 N           1     1.0106088     1.0106088     1.0106088
   6 C    7 N           5     1.4410877     1.4570705     1.4266573
   6 C    8 O           7     1.3806667     1.4148052     1.3354735


optimized geometry written to: xtbopt.xyz


           -------------------------------------------------
          | TOTAL ENERGY             -100.836197254995 Eh   |
          | GRADIENT NORM               0.003655320834 Eh/α |
          | HOMO-LUMO GAP               0.945655078606 eV   |
           -------------------------------------------------

------------------------------------------------------------------------
 * finished run on 2024/04/06 at 11:16:34.954     
------------------------------------------------------------------------
 total:
 * wall-time:     0 d,  0 h,  0 min, 24.936 sec
 *  cpu-time:     0 d,  0 h,  0 min, 24.874 sec
 * ratio c/w:     0.998 speedup
 SCF:
 * wall-time:     0 d,  0 h,  0 min,  0.194 sec
 *  cpu-time:     0 d,  0 h,  0 min,  0.194 sec
 * ratio c/w:     0.999 speedup
 ANC optimizer:
 * wall-time:     0 d,  0 h,  0 min, 24.702 sec
 *  cpu-time:     0 d,  0 h,  0 min, 24.656 sec
 * ratio c/w:     0.998 speedup

