72
 energy: -99.306265054788 gnorm: 0.784181146710 xtb: 6.6.1 (8d0f1dd)
N           -0.89934604029197        1.62792049934744        1.01683331760963
C           -2.31399092174218        1.58387587489744        1.19625067387887
C           -3.15117187377792        2.06018948900430       -0.04241279640099
C           -3.89652090967046        0.75275335904979        0.05587961798091
C           -4.97707824571835        0.05039390900113       -0.44472410536248
C           -5.15295225760216       -1.22473196931994        0.05636758226077
O           -6.17261091629419       -2.04334522819823       -0.21503167847791
C           -7.22337638182005       -1.60311169347771       -1.05393550480750
C           -4.10872354660317       -1.93604818726912        0.92488423376858
O           -3.23264331423639       -2.63443054373237       -0.02563089841728
C           -3.65976252511906       -3.93541508999378       -0.34953193559358
C           -3.16694939078542       -0.97025863615450        1.61669914551407
C           -3.07312360065899        0.26386630927786        1.10154554834855
C           -2.26496240149445        2.10286013271497       -1.29373833678622
C           -1.30008648659200        0.91882335444743       -1.30627594078910
C           -0.27731128560161        1.06557897788400       -0.17476174511770
N            0.44895147197778       -0.14028652101685        0.16726577075416
C            1.87313639825871       -0.04764257103050        0.31486298875493
C            2.66437599432755       -0.30737474215448       -0.99285881165311
C            4.12620509973476       -0.10355221070373       -0.74449844984562
C            4.73505598538416        1.11465787842416       -1.01542296164585
C            6.07755864466327        1.31679614434158       -0.74069608996730
C            6.84391749051858        0.30557220506222       -0.17515579016902
O            8.14713717618976        0.39161299770804        0.14329109000584
C            8.84230499706636        1.59138438072614       -0.10756004097210
C            6.22948635275747       -0.94811330630278        0.10929158435129
O            7.04211420419294       -1.87204818720477        0.65460581193595
C            6.52764669220327       -3.14281950800988        0.97531765935711
C            4.88537302070735       -1.12642780804024       -0.18053279309871
C           -0.07755104260610       -1.44527477186772       -0.13006979935393
C           -3.99643163893729        3.33589759606183        0.12214790043133
C           -5.05580035901756        3.17887551025782        1.21336611514175
C           -3.12815720863334        4.55661379401394        0.42214065639308
H           -5.66009862730511        0.48281677779082       -1.15867179615297
H           -7.69779648228149       -0.70665382403230       -0.64737536015049
H           -7.94382586231482       -2.41796489730122       -1.07760202429835
H           -6.86320348125898       -1.40138115404883       -2.06558038533155
H           -4.66038242432183       -3.93446711526364       -0.79144485503050
H           -2.94299629353625       -4.30761416771833       -1.07914869501686
H           -3.65618450692628       -4.58932424536047        0.52761609448459
H           -2.55094266314799       -1.36707757245853        2.40674433582927
H           -4.44135434052141       -2.45680823313236        1.41085480741206
H           -2.89711510953946        2.07358807273712       -2.18225627456766
H           -1.69420665819968        3.03084906311051       -1.30442863815564
H           -1.86746744728018       -0.00433284453867       -1.19885205428567
H           -0.76734613043103        0.88110688575946       -2.25733552360073
H           -2.55157043680548        2.11957900841291        2.11674217632103
H            0.46943870280104        1.81270775924933       -0.49214984450502
H            2.19539125475039       -0.77811644773528        1.06453623129413
H            2.12595708324940        0.94874655385095        0.68582881498983
H            2.31080439159919        0.37964834525309       -1.76369210375512
H            2.47512570538022       -1.32967654889425       -1.32284747245201
H            4.16183358653128        1.91685053442875       -1.45449195588232
H            6.52231775520204        2.27128307355649       -0.97037147920331
H            8.41194122326191        2.42780235467020        0.45150695195921
H            8.85316393879215        1.83162474968604       -1.17503973904017
H            9.86095189942062        1.41522153761472        0.23323901050982
H            7.36223877024594       -3.69763364368896        1.39966600819166
H            5.72461157201454       -3.07411987360422        1.71583695368659
H            6.16185299314555       -3.66371550939293        0.08524753225423
H            4.41167022972052       -2.07390840316544        0.02333428451796
H           -0.00479940142570       -1.69781717298679       -1.19470916880631
H           -1.12220880739312       -1.51769662292677        0.16694984031838
H            0.48858763785354       -2.18395692949802        0.43656624934723
H           -4.51394292589708        3.49914829501633       -0.83039432095989
H           -4.59785849873937        3.06356509929703        2.19270595945800
H           -5.68853983918828        2.31437045317900        1.02814600673057
H           -5.68698395440844        4.06328255626798        1.24115385276237
H           -2.51663229639501        4.38695312543928        1.30501046488719
H           -2.47300215199594        4.79780839486471       -0.40949118790490
H           -3.76427275443165        5.41842454962282        0.60501047527114
H           -0.38135323402305        1.39423610068417        1.85253965343922
72
 energy: -99.416174649523 gnorm: 0.050269608142 xtb: 6.6.1 (8d0f1dd)
N           -0.89892243730840        1.62872032170899        1.01714011157633
C           -2.31284946599683        1.58758809925226        1.19609308527680
C           -3.15049136923164        2.06186268850781       -0.04292139404600
C           -3.89596370973922        0.75561561574486        0.05450865926287
C           -4.97841479528153        0.05724455136881       -0.44884177927936
C           -5.15077360514255       -1.21498351658165        0.04412191242204
O           -6.16936517962202       -2.04056551204869       -0.21607851225573
C           -7.22330682604523       -1.60344092210713       -1.05351783761470
C           -4.07091405024110       -1.88307484685432        0.86853833347740
O           -3.21798944399291       -2.63133819345655       -0.04365640770623
C           -3.65908884089005       -3.93392281350364       -0.35017087528419
C           -3.15681825405307       -0.95946373586230        1.61054227577271
C           -3.06990276859051        0.27129101055966        1.10074520908189
C           -2.26473532806861        2.10304067165053       -1.29394088274662
C           -1.30006347977160        0.91890300086744       -1.30622201772098
C           -0.27731403272593        1.06583014580900       -0.17499063055527
N            0.44902563223708       -0.14027033104812        0.16710656382040
C            1.87335365683769       -0.04768022810431        0.31478388120836
C            2.66423968851096       -0.30720714016388       -0.99283871935189
C            4.12623706550032       -0.10346482373932       -0.74445893801959
C            4.73509604335482        1.11466634991476       -1.01542588008418
C            6.07759885281975        1.31682425011583       -0.74060749963634
C            6.84392873832318        0.30561342680193       -0.17513392397911
O            8.14705383030566        0.39159884599577        0.14309363069554
C            8.84231505531549        1.59136717270844       -0.10762512297322
C            6.22947532541649       -0.94807393261537        0.10928634265181
O            7.04208866343655       -1.87199393108583        0.65455815129543
C            6.52764445290455       -3.14282162307820        0.97527383179657
C            4.88536797303655       -1.12644419367899       -0.18046342834486
C           -0.07742939075531       -1.44531835921716       -0.12998343324267
C           -3.99654859291938        3.33651306980690        0.12214098372457
C           -5.05589592851183        3.17888396948935        1.21336581818433
C           -3.12812217959428        4.55659175531756        0.42208087242186
H           -5.66178980861674        0.48625261447043       -1.16086693389304
H           -7.69781011375439       -0.70678303756513       -0.64738787441209
H           -7.94355101888545       -2.41846451548273       -1.07727038711322
H           -6.86344359982610       -1.40159523423431       -2.06557289272895
H           -4.66025392690669       -3.93355052085922       -0.79142632895368
H           -2.94376382470608       -4.30958728568483       -1.07943654000837
H           -3.65605771860732       -4.58709216825320        0.52880347400062
H           -2.55144887215254       -1.36604206073596        2.40526159614500
H           -4.51316994708823       -2.56838454583842        1.51408047954468
H           -2.89710849558075        2.07360237754619       -2.18230835189294
H           -1.69402266239472        3.03089301395909       -1.30467109887511
H           -1.86744561636956       -0.00427157717315       -1.19872135706274
H           -0.76730665044505        0.88100790541862       -2.25726052094831
H           -2.55128297667279        2.12070564299048        2.11727596755576
H            0.46949041714101        1.81264835820442       -0.49202332389311
H            2.19533984161244       -0.77812271785969        1.06417904794729
H            2.12591731626427        0.94840897328730        0.68600129517626
H            2.31080866422787        0.37978740276631       -1.76331993659513
H            2.47505064260416       -1.32931919208118       -1.32287869681398
H            4.16177821018040        1.91680778595719       -1.45443366917960
H            6.52237973990138        2.27126265274056       -0.97032215828397
H            8.41198730194401        2.42773918528180        0.45145851506008
H            8.85310755971766        1.83165955481261       -1.17498475456351
H            9.86088489006294        1.41522116801143        0.23315472265779
H            7.36226914467187       -3.69760371976211        1.39958293916324
H            5.72465498575913       -3.07419864084100        1.71584094171003
H            6.16184042154279       -3.66368484906326        0.08517248009102
H            4.41169276851919       -2.07390673597099        0.02337536083081
H           -0.00490929313695       -1.69795339536431       -1.19474267391757
H           -1.12248142899642       -1.51765374364461        0.16708956082360
H            0.48879582176494       -2.18392210862548        0.43651235515363
H           -4.51398167987231        3.49928524429180       -0.83045519030031
H           -4.59789898772457        3.06364131881894        2.19263734012505
H           -5.68839199441280        2.31433719460102        1.02807510857743
H           -5.68705273726141        4.06328385091097        1.24114051999400
H           -2.51675347877153        4.38712721238429        1.30483931130847
H           -2.47299443849192        4.79803837746129       -0.40955938697981
H           -3.76413703414333        5.41855421563252        0.60524089878743
H           -0.38094112363351        1.39392067950605        1.85268262452874
72
 energy: -99.417931708074 gnorm: 0.033406126800 xtb: 6.6.1 (8d0f1dd)
N           -0.89896950924591        1.63029272053370        1.01845823573042
C           -2.31350967130552        1.59116680213768        1.19603116838206
C           -3.14886068408064        2.06628475345045       -0.04467151688894
C           -3.89305004626977        0.75820333470748        0.05129738243836
C           -4.97495441518598        0.05854181568687       -0.45188093933806
C           -5.14383362886210       -1.22092020830996        0.04070680510116
O           -6.16382862832698       -2.04262508213391       -0.21941712242308
C           -7.21917360284403       -1.60256798065315       -1.05370056366359
C           -4.07678541165231       -1.90252410544529        0.87597665539766
O           -3.22110790761434       -2.64009067215497       -0.03464987983340
C           -3.66132071837136       -3.93827796601483       -0.35235559772936
C           -3.15893767176364       -0.96653696893788        1.60621698479658
C           -3.07090966881672        0.27201839869722        1.09902329897599
C           -2.26244819816585        2.10632211466164       -1.29527670147934
C           -1.29954757960966        0.92062788383274       -1.30548607585060
C           -0.27729883545492        1.06702064857059       -0.17401902644848
N            0.44870288105496       -0.13969471997770        0.16749694229143
C            1.87320947846869       -0.04786665919445        0.31535086851021
C            2.66383518211375       -0.30487341060572       -0.99244028504771
C            4.12605054794936       -0.10235064967043       -0.74379744509538
C            4.73513597123428        1.11562475757076       -1.01454457671194
C            6.07774458832602        1.31743096576875       -0.74000979155738
C            6.84393389439112        0.30577639484764       -0.17535694016949
O            8.14722407980865        0.39117923360158        0.14169085705700
C            8.84243477807614        1.59105495334665       -0.10864265690353
C            6.22919137105149       -0.94775629686168        0.10914546460029
O            7.04189752693041       -1.87186094847515        0.65385076747685
C            6.52777216009588       -3.14291276067750        0.97431243716482
C            4.88494950482135       -1.12580552306065       -0.18017083269383
C           -0.07778457328508       -1.44482505130001       -0.12947415074951
C           -3.99595178489364        3.34058935907504        0.12042564441745
C           -5.05529794671659        3.18059641673843        1.21150941525212
C           -3.12804937798518        4.56053328141103        0.42124157610933
H           -5.66438692821597        0.49571392321662       -1.15643883477045
H           -7.69429312279422       -0.70698182509301       -0.64562232906669
H           -7.93855334430923       -2.41852389251625       -1.07642440720992
H           -6.86209284938996       -1.40060990891978       -2.06676953249348
H           -4.66254518353053       -3.93251878351004       -0.79246555805615
H           -2.94534232623758       -4.31665309777743       -1.08021239156325
H           -3.66279306663390       -4.58550316085840        0.53102598985156
H           -2.55178396958132       -1.37120060894499        2.39844064049122
H           -4.52960643701018       -2.59817101292785        1.53353802572233
H           -2.89489653203059        2.07576890850462       -2.18358491800513
H           -1.69057229980539        3.03351046686222       -1.30774857939534
H           -1.86748416326527       -0.00215308773407       -1.19755695707596
H           -0.76641594565538        0.88076801581333       -2.25619049783555
H           -2.55120234551176        2.12850276175804        2.11559082642827
H            0.47002687191680        1.81325804013645       -0.49053256361699
H            2.19479504628403       -0.78023832621235        1.06266628396687
H            2.12611264648777        0.94692481679078        0.68916578088441
H            2.31064714654629        0.38406464978796       -1.76099575344011
H            2.47398576187325       -1.32600967135877       -1.32455876969601
H            4.16167554915736        1.91773342359354       -1.45335258960955
H            6.52295168416609        2.27164788638718       -0.96971402044475
H            8.41252854314606        2.42705853386338        0.45124202850121
H            8.85242762628720        1.83209369063855       -1.17575880891590
H            9.86113448176328        1.41462848157198        0.23139567555169
H            7.36275929272701       -3.69768435902063        1.39789145233215
H            5.72526535197164       -3.07496045555852        1.71544739279237
H            6.16157908689776       -3.66339512952698        0.08414655490142
H            4.41119106608695       -2.07321166156817        0.02368276838681
H           -0.00658884570005       -1.69787653003425       -1.19434685814652
H           -1.12264234965276       -1.51781719336094        0.16897943194610
H            0.48976378657761       -2.18306453258940        0.43614556548732
H           -4.51366199701313        3.50326894818287       -0.83204794381313
H           -4.59746261083887        3.06554526316803        2.19085952362410
H           -5.68618662292063        2.31504132418960        1.02563442185180
H           -5.68789814855937        4.06395080776624        1.23969875838850
H           -2.51629194958073        4.39017838963567        1.30332921432224
H           -2.47336576735015        4.80319589963582       -0.41043772004468
H           -3.76360334405052        5.42242039580432        0.60648467931525
H           -0.38112029914344        1.39366330152777        1.85381845992934
72
 energy: -99.418827321030 gnorm: 0.012859123568 xtb: 6.6.1 (8d0f1dd)
N           -0.89834234489542        1.63102387630354        1.02011564552652
C           -2.31321808204305        1.59291651841370        1.19612712904543
C           -3.14772574753393        2.06826475044510       -0.04549297377591
C           -3.89197519702177        0.75890000219206        0.05081359951977
C           -4.97287848114885        0.05738134918454       -0.45202314923221
C           -5.13961451390396       -1.22588104788183        0.03937258586072
O           -6.15985824502308       -2.04381191028038       -0.22539657704687
C           -7.21653939990511       -1.60257200013628       -1.05727134103897
C           -4.07846778389725       -1.91618802922956        0.88089896351423
O           -3.22239446356768       -2.65012461900098       -0.02250618707777
C           -3.66698569550419       -3.94378245946182       -0.35200933094114
C           -3.15836053132064       -0.97004515158689        1.60314631829045
C           -3.07175007036301        0.27207375650510        1.09891796503609
C           -2.26020434014773        2.10858810412795       -1.29547525225234
C           -1.29762308740705        0.92268060610224       -1.30493011192825
C           -0.27625476240445        1.06852016429083       -0.17298639412444
N            0.44862967614651       -0.13909737711414        0.16806691627976
C            1.87326316654008       -0.04849163549307        0.31678607355902
C            2.66326904134229       -0.30071290038769       -0.99189052431940
C            4.12575548678632       -0.10002958751560       -0.74280663394235
C            4.73529933939867        1.11772463022801       -1.01308149045259
C            6.07811196100018        1.31875281491577       -0.73915637905591
C            6.84402043264812        0.30621972977366       -0.17585784082345
O            8.14770821122410        0.39051487502397        0.13937817975557
C            8.84289510730094        1.59057454201478       -0.11025955335527
C            6.22866604013452       -0.94703952859821        0.10866296162394
O            7.04150265175236       -1.87158944648028        0.65241139700446
C            6.52786664795234       -3.14301784572292        0.97224196558444
C            4.88415957158759       -1.12433962121857       -0.17989296589392
C           -0.07857977967340       -1.44398103626056       -0.12860044950284
C           -3.99443769498794        3.34353881165635        0.11883831154542
C           -5.05460164288757        3.18303781181590        1.20911230254812
C           -3.12763782215368        4.56416785625027        0.41995099598147
H           -5.66209971183542        0.49684083307091       -1.15660503644946
H           -7.69156179880179       -0.70875606935808       -0.64570526481272
H           -7.93490240705088       -2.41968264545983       -1.08014687805613
H           -6.86124864578628       -1.39775616864469       -2.07031024883610
H           -4.66597832711458       -3.93045887424317       -0.79661522551588
H           -2.95093428429138       -4.32759645611671       -1.07659745951208
H           -3.67750182679799       -4.59008395637421        0.53249055491492
H           -2.54690285637058       -1.37038659918481        2.39337933072981
H           -4.54744387504819       -2.62377806439060        1.55718077640851
H           -2.89220727421728        2.07797846760823       -2.18419485370173
H           -1.68753880336898        3.03535360390065       -1.30908611938383
H           -1.86638995574734        0.00046873535744       -1.19663025428868
H           -0.76380979297002        0.88146812794736       -2.25526575273623
H           -2.55037138267828        2.13301550620670        2.11443649495725
H            0.47170752246534        1.81456003032653       -0.48797807812025
H            2.19392930073344       -0.78413467838532        1.06103994912108
H            2.12641443980680        0.94449750223369        0.69487614573408
H            2.31071176948518        0.39170030833957       -1.75743241069998
H            2.47250550544988       -1.32024795697008       -1.32810245751491
H            4.16170166473604        1.92012177070971       -1.45112416835450
H            6.52384953182828        2.27277910292570       -0.96850488702206
H            8.41373417933964        2.42591915260647        0.45115087232194
H            8.85161894563435        1.83296729910534       -1.17703415651412
H            9.86189147892039        1.41357758284844        0.22840224979540
H            7.36348856506124       -3.69791361961821        1.39443752673618
H            5.72616150964095       -3.07600480757999        1.71432712769463
H            6.16090024040434       -3.66269075720635        0.08191920107741
H            4.41014084539052       -2.07161683969656        0.02393956004567
H           -0.00978229379484       -1.69692101663793       -1.19376798736647
H           -1.12295953603681       -1.51732074041860        0.17239204677436
H            0.49051264366755       -2.18231599824129        0.43531738839139
H           -4.51202342947389        3.50646996903112       -0.83371814763266
H           -4.59739752810336        3.06902315890235        2.18881585040524
H           -5.68350808582268        2.31618592070846        1.02291619425101
H           -5.68879992950384        4.06531329026404        1.23655301945316
H           -2.51462821502430        4.39374535459260        1.30107725085279
H           -2.47425740714308        4.80885043972607       -0.41226045741161
H           -3.76327882033663        5.42567850185271        0.60751791459947
H           -0.38092400628980        1.39111410987523        1.85497107634693
72
 energy: -99.418982755017 gnorm: 0.004104119174 xtb: 6.6.1 (8d0f1dd)
N           -0.89817858652003        1.63075419185673        1.02149474192339
C           -2.31300115061098        1.59257780014186        1.19664383291509
C           -3.14714261626966        2.06797154127336       -0.04523156221166
C           -3.89173138824528        0.75849416703083        0.05125700664601
C           -4.97111495469599        0.05516071769189       -0.45245385690328
C           -5.13817826194887       -1.22751026424801        0.03843896472129
O           -6.15796159704555       -2.04496885527623       -0.22947213174405
C           -7.21500422024258       -1.60309729731784       -1.06064335974510
C           -4.07630384596533       -1.91658085976492        0.88103482252800
O           -3.22180316323638       -2.65723130205961       -0.01445249266089
C           -3.67353001985626       -3.94788298620976       -0.34900462374527
C           -3.15640468852043       -0.96986490999310        1.60323059602670
C           -3.07180466228970        0.27180467717421        1.09984926481555
C           -2.25930779336934        2.10888013060722       -1.29494905215982
C           -1.29618642631590        0.92347537996366       -1.30427973371323
C           -0.27547856618876        1.06894585428105       -0.17176853887519
N            0.44872227211477       -0.13907600261711        0.16907207502394
C            1.87337072543295       -0.04913934770786        0.31823267814728
C            2.66305952600009       -0.29722070627811       -0.99133953019982
C            4.12569402510241       -0.09772888138049       -0.74216935136389
C            4.73563136505355        1.11995251913991       -1.01181060614437
C            6.07864735000846        1.32016579520655       -0.73849284520253
C            6.84432303559305        0.30678429690690       -0.17640206445599
O            8.14837101036862        0.39008926538537        0.13759442779941
C            8.84367639824705        1.59018895198623       -0.11155737259460
C            6.22842602772284       -0.94626570141133        0.10793318190969
O            7.04125132469127       -1.87133557058295        0.65084584776032
C            6.52773374517218       -3.14297074361915        0.97003695370412
C            4.88368495622123       -1.12277336598209       -0.18002784910332
C           -0.07921888747347       -1.44357800640663       -0.12783726342169
C           -3.99350195471454        3.34378921334111        0.11808410909864
C           -5.05441837943840        3.18420381996740        1.20771187635200
C           -3.12680305885401        4.56469673883597        0.41883255606165
H           -5.65906361231089        0.49263301739298       -1.15902331722534
H           -7.69031793327679       -0.71034188118282       -0.64721884881724
H           -7.93287049435109       -2.42055828655755       -1.08485408072347
H           -6.86028294154146       -1.39589065400376       -2.07338374480148
H           -4.66956249068869       -3.92721500982106       -0.80017405403895
H           -2.95591487672400       -4.33555466776746       -1.06991328616890
H           -3.69381118322868       -4.59634782495318        0.53392899248446
H           -2.54229702264928       -1.36866654791704        2.39269926756467
H           -4.55447923743503       -2.62601539410980        1.56681215038887
H           -2.89065119788366        2.07889901518502       -2.18422942786460
H           -1.68712406498655        3.03594492700708       -1.30746852766474
H           -1.86497910426840        0.00122983017685       -1.19629687409491
H           -0.76178615504582        0.88266918753699       -2.25431842636496
H           -2.55086603055027        2.13244663743574        2.11482587070922
H            0.47283200473274        1.81506745187613       -0.48576541928476
H            2.19376553271199       -0.78728204976174        1.06011396365942
H            2.12661350452183        0.94263087692657        0.69956815871264
H            2.31065793210907        0.39798420015108       -1.75445780653650
H            2.47169919187359       -1.31551249660488       -1.33106757763487
H            4.16211773940022        1.92287777829491       -1.44900665080360
H            6.52468318984509        2.27414053642315       -0.96742849509365
H            8.41526729166048        2.42505351630661        0.45114783374769
H            8.85136401875409        1.83367202670473       -1.17810743036904
H            9.86296948388063        1.41257239004278        0.22587113578778
H            7.36372592634550       -3.69823721517767        1.39103250778650
H            5.72668501910184       -3.07653361418160        1.71288510045455
H            6.15998138898122       -3.66188087804049        0.07959849526477
H            4.40928773975888       -2.06989970689470        0.02368385292173
H           -0.01234463054069       -1.69564844491230       -1.19332049800188
H           -1.12306750529483       -1.51700221402487        0.17500933597494
H            0.49058703646483       -2.18255545472651        0.43447090187840
H           -4.51030655632906        3.50648034226377       -0.83497052888729
H           -4.59784990825217        3.07177823380242        2.18789983903569
H           -5.68259877616446        2.31672583544399        1.02199094872193
H           -5.68913835286395        4.06613588291217        1.23345346223211
H           -2.51260901001716        4.39468543486774        1.29927282686943
H           -2.47469437444454        4.81067002137890       -0.41404354544723
H           -3.76313386678762        5.42552925133426        0.60746614216225
H           -0.38148961745392        1.38874520972618        1.85618189487173
