      -----------------------------------------------------------      
     |                   =====================                   |     
     |                           x T B                           |     
     |                   =====================                   |     
     |                         S. Grimme                         |     
     |          Mulliken Center for Theoretical Chemistry        |     
     |                    University of Bonn                     |     
      -----------------------------------------------------------      

   * xtb version 6.6.1 (8d0f1dd) compiled by 'conda@1efc2f54142f' on 2023-08-01

   xtb is free software: you can redistribute it and/or modify it under
   the terms of the GNU Lesser General Public License as published by
   the Free Software Foundation, either version 3 of the License, or
   (at your option) any later version.
   
   xtb is distributed in the hope that it will be useful,
   but WITHOUT ANY WARRANTY; without even the implied warranty of
   MERCHANTABILITY or FITNESS FOR A PARTICULAR PURPOSE.  See the
   GNU Lesser General Public License for more details.
   
   Cite this work as:
   * C. Bannwarth, E. Caldeweyher, S. Ehlert, A. Hansen, P. Pracht,
     J. Seibert, S. Spicher, S. Grimme, WIREs Comput. Mol. Sci., 2020, 11,
     e01493. DOI: 10.1002/wcms.1493
   
   for GFN2-xTB:
   * C. Bannwarth, S. Ehlert and S. Grimme., J. Chem. Theory Comput., 2019,
     15, 1652-1671. DOI: 10.1021/acs.jctc.8b01176
   for GFN1-xTB:
   * S. Grimme, C. Bannwarth, P. Shushkov, J. Chem. Theory Comput., 2017,
     13, 1989-2009. DOI: 10.1021/acs.jctc.7b00118
   for GFN0-xTB:
   * P. Pracht, E. Caldeweyher, S. Ehlert, S. Grimme, ChemRxiv, 2019, preprint.
     DOI: 10.26434/chemrxiv.8326202.v1
   for GFN-FF:
   * S. Spicher and S. Grimme, Angew. Chem. Int. Ed., 2020, 59, 15665-15673.
     DOI: 10.1002/anie.202004239
   
   for ALPB and GBSA implicit solvation:
   * S. Ehlert, M. Stahn, S. Spicher, S. Grimme, J. Chem. Theory Comput.,
     2021, 17, 4250-4261. DOI: 10.1021/acs.jctc.1c00471
   
   for DFT-D4:
   * E. Caldeweyher, C. Bannwarth and S. Grimme, J. Chem. Phys., 2017,
     147, 034112. DOI: 10.1063/1.4993215
   * E. Caldeweyher, S. Ehlert, A. Hansen, H. Neugebauer, S. Spicher,
     C. Bannwarth and S. Grimme, J. Chem. Phys., 2019, 150, 154122.
     DOI: 10.1063/1.5090222
   * E. Caldeweyher, J.-M. Mewes, S. Ehlert and S. Grimme, Phys. Chem. Chem. Phys.
     2020, 22, 8499-8512. DOI: 10.1039/D0CP00502A
   
   for sTDA-xTB:
   * S. Grimme and C. Bannwarth, J. Chem. Phys., 2016, 145, 054103.
     DOI: 10.1063/1.4959605
   
   in the mass-spec context:
   * V. Asgeirsson, C. Bauer and S. Grimme, Chem. Sci., 2017, 8, 4879.
     DOI: 10.1039/c7sc00601b
   * J. Koopman and S. Grimme, ACS Omega 2019, 4, 12, 15120-15133.
     DOI: 10.1021/acsomega.9b02011
   
   for metadynamics refer to:
   * S. Grimme, J. Chem. Theory Comput., 2019, 155, 2847-2862
     DOI: 10.1021/acs.jctc.9b00143
   
   for SPH calculations refer to:
   * S. Spicher and S. Grimme, J. Chem. Theory Comput., 2021, 17, 1701-1714
     DOI: 10.1021/acs.jctc.0c01306
   
   with help from (in alphabetical order)
   P. Atkinson, C. Bannwarth, F. Bohle, G. Brandenburg, E. Caldeweyher
   M. Checinski, S. Dohm, S. Ehlert, S. Ehrlich, I. Gerasimov, C. Hölzer
   A. Katbashev, J. Koopman, C. Lavigne, S. Lehtola, F. März, M. Müller,
   F. Musil, H. Neugebauer, J. Pisarek, C. Plett, P. Pracht, F. Pultar,
   J. Seibert, P. Shushkov, S. Spicher, M. Stahn, M. Steiner, T. Strunk,
   J. Stückrath, T. Rose, and J. Unsleber
   
 * started run on 2024/04/06 at 11:13:42.345     

           -------------------------------------------------
          |                Calculation Setup                |
           -------------------------------------------------

          program call               : xtb struc.xyz --opt loose --input .xc1 --gfn2
          hostname                   : n-62-30-23
          coordinate file            : struc.xyz
          omp threads                :                     1

   ID    Z sym.   atoms
    1    7 N      1, 17
    2    6 C      2-6, 8, 9, 11-16, 18-23, 25, 26, 28-33
    3    8 O      7, 10, 24, 27
    4    1 H      34-72
constraining bond 19 50 to    4.1400000 Å, actual value:    2.1552088 Å

           -------------------------------------------------
          |                 G F N 2 - x T B                 |
           -------------------------------------------------

        Reference                      10.1021/acs.jctc.8b01176
      * Hamiltonian:
        H0-scaling (s, p, d)           1.850000    2.230000    2.230000
        zeta-weighting                 0.500000
      * Dispersion:
        s8                             2.700000
        a1                             0.520000
        a2                             5.000000
        s9                             5.000000
      * Repulsion:
        kExp                           1.500000    1.000000
        rExp                           1.000000
      * Coulomb:
        alpha                          2.000000
        third order                    shell-resolved
        anisotropic                    true
        a3                             3.000000
        a5                             4.000000
        cn-shift                       1.200000
        cn-exp                         4.000000
        max-rad                        5.000000


          ...................................................
          :                      SETUP                      :
          :.................................................:
          :  # basis functions                 171          :
          :  # atomic orbitals                 171          :
          :  # shells                          105          :
          :  # electrons                       180          :
          :  max. iterations                   250          :
          :  Hamiltonian                  GFN2-xTB          :
          :  restarted?                      false          :
          :  GBSA solvation                  false          :
          :  PC potential                    false          :
          :  electronic temp.         5000.0000000     K    :
          :  accuracy                    1.0000000          :
          :  -> integral cutoff          0.2500000E+02      :
          :  -> integral neglect         0.1000000E-07      :
          :  -> SCF convergence          0.1000000E-05 Eh   :
          :  -> wf. convergence          0.1000000E-03 e    :
          :  Broyden damping             0.4000000          :
          ...................................................

 iter      E             dE          RMSdq      gap      omega  full diag
   1   -100.5973919 -0.100597E+03  0.374E+00    3.20       0.0  T
   2   -100.7362642 -0.138872E+00  0.221E+00    1.08       1.0  T
   3   -100.7049001  0.313641E-01  0.141E+00    3.29       1.0  T
   4   -100.7721690 -0.672689E-01  0.526E-01    1.50       1.0  T
   5   -100.7894292 -0.172602E-01  0.190E-01    1.98       1.0  T
   6   -100.7911978 -0.176856E-02  0.792E-02    1.77       1.0  T
   7   -100.7914750 -0.277198E-03  0.375E-02    1.83       1.0  T
   8   -100.7914914 -0.164582E-04  0.140E-02    1.83       1.0  T
   9   -100.7914976 -0.616739E-05  0.474E-03    1.82       2.5  T
  10   -100.7914988 -0.118227E-05  0.172E-03    1.82       6.8  T
  11   -100.7914989 -0.139928E-06  0.766E-04    1.82      15.4  T
  12   -100.7914989 -0.773143E-08  0.318E-04    1.82      37.0  T

   *** convergence criteria satisfied after 12 iterations ***

         #    Occupation            Energy/Eh            Energy/eV
      -------------------------------------------------------------
         1        2.0000           -0.8078051             -21.9815
       ...           ...                  ...                  ...
        84        1.9966           -0.5157491             -14.0342
        85        1.9959           -0.5128261             -13.9547
        86        1.9840           -0.4911498             -13.3649
        87        1.9795           -0.4872543             -13.2589
        88        1.9640           -0.4782114             -13.0128
        89        1.8920           -0.4602041             -12.5228
        90        1.8557           -0.4553147             -12.3897 (HOMO)
        91        0.3166           -0.3884132             -10.5693 (LUMO)
        92        0.0218           -0.3434697              -9.3463
        93        0.0041           -0.3169887              -8.6257
        94        0.0034           -0.3139726              -8.5436
        95        0.0029           -0.3112618              -8.4699
       ...           ...                  ...                  ...
       171                          0.5822580              15.8440
      -------------------------------------------------------------
                  HL-Gap            0.0669015 Eh            1.8205 eV
             Fermi-level           -0.4148687 Eh          -11.2892 eV

 SCC (total)                   0 d,  0 h,  0 min,  0.190 sec
 SCC setup                      ...        0 min,  0.001 sec (  0.748%)
 Dispersion                     ...        0 min,  0.002 sec (  1.282%)
 classical contributions        ...        0 min,  0.001 sec (  0.337%)
 integral evaluation            ...        0 min,  0.018 sec (  9.639%)
 iterations                     ...        0 min,  0.097 sec ( 51.217%)
 molecular gradient             ...        0 min,  0.069 sec ( 36.434%)
 printout                       ...        0 min,  0.001 sec (  0.332%)

         :::::::::::::::::::::::::::::::::::::::::::::::::::::
         ::                     SUMMARY                     ::
         :::::::::::::::::::::::::::::::::::::::::::::::::::::
         :: total energy             -98.700739085818 Eh    ::
         :: gradient norm              0.531479362943 Eh/a0 ::
         :: HOMO-LUMO gap              1.820481192090 eV    ::
         ::.................................................::
         :: SCC energy              -100.791498925389 Eh    ::
         :: -> isotropic ES            0.109302908418 Eh    ::
         :: -> anisotropic ES          0.005415138735 Eh    ::
         :: -> anisotropic XC          0.042392697176 Eh    ::
         :: -> dispersion             -0.075527661009 Eh    ::
         :: repulsion energy           1.386151658689 Eh    ::
         :: add. restraining           0.703391828377 Eh    ::
         :: total charge               1.000000000108 e     ::
         :::::::::::::::::::::::::::::::::::::::::::::::::::::

      ----------------------------------------------------------- 
     |                   =====================                   |
     |                        A N C O P T                        |
     |                   =====================                   |
     |               Approximate Normal Coordinate               |
     |                Rational Function Optimizer                |
      ----------------------------------------------------------- 

          ...................................................
          :                      SETUP                      :
          :.................................................:
          :   optimization level             loose          :
          :   max. optcycles                   200          :
          :   ANC micro-cycles                  20          :
          :   degrees of freedom               210          :
          :.................................................:
          :   RF solver                   davidson          :
          :   write xtbopt.log                true          :
          :   linear?                        false          :
          :   energy convergence         0.5000000E-04 Eh   :
          :   grad. convergence          0.4000000E-02 Eh/α :
          :   maxmium RF displ.          1.0000000          :
          :   Hlow (freq-cutoff)         0.1000000E-01      :
          :   Hmax (freq-cutoff)         5.0000000          :
          :   S6 in model hess.         20.0000000          :
          ...................................................

generating ANC from model Hessian ...
Using Lindh-Hessian (1995)
 Shifting diagonal of input Hessian by    8.4408817954575624E-002
 Lowest  eigenvalues of input Hessian
    0.010000    0.037488    0.000000    0.000000    0.000000    0.000000
    0.000000    0.000000    0.084461    0.084497    0.084611    0.084698
    0.084749    0.085054    0.085435    0.085787    0.085828    0.086666
 Highest eigenvalues
    2.110388    2.120367    2.125787    2.253852    2.258688    2.261464


........................................................................
.............................. CYCLE    1 ..............................
........................................................................

 iter      E             dE          RMSdq      gap      omega  full diag
   1   -100.7914989 -0.100791E+03  0.114E-04    1.82       0.0  T
   2   -100.7914989 -0.678995E-10  0.713E-05    1.82     165.2  T
   3   -100.7914989  0.665210E-10  0.496E-05    1.82     237.5  T
     SCC iter.                  ...        0 min,  0.026 sec
     gradient                   ...        0 min,  0.069 sec
 * total energy  :   -98.7007391 Eh     change       -0.4035485E-08 Eh
   gradient norm :     0.5314797 Eh/α   predicted     0.0000000E+00 (-100.00%)
   displ. norm   :     0.6374949 α      lambda       -0.3087072E+00
   maximum displ.:     0.2531077 α      in ANC's #129, #114, #138, ...

........................................................................
.............................. CYCLE    2 ..............................
........................................................................

 iter      E             dE          RMSdq      gap      omega  full diag
   1   -100.7430866 -0.100743E+03  0.380E-01    1.66       0.0  T
   2   -100.7428774  0.209215E-03  0.244E-01    1.91       1.0  T
   3   -100.7391954  0.368204E-02  0.228E-01    1.52       1.0  T
   4   -100.7438956 -0.470020E-02  0.326E-02    1.80       1.0  T
   5   -100.7439822 -0.865911E-04  0.734E-03    1.77       1.6  T
   6   -100.7439836 -0.145826E-05  0.378E-03    1.77       3.1  T
   7   -100.7439837 -0.595629E-07  0.173E-03    1.77       6.8  T
   8   -100.7439839 -0.178792E-06  0.432E-04    1.77      27.3  T
   9   -100.7439839 -0.348648E-08  0.187E-04    1.77      63.0  T
     SCC iter.                  ...        0 min,  0.073 sec
     gradient                   ...        0 min,  0.075 sec
 * total energy  :   -98.9463284 Eh     change       -0.2455893E+00 Eh
   gradient norm :     0.3085027 Eh/α   predicted    -0.2170839E+00 ( -11.61%)
   displ. norm   :     0.6617691 α      lambda       -0.1866907E+00
   maximum displ.:     0.2329064 α      in ANC's #129, #2, #114, ...

........................................................................
.............................. CYCLE    3 ..............................
........................................................................

 iter      E             dE          RMSdq      gap      omega  full diag
   1   -100.6739281 -0.100674E+03  0.300E-01    1.62       0.0  T
   2   -100.6737701  0.158022E-03  0.202E-01    1.86       1.0  T
   3   -100.6732932  0.476943E-03  0.161E-01    1.57       1.0  T
   4   -100.6749037 -0.161055E-02  0.566E-02    1.77       1.0  T
   5   -100.6751550 -0.251294E-03  0.941E-03    1.72       1.3  T
   6   -100.6751570 -0.195229E-05  0.424E-03    1.72       2.8  T
   7   -100.6751571 -0.128837E-06  0.181E-03    1.72       6.5  T
   8   -100.6751573 -0.164214E-06  0.734E-04    1.72      16.1  T
   9   -100.6751573 -0.726598E-08  0.253E-04    1.72      46.6  T
     SCC iter.                  ...        0 min,  0.073 sec
     gradient                   ...        0 min,  0.070 sec
 * total energy  :   -99.0915323 Eh     change       -0.1452039E+00 Eh
   gradient norm :     0.1766826 Eh/α   predicted    -0.1342251E+00 (  -7.56%)
   displ. norm   :     0.6266988 α      lambda       -0.1005058E+00
   maximum displ.:     0.2190935 α      in ANC's #2, #129, #184, ...

........................................................................
.............................. CYCLE    4 ..............................
........................................................................

 iter      E             dE          RMSdq      gap      omega  full diag
   1   -100.6174965 -0.100617E+03  0.335E-01    1.63       0.0  T
   2   -100.6170914  0.405145E-03  0.270E-01    1.74       1.0  T
   3   -100.6215638 -0.447239E-02  0.122E-01    1.64       1.0  T
   4   -100.6223585 -0.794699E-03  0.493E-02    1.70       1.0  T
   5   -100.6223027  0.557962E-04  0.409E-02    1.64       1.0  T
   6   -100.6224298 -0.127160E-03  0.102E-02    1.69       1.2  T
   7   -100.6224381 -0.829689E-05  0.373E-03    1.67       3.2  T
   8   -100.6224382 -0.447763E-07  0.193E-03    1.68       6.1  T
   9   -100.6224384 -0.256474E-06  0.665E-04    1.68      17.7  T
  10   -100.6224384 -0.801083E-08  0.268E-04    1.68      44.0  T
     SCC iter.                  ...        0 min,  0.080 sec
     gradient                   ...        0 min,  0.069 sec
 * total energy  :   -99.1684559 Eh     change       -0.7692360E-01 Eh
   gradient norm :     0.1045946 Eh/α   predicted    -0.6999031E-01 (  -9.01%)
   displ. norm   :     0.5745971 α      lambda       -0.5255153E-01
   maximum displ.:     0.2009214 α      in ANC's #2, #184, #129, ...

........................................................................
.............................. CYCLE    5 ..............................
........................................................................

 iter      E             dE          RMSdq      gap      omega  full diag
   1   -100.5845375 -0.100585E+03  0.448E-01    1.27       0.0  T
   2   -100.5716579  0.128796E-01  0.440E-01    1.60       1.0  T
   3   -100.5933416 -0.216837E-01  0.194E-01    1.49       1.0  T
   4   -100.5963867 -0.304517E-02  0.692E-02    1.49       1.0  T
   5   -100.5964337 -0.469251E-04  0.506E-02    1.52       1.0  T
   6   -100.5965585 -0.124861E-03  0.146E-02    1.51       1.0  T
   7   -100.5965796 -0.210454E-04  0.650E-03    1.51       1.8  T
   8   -100.5965822 -0.260838E-05  0.368E-03    1.51       3.2  T
   9   -100.5965830 -0.792356E-06  0.126E-03    1.51       9.4  T
  10   -100.5965830 -0.287866E-07  0.604E-04    1.51      19.5  T
  11   -100.5965830 -0.149167E-07  0.235E-04    1.51      50.2  T
     SCC iter.                  ...        0 min,  0.088 sec
     gradient                   ...        0 min,  0.069 sec
 * total energy  :   -99.2057766 Eh     change       -0.3732070E-01 Eh
   gradient norm :     0.0536378 Eh/α   predicted    -0.3495104E-01 (  -6.35%)
   displ. norm   :     0.4012005 α      lambda       -0.1610252E-01
   maximum displ.:     0.1367946 α      in ANC's #2, #1, #54, ...

........................................................................
.............................. CYCLE    6 ..............................
........................................................................

 iter      E             dE          RMSdq      gap      omega  full diag
   1   -100.5900140 -0.100590E+03  0.247E-01    1.22       0.0  T
   2   -100.5862503  0.376366E-02  0.223E-01    1.35       1.0  T
   3   -100.5902971 -0.404674E-02  0.153E-01    1.29       1.0  T
   4   -100.5925604 -0.226331E-02  0.493E-02    1.29       1.0  T
   5   -100.5925853 -0.249691E-04  0.340E-02    1.32       1.0  T
   6   -100.5926598 -0.745185E-04  0.860E-03    1.30       1.4  T
   7   -100.5926681 -0.829341E-05  0.318E-03    1.30       3.7  T
   8   -100.5926689 -0.762150E-06  0.182E-03    1.31       6.5  T
   9   -100.5926691 -0.153195E-06  0.647E-04    1.31      18.2  T
  10   -100.5926691 -0.195428E-07  0.274E-04    1.31      43.0  T
     SCC iter.                  ...        0 min,  0.080 sec
     gradient                   ...        0 min,  0.069 sec
 * total energy  :   -99.2159891 Eh     change       -0.1021245E-01 Eh
   gradient norm :     0.0371718 Eh/α   predicted    -0.9347402E-02 (  -8.47%)
   displ. norm   :     0.2119086 α      lambda       -0.4195515E-02
   maximum displ.:     0.0497856 α      in ANC's #54, #38, #1, ...

........................................................................
.............................. CYCLE    7 ..............................
........................................................................

 iter      E             dE          RMSdq      gap      omega  full diag
   1   -100.5961540 -0.100596E+03  0.951E-02    1.23       0.0  T
   2   -100.5961625 -0.847969E-05  0.617E-02    1.26       1.0  T
   3   -100.5961448  0.176955E-04  0.477E-02    1.23       1.0  T
   4   -100.5962213 -0.765794E-04  0.284E-02    1.24       1.0  T
   5   -100.5963024 -0.810611E-04  0.171E-02    1.25       1.0  T
   6   -100.5963295 -0.270624E-04  0.226E-03    1.24       5.2  T
   7   -100.5963296 -0.169529E-06  0.154E-03    1.24       7.6  T
   8   -100.5963298 -0.139313E-06  0.984E-04    1.24      12.0  T
   9   -100.5963298 -0.661024E-07  0.303E-04    1.24      38.9  T
     SCC iter.                  ...        0 min,  0.072 sec
     gradient                   ...        0 min,  0.069 sec
 * total energy  :   -99.2193424 Eh     change       -0.3353292E-02 Eh
   gradient norm :     0.0369816 Eh/α   predicted    -0.2191965E-02 ( -34.63%)
   displ. norm   :     0.3875962 α      lambda       -0.7207274E-02
   maximum displ.:     0.1064798 α      in ANC's #38, #39, #54, ...

........................................................................
.............................. CYCLE    8 ..............................
........................................................................

 iter      E             dE          RMSdq      gap      omega  full diag
   1   -100.6025763 -0.100603E+03  0.202E-01    1.12       0.0  T
   2   -100.6017144  0.861926E-03  0.178E-01    1.20       1.0  T
   3   -100.6029485 -0.123410E-02  0.105E-01    1.13       1.0  T
   4   -100.6031889 -0.240432E-03  0.666E-02    1.15       1.0  T
   5   -100.6035017 -0.312812E-03  0.310E-02    1.15       1.0  T
   6   -100.6036394 -0.137678E-03  0.434E-03    1.15       2.7  T
   7   -100.6036395 -0.995355E-07  0.301E-03    1.15       3.9  T
   8   -100.6036398 -0.268834E-06  0.189E-03    1.15       6.2  T
   9   -100.6036400 -0.226219E-06  0.873E-04    1.15      13.5  T
  10   -100.6036401 -0.587493E-07  0.230E-04    1.15      51.3  T
     SCC iter.                  ...        0 min,  0.081 sec
     gradient                   ...        0 min,  0.069 sec
 * total energy  :   -99.2253085 Eh     change       -0.5966127E-02 Eh
   gradient norm :     0.0512707 Eh/α   predicted    -0.4144997E-02 ( -30.52%)
   displ. norm   :     0.6260976 α      lambda       -0.1195046E-01
   maximum displ.:     0.1792629 α      in ANC's #38, #39, #36, ...

........................................................................
.............................. CYCLE    9 ..............................
........................................................................

 iter      E             dE          RMSdq      gap      omega  full diag
   1   -100.6067758 -0.100607E+03  0.387E-01    0.89       0.0  T
   2   -100.5992747  0.750117E-02  0.416E-01    1.13       1.0  T
   3   -100.6102897 -0.110150E-01  0.169E-01    0.93       1.0  T
   4   -100.6104254 -0.135681E-03  0.111E-01    1.01       1.0  T
   5   -100.6116207 -0.119535E-02  0.451E-02    0.97       1.0  T
   6   -100.6118089 -0.188195E-03  0.125E-02    0.98       1.0  T
   7   -100.6118107 -0.177366E-05  0.881E-03    0.98       1.3  T
   8   -100.6118181 -0.738664E-05  0.382E-03    0.98       3.1  T
   9   -100.6118189 -0.831761E-06  0.147E-03    0.98       8.0  T
  10   -100.6118190 -0.803387E-07  0.456E-04    0.98      25.8  T
  11   -100.6118190 -0.323820E-08  0.225E-04    0.98      52.5  T
     SCC iter.                  ...        0 min,  0.088 sec
     gradient                   ...        0 min,  0.069 sec
 * total energy  :   -99.2371648 Eh     change       -0.1185635E-01 Eh
   gradient norm :     0.0933868 Eh/α   predicted    -0.8317450E-02 ( -29.85%)
   displ. norm   :     0.8978957 α      lambda       -0.2159092E-01
   maximum displ.:     0.2474856 α      in ANC's #38, #39, #156, ...

........................................................................
.............................. CYCLE   10 ..............................
........................................................................

 iter      E             dE          RMSdq      gap      omega  full diag
   1   -100.5984101 -0.100598E+03  0.574E-01    0.67       0.0  T
   2   -100.5767355  0.216746E-01  0.678E-01    0.98       1.0  T
   3   -100.6083389 -0.316034E-01  0.239E-01    0.71       1.0  T
   4   -100.6074840  0.854838E-03  0.152E-01    0.88       1.0  T
   5   -100.6101843 -0.270024E-02  0.452E-02    0.77       1.0  T
   6   -100.6102492 -0.649367E-04  0.239E-02    0.79       1.0  T
   7   -100.6102585 -0.925067E-05  0.174E-02    0.77       1.0  T
   8   -100.6102899 -0.314590E-04  0.444E-03    0.78       2.7  T
   9   -100.6102909 -0.984735E-06  0.188E-03    0.78       6.3  T
  10   -100.6102911 -0.152457E-06  0.659E-04    0.78      17.9  T
  11   -100.6102911 -0.148905E-07  0.318E-04    0.78      37.1  T
     SCC iter.                  ...        0 min,  0.089 sec
     gradient                   ...        0 min,  0.069 sec
 * total energy  :   -99.2535106 Eh     change       -0.1634578E-01 Eh
   gradient norm :     0.1523338 Eh/α   predicted    -0.1949872E-01 (  19.29%)
   displ. norm   :     0.3800339 α      lambda       -0.1163794E-01
   maximum displ.:     0.0985502 α      in ANC's #154, #156, #157, ...

........................................................................
.............................. CYCLE   11 ..............................
........................................................................

 iter      E             dE          RMSdq      gap      omega  full diag
   1   -100.6263930 -0.100626E+03  0.191E-01    0.73       0.0  T
   2   -100.6251118  0.128115E-02  0.195E-01    0.74       1.0  T
   3   -100.6270164 -0.190460E-02  0.904E-02    0.73       1.0  T
   4   -100.6271020 -0.856037E-04  0.384E-02    0.74       1.0  T
   5   -100.6272090 -0.106986E-03  0.168E-02    0.74       1.0  T
   6   -100.6272188 -0.974183E-05  0.966E-03    0.73       1.2  T
   7   -100.6272239 -0.517368E-05  0.584E-03    0.74       2.0  T
   8   -100.6272270 -0.308238E-05  0.118E-03    0.73      10.0  T
   9   -100.6272271 -0.360801E-07  0.614E-04    0.73      19.2  T
  10   -100.6272271 -0.164446E-07  0.185E-04    0.73      63.7  T
     SCC iter.                  ...        0 min,  0.081 sec
     gradient                   ...        0 min,  0.075 sec
 * total energy  :   -99.2592422 Eh     change       -0.5731555E-02 Eh
   gradient norm :     0.1746421 Eh/α   predicted    -0.6659438E-02 (  16.19%)
   displ. norm   :     0.3484041 α      lambda       -0.1591718E-01
   maximum displ.:     0.1071469 α      in ANC's #2, #184, #38, ...

........................................................................
.............................. CYCLE   12 ..............................
........................................................................

 iter      E             dE          RMSdq      gap      omega  full diag
   1   -100.6345099 -0.100635E+03  0.956E-02    0.76       0.0  T
   2   -100.6340287  0.481144E-03  0.878E-02    0.65       1.0  T
   3   -100.6343277 -0.298939E-03  0.686E-02    0.77       1.0  T
   4   -100.6346220 -0.294358E-03  0.210E-02    0.72       1.0  T
   5   -100.6346600 -0.379433E-04  0.665E-03    0.72       1.8  T
   6   -100.6346650 -0.507879E-05  0.307E-03    0.72       3.8  T
   7   -100.6346653 -0.227424E-06  0.188E-03    0.72       6.3  T
   8   -100.6346655 -0.235795E-06  0.814E-04    0.72      14.5  T
   9   -100.6346655 -0.402784E-07  0.239E-04    0.72      49.3  T
     SCC iter.                  ...        0 min,  0.073 sec
     gradient                   ...        0 min,  0.070 sec
 * total energy  :   -99.2720435 Eh     change       -0.1280129E-01 Eh
   gradient norm :     0.1533464 Eh/α   predicted    -0.8924669E-02 ( -30.28%)
   displ. norm   :     0.5228247 α      lambda       -0.4138940E-01
   maximum displ.:     0.2225515 α      in ANC's #2, #184, #114, ...

........................................................................
.............................. CYCLE   13 ..............................
........................................................................

 iter      E             dE          RMSdq      gap      omega  full diag
   1   -100.6881130 -0.100688E+03  0.380E-01    0.79       0.0  T
   2   -100.6836538  0.445921E-02  0.330E-01    0.59       1.0  T
   3   -100.6886304 -0.497659E-02  0.241E-01    0.87       1.0  T
   4   -100.6896167 -0.986324E-03  0.124E-01    0.62       1.0  T
   5   -100.6911590 -0.154229E-02  0.489E-02    0.77       1.0  T
   6   -100.6913606 -0.201588E-03  0.150E-02    0.74       1.0  T
   7   -100.6913752 -0.145847E-04  0.641E-03    0.74       1.8  T
   8   -100.6913760 -0.873877E-06  0.483E-03    0.74       2.4  T
   9   -100.6913780 -0.190232E-05  0.728E-04    0.74      16.2  T
  10   -100.6913780 -0.174142E-07  0.338E-04    0.74      34.8  T
  11   -100.6913780 -0.444608E-08  0.163E-04    0.74      72.2  T
     SCC iter.                  ...        0 min,  0.088 sec
     gradient                   ...        0 min,  0.069 sec
 * total energy  :   -99.2940914 Eh     change       -0.2204796E-01 Eh
   gradient norm :     0.1142510 Eh/α   predicted    -0.2635151E-01 (  19.52%)
   displ. norm   :     0.4989390 α      lambda       -0.2630990E-01
   maximum displ.:     0.2577665 α      in ANC's #184, #1, #185, ...

........................................................................
.............................. CYCLE   14 ..............................
........................................................................

 iter      E             dE          RMSdq      gap      omega  full diag
   1   -100.6962901 -0.100696E+03  0.254E-01    0.84       0.0  T
   2   -100.6925164  0.377365E-02  0.268E-01    0.58       1.0  T
   3   -100.6965717 -0.405527E-02  0.152E-01    0.85       1.0  T
   4   -100.6970475 -0.475852E-03  0.815E-02    0.70       1.0  T
   5   -100.6975871 -0.539553E-03  0.328E-02    0.78       1.0  T
   6   -100.6976984 -0.111349E-03  0.737E-03    0.75       1.6  T
   7   -100.6977001 -0.161518E-05  0.447E-03    0.75       2.6  T
   8   -100.6977013 -0.125782E-05  0.239E-03    0.75       4.9  T
   9   -100.6977017 -0.394832E-06  0.485E-04    0.75      24.3  T
  10   -100.6977017 -0.110409E-07  0.267E-04    0.75      44.1  T
     SCC iter.                  ...        0 min,  0.081 sec
     gradient                   ...        0 min,  0.069 sec
 * total energy  :   -99.3018842 Eh     change       -0.7792755E-02 Eh
   gradient norm :     0.0811860 Eh/α   predicted    -0.1642977E-01 ( 110.83%)
   displ. norm   :     0.4386965 α      lambda       -0.1521175E-01
   maximum displ.:     0.1242765 α      in ANC's #38, #39, #48, ...

........................................................................
.............................. CYCLE   15 ..............................
........................................................................

 iter      E             dE          RMSdq      gap      omega  full diag
   1   -100.7069950 -0.100707E+03  0.208E-01    0.70       0.0  T
   2   -100.7047702  0.222483E-02  0.214E-01    0.80       1.0  T
   3   -100.7079127 -0.314252E-02  0.105E-01    0.71       1.0  T
   4   -100.7082163 -0.303612E-03  0.285E-02    0.76       1.0  T
   5   -100.7082415 -0.252469E-04  0.226E-02    0.72       1.0  T
   6   -100.7082881 -0.465236E-04  0.433E-03    0.74       2.7  T
   7   -100.7082887 -0.659404E-06  0.298E-03    0.74       4.0  T
   8   -100.7082894 -0.656913E-06  0.853E-04    0.74      13.8  T
   9   -100.7082894 -0.567497E-07  0.363E-04    0.74      32.5  T
     SCC iter.                  ...        0 min,  0.073 sec
     gradient                   ...        0 min,  0.069 sec
 * total energy  :   -99.3100006 Eh     change       -0.8116461E-02 Eh
   gradient norm :     0.0503373 Eh/α   predicted    -0.9069981E-02 (  11.75%)
   displ. norm   :     0.3546808 α      lambda       -0.7223197E-02
   maximum displ.:     0.1980122 α      in ANC's #1, #2, #54, ...

........................................................................
.............................. CYCLE   16 ..............................
........................................................................

 iter      E             dE          RMSdq      gap      omega  full diag
   1   -100.7151345 -0.100715E+03  0.147E-01    0.73       0.0  T
   2   -100.7150754  0.591798E-04  0.936E-02    0.71       1.0  T
   3   -100.7140941  0.981222E-03  0.113E-01    0.79       1.0  T
   4   -100.7151309 -0.103672E-02  0.241E-02    0.71       1.0  T
   5   -100.7151975 -0.666180E-04  0.144E-02    0.74       1.0  T
   6   -100.7152140 -0.165366E-04  0.397E-03    0.73       3.0  T
   7   -100.7152154 -0.142540E-05  0.280E-03    0.73       4.2  T
   8   -100.7152157 -0.303744E-06  0.978E-04    0.73      12.1  T
   9   -100.7152158 -0.851325E-07  0.375E-04    0.73      31.4  T
     SCC iter.                  ...        0 min,  0.073 sec
     gradient                   ...        0 min,  0.069 sec
 * total energy  :   -99.3132440 Eh     change       -0.3243408E-02 Eh
   gradient norm :     0.0362934 Eh/α   predicted    -0.4065944E-02 (  25.36%)
   displ. norm   :     0.1664569 α      lambda       -0.2669025E-02
   maximum displ.:     0.0776568 α      in ANC's #1, #2, #184, ...

........................................................................
.............................. CYCLE   17 ..............................
........................................................................

 iter      E             dE          RMSdq      gap      omega  full diag
   1   -100.7140519 -0.100714E+03  0.804E-02    0.75       0.0  T
   2   -100.7138763  0.175599E-03  0.745E-02    0.70       1.0  T
   3   -100.7140505 -0.174140E-03  0.454E-02    0.76       1.0  T
   4   -100.7140726 -0.220950E-04  0.252E-02    0.71       1.0  T
   5   -100.7141400 -0.674498E-04  0.629E-03    0.73       1.9  T
   6   -100.7141429 -0.283539E-05  0.270E-03    0.73       4.4  T
   7   -100.7141431 -0.283056E-06  0.200E-03    0.73       5.9  T
   8   -100.7141434 -0.233150E-06  0.513E-04    0.73      23.0  T
   9   -100.7141434 -0.124722E-07  0.129E-04    0.73      91.1  T
     SCC iter.                  ...        0 min,  0.073 sec
     gradient                   ...        0 min,  0.069 sec
 * total energy  :   -99.3151316 Eh     change       -0.1887565E-02 Eh
   gradient norm :     0.0186587 Eh/α   predicted    -0.1371534E-02 ( -27.34%)
   displ. norm   :     0.2384613 α      lambda       -0.2157071E-02
   maximum displ.:     0.1320583 α      in ANC's #2, #10, #1, ...

........................................................................
.............................. CYCLE   18 ..............................
........................................................................

 iter      E             dE          RMSdq      gap      omega  full diag
   1   -100.7133799 -0.100713E+03  0.787E-02    0.74       0.0  T
   2   -100.7133417  0.382500E-04  0.498E-02    0.72       1.0  T
   3   -100.7130329  0.308813E-03  0.648E-02    0.78       1.0  T
   4   -100.7133844 -0.351566E-03  0.137E-02    0.72       1.0  T
   5   -100.7134026 -0.181886E-04  0.317E-03    0.73       3.7  T
   6   -100.7134033 -0.643377E-06  0.162E-03    0.73       7.3  T
   7   -100.7134033 -0.787683E-07  0.789E-04    0.73      14.9  T
   8   -100.7134034 -0.306858E-07  0.463E-04    0.73      25.5  T
     SCC iter.                  ...        0 min,  0.065 sec
     gradient                   ...        0 min,  0.069 sec
 * total energy  :   -99.3166290 Eh     change       -0.1497355E-02 Eh
   gradient norm :     0.0143023 Eh/α   predicted    -0.1139876E-02 ( -23.87%)
   displ. norm   :     0.2439117 α      lambda       -0.1488842E-02
   maximum displ.:     0.1211153 α      in ANC's #2, #10, #1, ...

........................................................................
.............................. CYCLE   19 ..............................
........................................................................

 iter      E             dE          RMSdq      gap      omega  full diag
   1   -100.7160396 -0.100716E+03  0.772E-02    0.75       0.0  T
   2   -100.7160084  0.311927E-04  0.496E-02    0.72       1.0  T
   3   -100.7156286  0.379801E-03  0.641E-02    0.80       1.0  T
   4   -100.7160454 -0.416770E-03  0.133E-02    0.73       1.0  T
   5   -100.7160604 -0.149540E-04  0.468E-03    0.74       2.5  T
   6   -100.7160624 -0.202927E-05  0.140E-03    0.74       8.4  T
   7   -100.7160624 -0.535030E-07  0.756E-04    0.74      15.6  T
   8   -100.7160625 -0.301446E-07  0.493E-04    0.74      23.9  T
     SCC iter.                  ...        0 min,  0.065 sec
     gradient                   ...        0 min,  0.069 sec
 * total energy  :   -99.3177221 Eh     change       -0.1093181E-02 Eh
   gradient norm :     0.0146108 Eh/α   predicted    -0.7887125E-03 ( -27.85%)
   displ. norm   :     0.3008023 α      lambda       -0.1516507E-02
   maximum displ.:     0.1544241 α      in ANC's #2, #10, #57, ...

........................................................................
.............................. CYCLE   20 ..............................
........................................................................

 iter      E             dE          RMSdq      gap      omega  full diag
   1   -100.7168855 -0.100717E+03  0.840E-02    0.75       0.0  T
   2   -100.7168846  0.942359E-06  0.503E-02    0.74       1.0  T
   3   -100.7167005  0.184083E-03  0.456E-02    0.77       1.0  T
   4   -100.7168858 -0.185300E-03  0.117E-02    0.73       1.0  T
   5   -100.7168993 -0.134957E-04  0.634E-03    0.75       1.9  T
   6   -100.7169030 -0.373400E-05  0.135E-03    0.74       8.7  T
   7   -100.7169031 -0.218157E-07  0.837E-04    0.74      14.1  T
   8   -100.7169031 -0.369371E-07  0.524E-04    0.74      22.5  T
     SCC iter.                  ...        0 min,  0.065 sec
     gradient                   ...        0 min,  0.069 sec
 * total energy  :   -99.3187338 Eh     change       -0.1011644E-02 Eh
   gradient norm :     0.0162655 Eh/α   predicted    -0.8268644E-03 ( -18.27%)
   displ. norm   :     0.3179934 α      lambda       -0.1403958E-02
   maximum displ.:     0.1525115 α      in ANC's #10, #57, #2, ...
 * RMSD in coord.:     0.5230144 α      energy gain  -0.6179947E+00 Eh

generating ANC from model Hessian ...
Using Lindh-Hessian (1995)
 Shifting diagonal of input Hessian by    1.0203384466443375E-002
 Lowest  eigenvalues of input Hessian
    0.010000    0.010175    0.000000    0.000000    0.000000    0.000000
    0.000000    0.000000    0.010221    0.010237    0.010308    0.010316
    0.010522    0.010714    0.010825    0.011056    0.011454    0.011817
 Highest eigenvalues
    2.017737    2.041535    2.102927    2.160313    2.183700    2.199880


........................................................................
.............................. CYCLE   21 ..............................
........................................................................

 iter      E             dE          RMSdq      gap      omega  full diag
   1   -100.7232459 -0.100723E+03  0.895E-02    0.77       0.0  T
   2   -100.7231037  0.142181E-03  0.673E-02    0.71       1.0  T
   3   -100.7228743  0.229462E-03  0.690E-02    0.82       1.0  T
   4   -100.7232729 -0.398599E-03  0.208E-02    0.74       1.0  T
   5   -100.7233080 -0.351760E-04  0.588E-03    0.75       2.0  T
   6   -100.7233104 -0.233457E-05  0.143E-03    0.75       8.2  T
   7   -100.7233104 -0.302312E-07  0.119E-03    0.75       9.9  T
   8   -100.7233105 -0.101046E-06  0.384E-04    0.75      30.7  T
   9   -100.7233105 -0.981920E-08  0.115E-04    0.75     102.9  T
     SCC iter.                  ...        0 min,  0.073 sec
     gradient                   ...        0 min,  0.069 sec
 * total energy  :   -99.3195728 Eh     change       -0.8390460E-03 Eh
   gradient norm :     0.0170946 Eh/α   predicted     0.0000000E+00 (-100.00%)
   displ. norm   :     0.2766155 α      lambda       -0.1976130E-02
   maximum displ.:     0.1845981 α      in ANC's #9, #47, #8, ...

........................................................................
.............................. CYCLE   22 ..............................
........................................................................

 iter      E             dE          RMSdq      gap      omega  full diag
   1   -100.7224175 -0.100722E+03  0.765E-02    0.73       0.0  T
   2   -100.7223239  0.936630E-04  0.570E-02    0.78       1.0  T
   3   -100.7222604  0.634737E-04  0.553E-02    0.70       1.0  T
   4   -100.7224201 -0.159746E-03  0.210E-02    0.76       1.0  T
   5   -100.7224670 -0.469003E-04  0.239E-03    0.75       4.9  T
   6   -100.7224672 -0.190303E-06  0.131E-03    0.75       9.0  T
   7   -100.7224673 -0.556946E-07  0.821E-04    0.75      14.4  T
   8   -100.7224673 -0.437388E-07  0.314E-04    0.75      37.5  T
     SCC iter.                  ...        0 min,  0.065 sec
     gradient                   ...        0 min,  0.071 sec
 * total energy  :   -99.3210635 Eh     change       -0.1490655E-02 Eh
   gradient norm :     0.0080457 Eh/α   predicted    -0.1063703E-02 ( -28.64%)
   displ. norm   :     0.4259367 α      lambda       -0.1582053E-02
   maximum displ.:     0.3064855 α      in ANC's #9, #8, #5, ...

........................................................................
.............................. CYCLE   23 ..............................
........................................................................

 iter      E             dE          RMSdq      gap      omega  full diag
   1   -100.7211759 -0.100721E+03  0.931E-02    0.72       0.0  T
   2   -100.7210929  0.829864E-04  0.639E-02    0.77       1.0  T
   3   -100.7208455  0.247431E-03  0.709E-02    0.68       1.0  T
   4   -100.7211798 -0.334293E-03  0.221E-02    0.75       1.0  T
   5   -100.7212311 -0.512459E-04  0.392E-03    0.74       3.0  T
   6   -100.7212319 -0.856646E-06  0.189E-03    0.74       6.2  T
   7   -100.7212320 -0.122945E-06  0.121E-03    0.74       9.7  T
   8   -100.7212321 -0.863892E-07  0.443E-04    0.74      26.6  T
   9   -100.7212321 -0.157808E-07  0.152E-04    0.74      77.4  T
     SCC iter.                  ...        0 min,  0.073 sec
     gradient                   ...        0 min,  0.069 sec
 * total energy  :   -99.3222294 Eh     change       -0.1165952E-02 Eh
   gradient norm :     0.0096390 Eh/α   predicted    -0.9345373E-03 ( -19.85%)
   displ. norm   :     0.4204347 α      lambda       -0.1044699E-02
   maximum displ.:     0.3061365 α      in ANC's #9, #8, #5, ...

........................................................................
.............................. CYCLE   24 ..............................
........................................................................

 iter      E             dE          RMSdq      gap      omega  full diag
   1   -100.7218100 -0.100722E+03  0.751E-02    0.73       0.0  T
   2   -100.7218032  0.680403E-05  0.455E-02    0.74       1.0  T
   3   -100.7215871  0.216085E-03  0.482E-02    0.69       1.0  T
   4   -100.7218181 -0.230988E-03  0.879E-03    0.74       1.3  T
   5   -100.7218234 -0.531621E-05  0.467E-03    0.73       2.5  T
   6   -100.7218251 -0.174246E-05  0.173E-03    0.73       6.8  T
   7   -100.7218252 -0.942426E-07  0.113E-03    0.73      10.4  T
   8   -100.7218253 -0.770085E-07  0.401E-04    0.73      29.4  T
   9   -100.7218253 -0.151217E-07  0.125E-04    0.73      94.1  T
     SCC iter.                  ...        0 min,  0.073 sec
     gradient                   ...        0 min,  0.069 sec
 * total energy  :   -99.3231249 Eh     change       -0.8954276E-03 Eh
   gradient norm :     0.0109027 Eh/α   predicted    -0.6146883E-03 ( -31.35%)
   displ. norm   :     0.4996474 α      lambda       -0.1169848E-02
   maximum displ.:     0.3506545 α      in ANC's #9, #8, #7, ...

........................................................................
.............................. CYCLE   25 ..............................
........................................................................

 iter      E             dE          RMSdq      gap      omega  full diag
   1   -100.7239082 -0.100724E+03  0.863E-02    0.73       0.0  T
   2   -100.7239076  0.649402E-06  0.510E-02    0.73       1.0  T
   3   -100.7237230  0.184636E-03  0.445E-02    0.75       1.0  T
   4   -100.7239127 -0.189776E-03  0.886E-03    0.72       1.3  T
   5   -100.7239190 -0.623694E-05  0.448E-03    0.73       2.6  T
   6   -100.7239206 -0.166255E-05  0.139E-03    0.73       8.5  T
   7   -100.7239206 -0.156765E-07  0.688E-04    0.73      17.1  T
   8   -100.7239207 -0.439385E-07  0.204E-04    0.73      57.7  T
     SCC iter.                  ...        0 min,  0.065 sec
     gradient                   ...        0 min,  0.069 sec
 * total energy  :   -99.3241189 Eh     change       -0.9940033E-03 Eh
   gradient norm :     0.0086053 Eh/α   predicted    -0.7309510E-03 ( -26.46%)
   displ. norm   :     0.5786678 α      lambda       -0.1063162E-02
   maximum displ.:     0.3995818 α      in ANC's #9, #8, #7, ...

........................................................................
.............................. CYCLE   26 ..............................
........................................................................

 iter      E             dE          RMSdq      gap      omega  full diag
   1   -100.7251482 -0.100725E+03  0.934E-02    0.73       0.0  T
   2   -100.7251435  0.464858E-05  0.557E-02    0.72       1.0  T
   3   -100.7248529  0.290617E-03  0.562E-02    0.76       1.0  T
   4   -100.7251491 -0.296195E-03  0.112E-02    0.72       1.1  T
   5   -100.7251616 -0.124863E-04  0.362E-03    0.73       3.3  T
   6   -100.7251623 -0.674238E-06  0.144E-03    0.73       8.2  T
   7   -100.7251623  0.333272E-08  0.888E-04    0.73      13.3  T
   8   -100.7251624 -0.870011E-07  0.337E-04    0.73      34.9  T
     SCC iter.                  ...        0 min,  0.065 sec
     gradient                   ...        0 min,  0.075 sec
 * total energy  :   -99.3250051 Eh     change       -0.8862251E-03 Eh
   gradient norm :     0.0079252 Eh/α   predicted    -0.7095843E-03 ( -19.93%)
   displ. norm   :     0.5821258 α      lambda       -0.8244884E-03
   maximum displ.:     0.4014478 α      in ANC's #9, #7, #8, ...

........................................................................
.............................. CYCLE   27 ..............................
........................................................................

 iter      E             dE          RMSdq      gap      omega  full diag
   1   -100.7264005 -0.100726E+03  0.841E-02    0.73       0.0  T
   2   -100.7263991  0.139910E-05  0.496E-02    0.72       1.0  T
   3   -100.7262044  0.194715E-03  0.456E-02    0.75       1.0  T
   4   -100.7264019 -0.197528E-03  0.920E-03    0.72       1.3  T
   5   -100.7264101 -0.825331E-05  0.355E-03    0.73       3.3  T
   6   -100.7264109 -0.747709E-06  0.137E-03    0.73       8.6  T
   7   -100.7264109 -0.113856E-07  0.686E-04    0.73      17.2  T
   8   -100.7264110 -0.524224E-07  0.209E-04    0.73      56.3  T
     SCC iter.                  ...        0 min,  0.065 sec
     gradient                   ...        0 min,  0.069 sec
 * total energy  :   -99.3256973 Eh     change       -0.6922237E-03 Eh
   gradient norm :     0.0077381 Eh/α   predicted    -0.5519439E-03 ( -20.27%)
   displ. norm   :     0.5762197 α      lambda       -0.6674372E-03
   maximum displ.:     0.3963175 α      in ANC's #9, #7, #2, ...

........................................................................
.............................. CYCLE   28 ..............................
........................................................................

 iter      E             dE          RMSdq      gap      omega  full diag
   1   -100.7276933 -0.100728E+03  0.757E-02    0.72       0.0  T
   2   -100.7276938 -0.527168E-06  0.443E-02    0.72       1.0  T
   3   -100.7275867  0.107129E-03  0.325E-02    0.73       1.0  T
   4   -100.7276972 -0.110503E-03  0.630E-03    0.72       1.9  T
   5   -100.7276999 -0.273031E-05  0.401E-03    0.73       2.9  T
   6   -100.7277012 -0.126519E-05  0.143E-03    0.72       8.2  T
   7   -100.7277012  0.196087E-08  0.102E-03    0.72      11.6  T
   8   -100.7277013 -0.692830E-07  0.312E-04    0.72      37.8  T
   9   -100.7277013 -0.665867E-08  0.108E-04    0.72     108.7  T
     SCC iter.                  ...        0 min,  0.073 sec
     gradient                   ...        0 min,  0.068 sec
 * total energy  :   -99.3262610 Eh     change       -0.5636527E-03 Eh
   gradient norm :     0.0065601 Eh/α   predicted    -0.4445312E-03 ( -21.13%)
   displ. norm   :     0.5806397 α      lambda       -0.5639392E-03
   maximum displ.:     0.3981992 α      in ANC's #9, #2, #7, ...

........................................................................
.............................. CYCLE   29 ..............................
........................................................................

 iter      E             dE          RMSdq      gap      omega  full diag
   1   -100.7288770 -0.100729E+03  0.744E-02    0.72       0.0  T
   2   -100.7288770 -0.462513E-07  0.435E-02    0.72       1.0  T
   3   -100.7287763  0.100697E-03  0.328E-02    0.70       1.0  T
   4   -100.7288836 -0.107322E-03  0.408E-03    0.72       2.9  T
   5   -100.7288839 -0.312453E-06  0.294E-03    0.72       4.0  T
   6   -100.7288842 -0.259136E-06  0.194E-03    0.72       6.1  T
   7   -100.7288844 -0.228184E-06  0.985E-04    0.72      12.0  T
   8   -100.7288845 -0.865217E-07  0.320E-04    0.72      36.8  T
     SCC iter.                  ...        0 min,  0.065 sec
     gradient                   ...        0 min,  0.069 sec
 * total energy  :   -99.3267300 Eh     change       -0.4690598E-03 Eh
   gradient norm :     0.0053124 Eh/α   predicted    -0.3770391E-03 ( -19.62%)
   displ. norm   :     0.5730985 α      lambda       -0.4523118E-03
   maximum displ.:     0.3906621 α      in ANC's #9, #2, #7, ...

........................................................................
.............................. CYCLE   30 ..............................
........................................................................

 iter      E             dE          RMSdq      gap      omega  full diag
   1   -100.7294981 -0.100729E+03  0.734E-02    0.71       0.0  T
   2   -100.7294953  0.276116E-05  0.431E-02    0.72       1.0  T
   3   -100.7293546  0.140682E-03  0.400E-02    0.69       1.0  T
   4   -100.7295024 -0.147793E-03  0.616E-03    0.72       1.9  T
   5   -100.7295047 -0.231816E-05  0.316E-03    0.71       3.7  T
   6   -100.7295053 -0.574930E-06  0.173E-03    0.72       6.8  T
   7   -100.7295055 -0.205997E-06  0.807E-04    0.72      14.6  T
   8   -100.7295056 -0.453553E-07  0.286E-04    0.72      41.2  T
     SCC iter.                  ...        0 min,  0.066 sec
     gradient                   ...        0 min,  0.069 sec
 * total energy  :   -99.3270912 Eh     change       -0.3612143E-03 Eh
   gradient norm :     0.0039189 Eh/α   predicted    -0.3004389E-03 ( -16.83%)
   displ. norm   :     0.5267534 α      lambda       -0.3168931E-03
   maximum displ.:     0.3537731 α      in ANC's #9, #2, #7, ...

........................................................................
.............................. CYCLE   31 ..............................
........................................................................

 iter      E             dE          RMSdq      gap      omega  full diag
   1   -100.7298491 -0.100730E+03  0.693E-02    0.71       0.0  T
   2   -100.7298464  0.271046E-05  0.406E-02    0.72       1.0  T
   3   -100.7297079  0.138455E-03  0.397E-02    0.68       1.0  T
   4   -100.7298507 -0.142820E-03  0.721E-03    0.72       1.6  T
   5   -100.7298548 -0.408314E-05  0.276E-03    0.71       4.3  T
   6   -100.7298552 -0.418096E-06  0.156E-03    0.71       7.6  T
   7   -100.7298554 -0.168542E-06  0.625E-04    0.71      18.9  T
   8   -100.7298554 -0.257045E-07  0.281E-04    0.71      42.0  T
     SCC iter.                  ...        0 min,  0.065 sec
     gradient                   ...        0 min,  0.069 sec
 * total energy  :   -99.3273284 Eh     change       -0.2371492E-03 Eh
   gradient norm :     0.0037225 Eh/α   predicted    -0.2024107E-03 ( -14.65%)
   displ. norm   :     0.4302260 α      lambda       -0.1926201E-03
   maximum displ.:     0.2794680 α      in ANC's #9, #2, #7, ...

........................................................................
.............................. CYCLE   32 ..............................
........................................................................

 iter      E             dE          RMSdq      gap      omega  full diag
   1   -100.7301687 -0.100730E+03  0.581E-02    0.71       0.0  T
   2   -100.7301679  0.740613E-06  0.339E-02    0.72       1.0  T
   3   -100.7301024  0.655578E-04  0.274E-02    0.69       1.0  T
   4   -100.7301701 -0.677367E-04  0.451E-03    0.71       2.6  T
   5   -100.7301715 -0.135762E-05  0.224E-03    0.71       5.3  T
   6   -100.7301718 -0.290713E-06  0.124E-03    0.71       9.5  T
   7   -100.7301719 -0.996689E-07  0.462E-04    0.71      25.5  T
   8   -100.7301719 -0.116203E-07  0.233E-04    0.71      50.5  T
     SCC iter.                  ...        0 min,  0.065 sec
     gradient                   ...        0 min,  0.068 sec
 * total energy  :   -99.3274696 Eh     change       -0.1412533E-03 Eh
   gradient norm :     0.0037042 Eh/α   predicted    -0.1141386E-03 ( -19.20%)
   displ. norm   :     0.3552139 α      lambda       -0.1410592E-03
   maximum displ.:     0.2127242 α      in ANC's #9, #2, #7, ...

........................................................................
.............................. CYCLE   33 ..............................
........................................................................

 iter      E             dE          RMSdq      gap      omega  full diag
   1   -100.7308319 -0.100731E+03  0.493E-02    0.71       0.0  T
   2   -100.7308326 -0.678558E-06  0.286E-02    0.71       1.0  T
   3   -100.7308184  0.141492E-04  0.123E-02    0.70       1.0  T
   4   -100.7308323 -0.138605E-04  0.390E-03    0.71       3.0  T
   5   -100.7308334 -0.113987E-05  0.150E-03    0.71       7.9  T
   6   -100.7308334 -0.244572E-07  0.115E-03    0.71      10.3  T
   7   -100.7308335 -0.103206E-06  0.284E-04    0.71      41.5  T
   8   -100.7308335 -0.475306E-08  0.132E-04    0.71      89.1  T
     SCC iter.                  ...        0 min,  0.066 sec
     gradient                   ...        0 min,  0.068 sec
 * total energy  :   -99.3275793 Eh     change       -0.1096073E-03 Eh
   gradient norm :     0.0036039 Eh/α   predicted    -0.7944147E-04 ( -27.52%)
   displ. norm   :     0.3426468 α      lambda       -0.1428086E-03
   maximum displ.:     0.1706122 α      in ANC's #9, #2, #7, ...

........................................................................
.............................. CYCLE   34 ..............................
........................................................................

 iter      E             dE          RMSdq      gap      omega  full diag
   1   -100.7314709 -0.100731E+03  0.524E-02    0.71       0.0  T
   2   -100.7314719 -0.106335E-05  0.306E-02    0.71       1.0  T
   3   -100.7314624  0.955227E-05  0.100E-02    0.72       1.2  T
   4   -100.7314707 -0.833790E-05  0.444E-03    0.71       2.7  T
   5   -100.7314726 -0.190802E-05  0.135E-03    0.71       8.7  T
   6   -100.7314727 -0.432796E-07  0.653E-04    0.71      18.0  T
   7   -100.7314727 -0.255569E-07  0.306E-04    0.71      38.5  T
     SCC iter.                  ...        0 min,  0.057 sec
     gradient                   ...        0 min,  0.068 sec
 * total energy  :   -99.3276910 Eh     change       -0.1117828E-03 Eh
   gradient norm :     0.0028714 Eh/α   predicted    -0.7978866E-04 ( -28.62%)
   displ. norm   :     0.3378843 α      lambda       -0.1345543E-03
   maximum displ.:     0.1469105 α      in ANC's #2, #9, #7, ...

........................................................................
.............................. CYCLE   35 ..............................
........................................................................

 iter      E             dE          RMSdq      gap      omega  full diag
   1   -100.7316529 -0.100732E+03  0.576E-02    0.71       0.0  T
   2   -100.7316539 -0.104320E-05  0.335E-02    0.71       1.0  T
   3   -100.7316260  0.279214E-04  0.177E-02    0.73       1.0  T
   4   -100.7316538 -0.277884E-04  0.423E-03    0.71       2.8  T
   5   -100.7316552 -0.141555E-05  0.198E-03    0.71       6.0  T
   6   -100.7316554 -0.173534E-06  0.129E-03    0.71       9.2  T
   7   -100.7316555 -0.114529E-06  0.341E-04    0.71      34.6  T
   8   -100.7316555 -0.587707E-08  0.138E-04    0.71      85.6  T
     SCC iter.                  ...        0 min,  0.065 sec
     gradient                   ...        0 min,  0.069 sec
 * total energy  :   -99.3277953 Eh     change       -0.1043057E-03 Eh
   gradient norm :     0.0035039 Eh/α   predicted    -0.7496316E-04 ( -28.13%)
   displ. norm   :     0.3214222 α      lambda       -0.1213300E-03
   maximum displ.:     0.1373707 α      in ANC's #8, #2, #1, ...

........................................................................
.............................. CYCLE   36 ..............................
........................................................................

 iter      E             dE          RMSdq      gap      omega  full diag
   1   -100.7318248 -0.100732E+03  0.580E-02    0.72       0.0  T
   2   -100.7318261 -0.132352E-05  0.336E-02    0.71       1.0  T
   3   -100.7318059  0.202500E-04  0.145E-02    0.73       1.0  T
   4   -100.7318253 -0.194434E-04  0.460E-03    0.71       2.6  T
   5   -100.7318272 -0.190760E-05  0.211E-03    0.72       5.6  T
   6   -100.7318274 -0.232201E-06  0.104E-03    0.71      11.4  T
   7   -100.7318275 -0.481962E-07  0.358E-04    0.71      32.9  T
   8   -100.7318275 -0.891119E-08  0.157E-04    0.71      75.0  T
     SCC iter.                  ...        0 min,  0.065 sec
     gradient                   ...        0 min,  0.069 sec
 * total energy  :   -99.3278894 Eh     change       -0.9401428E-04 Eh
   gradient norm :     0.0038770 Eh/α   predicted    -0.6693440E-04 ( -28.80%)
   displ. norm   :     0.3200732 α      lambda       -0.1145865E-03
   maximum displ.:     0.1443871 α      in ANC's #8, #2, #1, ...

........................................................................
.............................. CYCLE   37 ..............................
........................................................................

 iter      E             dE          RMSdq      gap      omega  full diag
   1   -100.7308895 -0.100731E+03  0.579E-02    0.72       0.0  T
   2   -100.7308912 -0.169138E-05  0.335E-02    0.71       1.0  T
   3   -100.7308830  0.819154E-05  0.100E-02    0.72       1.2  T
   4   -100.7308915 -0.849366E-05  0.330E-03    0.71       3.6  T
   5   -100.7308920 -0.439442E-06  0.182E-03    0.72       6.5  T
   6   -100.7308920 -0.820887E-07  0.141E-03    0.71       8.4  T
   7   -100.7308922 -0.181495E-06  0.525E-04    0.71      22.4  T
   8   -100.7308922 -0.183634E-07  0.135E-04    0.71      87.2  T
     SCC iter.                  ...        0 min,  0.065 sec
     gradient                   ...        0 min,  0.069 sec
 * total energy  :   -99.3279749 Eh     change       -0.8554183E-04 Eh
   gradient norm :     0.0037304 Eh/α   predicted    -0.6316313E-04 ( -26.16%)
   displ. norm   :     0.2819606 α      lambda       -0.9707532E-04
   maximum displ.:     0.1384928 α      in ANC's #8, #1, #2, ...

........................................................................
.............................. CYCLE   38 ..............................
........................................................................

 iter      E             dE          RMSdq      gap      omega  full diag
   1   -100.7319806 -0.100732E+03  0.505E-02    0.71       0.0  T
   2   -100.7319785  0.214254E-05  0.303E-02    0.72       1.0  T
   3   -100.7319047  0.737985E-04  0.324E-02    0.69       1.0  T
   4   -100.7319814 -0.767265E-04  0.618E-03    0.72       1.9  T
   5   -100.7319845 -0.308353E-05  0.230E-03    0.71       5.1  T
   6   -100.7319848 -0.346796E-06  0.109E-03    0.71      10.8  T
   7   -100.7319849 -0.889386E-07  0.507E-04    0.71      23.2  T
   8   -100.7319850 -0.226977E-07  0.177E-04    0.71      66.6  T
     SCC iter.                  ...        0 min,  0.065 sec
     gradient                   ...        0 min,  0.074 sec
 * total energy  :   -99.3280397 Eh     change       -0.6485132E-04 Eh
   gradient norm :     0.0029237 Eh/α   predicted    -0.5240105E-04 ( -19.20%)
   displ. norm   :     0.2327454 α      lambda       -0.7200099E-04
   maximum displ.:     0.1025257 α      in ANC's #2, #1, #8, ...

........................................................................
.............................. CYCLE   39 ..............................
........................................................................

 iter      E             dE          RMSdq      gap      omega  full diag
   1   -100.7300767 -0.100730E+03  0.348E-02    0.71       0.0  T
   2   -100.7300763  0.462617E-06  0.211E-02    0.71       1.0  T
   3   -100.7300322  0.440948E-04  0.202E-02    0.70       1.0  T
   4   -100.7300767 -0.445366E-04  0.488E-03    0.72       2.4  T
   5   -100.7300787 -0.197230E-05  0.214E-03    0.71       5.5  T
   6   -100.7300790 -0.291699E-06  0.688E-04    0.71      17.1  T
   7   -100.7300790 -0.214017E-07  0.413E-04    0.71      28.5  T
     SCC iter.                  ...        0 min,  0.058 sec
     gradient                   ...        0 min,  0.068 sec
 * total energy  :   -99.3280859 Eh     change       -0.4613745E-04 Eh
   gradient norm :     0.0026193 Eh/α   predicted    -0.3795109E-04 ( -17.74%)
   displ. norm   :     0.1532061 α      lambda       -0.5560378E-04
   maximum displ.:     0.0670504 α      in ANC's #1, #2, #10, ...

   *** GEOMETRY OPTIMIZATION CONVERGED AFTER 39 ITERATIONS ***

------------------------------------------------------------------------
 total energy gain   :        -0.6273468 Eh     -393.6661 kcal/mol
 total RMSD          :         0.9998668 a0        0.5291 Å
 total power (kW/mol):       -42.2333024 (step) -254.2125 (real)
------------------------------------------------------------------------

 ANCopt (total)                0 d,  0 h,  0 min,  6.479 sec
 optimizer setup                ...        0 min,  0.000 sec (  0.005%)
 model hessian                  ...        0 min,  0.108 sec (  1.669%)
 ANC generation                 ...        0 min,  0.013 sec (  0.202%)
 coordinate transformation      ...        0 min,  0.003 sec (  0.042%)
 single point calculation       ...        0 min,  6.307 sec ( 97.349%)
 optimization log               ...        0 min,  0.010 sec (  0.156%)
 hessian update                 ...        0 min,  0.003 sec (  0.040%)
 rational function              ...        0 min,  0.017 sec (  0.257%)

================
 final structure:
================
72
 xtb: 6.6.1 (8d0f1dd)
N           -2.32665803333492        3.05361963147565        2.45625464152146
C           -2.12131217370640        2.30722332813750        1.47582909697874
C           -3.12933554511864        2.03064795951886        0.39378690700189
C           -3.51991315711713        0.56114333335544        0.43032813956740
C           -4.31479787474936        0.03313566623888       -0.58889065615841
C           -4.71754394615374       -1.29199360981599       -0.58365950966834
O           -5.49803035895629       -1.87057977802703       -1.51845388697998
C           -6.07313551074258       -1.07047026804912       -2.52615360200122
C           -4.29838929454085       -2.14608081615362        0.47310741522031
O           -4.72492965574886       -3.42161617875050        0.39177906164388
C           -4.42803883149675       -4.31412911479696        1.44053646768428
C           -3.51004672340356       -1.61545547405117        1.48263377048374
C           -3.13176538841977       -0.27924670806437        1.46348198114022
C           -2.42944727906532        2.36104014718570       -0.95290987304518
C           -1.38518334942600        1.33015499365117       -1.41510827678176
C           -0.11351317307935        1.41434615297991       -0.65294851967945
N            0.61936263308139        0.38432979250274       -0.24150482407779
C            1.77070564182179        0.52109625488653        0.40531503461908
C            3.38448050145096       -1.15192046497180       -2.31902959625842
C            4.49542056085709       -0.74816279982249       -1.61895634855363
C            5.02914021421605        0.56272347360602       -1.77262533202645
C            6.14777373446922        0.96267631212051       -1.08921735222749
C            6.80206375068918        0.09382999967413       -0.20954277727032
O            7.89864607700910        0.38100095462358        0.50019375107301
C            8.49498558461101        1.65316425402223        0.38464974724145
C            6.28366020280673       -1.23014751739760       -0.02684946016246
O            6.98564746058284       -1.98530106588868        0.84328753116974
C            6.60859685183733       -3.32668802895664        1.04531827811318
C            5.16413703011968       -1.62511114900773       -0.71321302058828
C            0.13915005317540       -0.96457321179262       -0.48980892799609
C           -4.42565867463572        2.88362167346922        0.53250543602803
C           -5.18676450081432        2.54915610242890        1.81288858874925
C           -4.16667378091364        4.38650942621573        0.46601782963147
H           -4.63266636037395        0.67386852301866       -1.39438544685910
H           -6.66621923070183       -0.25556924429533       -2.09941330730016
H           -6.72605394625636       -1.73422402241721       -3.08990925039288
H           -5.31168508255988       -0.65928839036650       -3.19721435507990
H           -4.83827304574023       -3.96387521030041        2.39212619901140
H           -4.90317424276535       -5.25402157156178        1.16667545148174
H           -3.34946262407857       -4.47047564460649        1.54269485093267
H           -3.19374000660775       -2.23404602286555        2.30706354750524
H           -2.54577510119810        0.10089534819186        2.28603164096210
H           -3.19373390182904        2.43904236106086       -1.72603997648998
H           -1.94895265174429        3.33610668037458       -0.86679899944297
H           -1.82109428710432        0.33329276899700       -1.37100917889518
H           -1.17271102872741        1.54854204590691       -2.47059950303428
H           -1.15858470780775        1.80334940641523        1.28303456677478
H            0.31518219433205        2.39415039655556       -0.50660609345268
H            2.32912219568968       -0.33928461717457        0.70998494514534
H            2.15251861995432        1.50278753156964        0.60667373777042
H            2.89558843849719       -0.49111542615961       -3.01179976147935
H            2.99194072936440       -2.14865571159606       -2.22437086249824
H            4.54043548772059        1.24123254442023       -2.45424926078384
H            6.53133618042897        1.95924793110382       -1.24023371450127
H            7.80855954623235        2.44509699417605        0.69950143209598
H            8.83155260825891        1.84524574375471       -0.63878868660104
H            9.35625505470391        1.63443581209267        1.05096622612683
H            7.33765431458650       -3.73304326018417        1.74406618129860
H            5.60782782941242       -3.40078657964825        1.48299295444881
H            6.64316837205950       -3.89628493860770        0.11185359262584
H            4.76825819704449       -2.62118177956095       -0.59484657819709
H            0.05081242144074       -1.13820884513209       -1.56192304861846
H           -0.83610714134820       -1.11302618331949       -0.02242973005800
H            0.84049814309375       -1.68308231901826       -0.07513904819881
H           -5.06506849944484        2.61477798414654       -0.31634539230849
H           -4.61381968004884        2.86308071076410        2.67935133856905
H           -5.38350556731790        1.48227053387991        1.88740825088741
H           -6.13849025325834        3.07367162308197        1.81798263690289
H           -3.50628410882693        4.69105743654008        1.27221866027805
H           -3.73216739438303        4.68217177636475       -0.48491489625894
H           -5.10910365159084        4.91577456924964        0.57999894848500
H           -1.57015526739429        3.19226729711073        3.11861505729437

 Bond Distances (Angstroems)
 ---------------------------
N1-C2=1.2492         N1-H72=1.0150        C2-N1=1.2492         C2-C3=1.5045         C2-H47=1.1036        C3-C2=1.5045         
C3-C4=1.5210         C3-C14=1.5533        C3-C31=1.5580        C4-C3=1.5210         C4-C5=1.3962         C4-C13=1.3872        
C5-C4=1.3962         C5-C6=1.3850         C5-H34=1.0772        C6-C5=1.3850         C6-O7=1.3482         C6-C9=1.4219         
O7-C6=1.3482         O7-C8=1.4094         C8-O7=1.4094         C8-H35=1.0945        C8-H36=1.0884        C8-H37=1.0951        
C9-C6=1.4219         C9-O10=1.3474        C9-C12=1.3864        O10-C9=1.3474        O10-C11=1.4088       C11-O10=1.4088       
C11-H38=1.0938       C11-H39=1.0882       C11-H40=1.0946       C12-C9=1.3864        C12-C13=1.3889       C12-H41=1.0781       
C13-C4=1.3872        C13-C12=1.3889       C13-H42=1.0791       C14-C3=1.5533        C14-C15=1.5385       C14-H43=1.0899       
C14-H44=1.0904       C15-C14=1.5385       C15-C16=1.4850       C15-H45=1.0889       C15-H46=1.0986       C16-C15=1.4850       
C16-N17=1.3294       C16-H48=1.0795       N17-C16=1.3294       N17-C18=1.3277       N17-C30=1.4532       C18-N17=1.3277       
C18-H49=1.0700       C18-H50=1.0724       C19-C20=1.3738       C19-H51=1.0750       C19-H52=1.0754       C20-C19=1.3738       
C20-C21=1.4237       C20-C29=1.4271       C21-C20=1.4237       C21-C22=1.3705       C21-H53=1.0788       C22-C21=1.3705       
C22-C23=1.3989       C22-H54=1.0785       C23-C22=1.3989       C23-O24=1.3374       C23-C26=1.4335       O24-C23=1.3374       
O24-C25=1.4097       C25-O24=1.4097       C25-H55=1.0943       C25-H56=1.0943       C25-H57=1.0891       C26-C23=1.4335       
C26-O27=1.3491       C26-C29=1.3713       O27-C26=1.3491       O27-C28=1.4079       C28-O27=1.4079       C28-H58=1.0885       
C28-H59=1.0948       C28-H60=1.0941       C29-C20=1.4271       C29-C26=1.3713       C29-H61=1.0784       C30-N17=1.4532       
C30-H62=1.0897       C30-H63=1.0916       C30-H64=1.0863       C31-C3=1.5580        C31-C32=1.5266       C31-C33=1.5265       
C31-H65=1.0962       C32-C31=1.5266       C32-H66=1.0852       C32-H67=1.0874       C32-H68=1.0867       C33-C31=1.5265       
C33-H69=1.0857       C33-H70=1.0865       C33-H71=1.0869       H34-C5=1.0772        H35-C8=1.0945        H36-C8=1.0884        
H37-C8=1.0951        H38-C11=1.0938       H39-C11=1.0882       H40-C11=1.0946       H41-C12=1.0781       H42-C13=1.0791       
H43-C14=1.0899       H44-C14=1.0904       H45-C15=1.0889       H46-C15=1.0986       H47-C2=1.1036        H48-C16=1.0795       
H49-C18=1.0700       H50-C18=1.0724       H51-C19=1.0750       H52-C19=1.0754       H53-C21=1.0788       H54-C22=1.0785       
H55-C25=1.0943       H56-C25=1.0943       H57-C25=1.0891       H58-C28=1.0885       H59-C28=1.0948       H60-C28=1.0941       
H61-C29=1.0784       H62-C30=1.0897       H63-C30=1.0916       H64-C30=1.0863       H65-C31=1.0962       H66-C32=1.0852       
H67-C32=1.0874       H68-C32=1.0867       H69-C33=1.0857       H70-C33=1.0865       H71-C33=1.0869       H72-N1=1.0150        
 C  H  Rav=1.0870 sigma=0.0078  Rmin=1.0700  Rmax=1.1036    38
 C  C  Rav=1.4466 sigma=0.0665  Rmin=1.3705  Rmax=1.5580    21
 N  H  Rav=1.0150 sigma=0.0000  Rmin=1.0150  Rmax=1.0150     1
 N  C  Rav=1.3399 sigma=0.0730  Rmin=1.2492  Rmax=1.4532     4
 O  C  Rav=1.3773 sigma=0.0319  Rmin=1.3374  Rmax=1.4097     8

 selected bond angles (degree)
 --------------------
H72-N1-C2=118.12               C3-C2-N1=124.35                H47-C2-N1=123.59               H47-C2-C3=112.02               
C4-C3-C2=109.41                C14-C3-C2=106.41               C14-C3-C4=110.00               C31-C3-C2=113.13               
C31-C3-C4=108.25               C31-C3-C14=109.61              C5-C4-C3=119.61                C13-C4-C3=122.10               
C13-C4-C5=118.29               C6-C5-C4=121.64                H34-C5-C4=119.27               H34-C5-C6=119.09               
O7-C6-C5=125.19                C9-C6-C5=119.46                C9-C6-O7=115.35                C8-O7-C6=119.23                
H35-C8-O7=111.41               H36-C8-O7=105.60               H36-C8-H35=109.33              H37-C8-O7=111.57               
H37-C8-H35=109.64              H37-C8-H36=109.19              O10-C9-C6=115.50               C12-C9-C6=118.61               
C12-C9-O10=125.89              C11-O10-C9=119.22              

 selected dihedral angles (degree)
 ---------------------------------
C3-C2-N1-H72=181.56           H47-C2-N1-H72=359.04          C4-C3-C2-N1=245.03            C4-C3-C2-H47= 67.29           
C14-C3-C2-N1=126.22           C14-C3-C2-H47=308.48          C31-C3-C2-N1=  5.80           C31-C3-C2-H47=188.06          
C5-C4-C3-C2=188.13            C5-C4-C3-C14=304.68           C5-C4-C3-C31= 64.43           C13-C4-C3-C2=  9.34           
C13-C4-C3-C14=125.90          C13-C4-C3-C31=245.64          C6-C5-C4-C3=181.32            C6-C5-C4-C13=  0.15           
H34-C5-C4-C3=  0.62           H34-C5-C4-C13=179.46          O7-C6-C5-C4=179.04            O7-C6-C5-H34=359.73           
C9-C6-C5-C4=359.07            C9-C6-C5-H34=179.76           C8-O7-C6-C5=353.54            C8-O7-C6-C9=173.50            
H35-C8-O7-C6=304.01           H36-C8-O7-C6=185.42           H37-C8-O7-C6= 66.91           O10-C9-C6-C5=180.64           
O10-C9-C6-O7=  0.68           C12-C9-C6-C5=  0.95           C12-C9-C6-O7=180.98           C11-O10-C9-C6=184.05          
C11-O10-C9-C12=  3.72         
           -------------------------------------------------
          |                Final Singlepoint                |
           -------------------------------------------------

          ...................................................
          :                      SETUP                      :
          :.................................................:
          :  # basis functions                 171          :
          :  # atomic orbitals                 171          :
          :  # shells                          105          :
          :  # electrons                       180          :
          :  max. iterations                   250          :
          :  Hamiltonian                  GFN2-xTB          :
          :  restarted?                      false          :
          :  GBSA solvation                  false          :
          :  PC potential                    false          :
          :  electronic temp.         5000.0000000     K    :
          :  accuracy                    1.0000000          :
          :  -> integral cutoff          0.2500000E+02      :
          :  -> integral neglect         0.1000000E-07      :
          :  -> SCF convergence          0.1000000E-05 Eh   :
          :  -> wf. convergence          0.1000000E-03 e    :
          :  Broyden damping             0.4000000          :
          ...................................................

 iter      E             dE          RMSdq      gap      omega  full diag
   1   -100.7300790 -0.100730E+03  0.160E-04    0.71       0.0  T
   2   -100.7300790  0.160415E-08  0.197E-04    0.71      60.0  T
   3   -100.7300790 -0.402012E-08  0.374E-05    0.71     315.2  T

   *** convergence criteria satisfied after 3 iterations ***

         #    Occupation            Energy/Eh            Energy/eV
      -------------------------------------------------------------
         1        2.0000           -0.8165783             -22.2202
       ...           ...                  ...                  ...
        84        1.9919           -0.5081205             -13.8267
        85        1.9888           -0.5028343             -13.6828
        86        1.9758           -0.4906293             -13.3507
        87        1.9286           -0.4730906             -12.8734
        88        1.9180           -0.4708042             -12.8112
        89        1.8436           -0.4599584             -12.5161
        90        1.5554           -0.4407199             -11.9926 (HOMO)
        91        0.8023           -0.4145455             -11.2804 (LUMO)
        92        0.0139           -0.3423600              -9.3161
        93        0.0089           -0.3352919              -9.1238
        94        0.0028           -0.3168516              -8.6220
        95        0.0023           -0.3137994              -8.5389
       ...           ...                  ...                  ...
       171                          0.5883729              16.0104
      -------------------------------------------------------------
                  HL-Gap            0.0261745 Eh            0.7122 eV
             Fermi-level           -0.4208901 Eh          -11.4530 eV

 SCC (total)                   0 d,  0 h,  0 min,  0.120 sec
 SCC setup                      ...        0 min,  0.001 sec (  0.920%)
 Dispersion                     ...        0 min,  0.002 sec (  1.759%)
 classical contributions        ...        0 min,  0.001 sec (  0.523%)
 integral evaluation            ...        0 min,  0.020 sec ( 16.499%)
 iterations                     ...        0 min,  0.027 sec ( 22.404%)
 molecular gradient             ...        0 min,  0.069 sec ( 57.349%)
 printout                       ...        0 min,  0.001 sec (  0.531%)

         :::::::::::::::::::::::::::::::::::::::::::::::::::::
         ::                     SUMMARY                     ::
         :::::::::::::::::::::::::::::::::::::::::::::::::::::
         :: total energy             -99.328085896114 Eh    ::
         :: gradient norm              0.002615203623 Eh/a0 ::
         :: HOMO-LUMO gap              0.712243250332 eV    ::
         ::.................................................::
         :: SCC energy              -100.730079008346 Eh    ::
         :: -> isotropic ES            0.104952635141 Eh    ::
         :: -> anisotropic ES          0.004843935810 Eh    ::
         :: -> anisotropic XC          0.048276742323 Eh    ::
         :: -> dispersion             -0.073247503445 Eh    ::
         :: repulsion energy           1.400280920905 Eh    ::
         :: add. restraining           0.000000559369 Eh    ::
         :: total charge               1.000000000000 e     ::
         :::::::::::::::::::::::::::::::::::::::::::::::::::::

           -------------------------------------------------
          |                Property Printout                |
           -------------------------------------------------

    * Orbital Energies and Occupations

         #    Occupation            Energy/Eh            Energy/eV
      -------------------------------------------------------------
         1        2.0000           -0.8165783             -22.2202
       ...           ...                  ...                  ...
        78        1.9977           -0.5276963             -14.3593
        79        1.9976           -0.5271967             -14.3458
        80        1.9966           -0.5220046             -14.2045
        81        1.9964           -0.5208583             -14.1733
        82        1.9943           -0.5137714             -13.9804
        83        1.9935           -0.5116327             -13.9222
        84        1.9919           -0.5081205             -13.8267
        85        1.9888           -0.5028343             -13.6828
        86        1.9758           -0.4906293             -13.3507
        87        1.9286           -0.4730906             -12.8734
        88        1.9180           -0.4708042             -12.8112
        89        1.8436           -0.4599584             -12.5161
        90        1.5554           -0.4407199             -11.9926 (HOMO)
        91        0.8023           -0.4145455             -11.2804 (LUMO)
        92        0.0139           -0.3423600              -9.3161
        93        0.0089           -0.3352919              -9.1238
        94        0.0028           -0.3168516              -8.6220
        95        0.0023           -0.3137994              -8.5389
        96        0.0020           -0.3115304              -8.4772
        97        0.0004           -0.2877799              -7.8309
        98        0.0000           -0.1913409              -5.2067
        99        0.0000           -0.1806135              -4.9147
       100                         -0.1035497              -2.8177
       101                         -0.0666364              -1.8133
       ...                                ...                  ...
       171                          0.5883729              16.0104
      -------------------------------------------------------------
                  HL-Gap            0.0261745 Eh            0.7122 eV
             Fermi-level           -0.4208901 Eh          -11.4530 eV

     #   Z          covCN         q      C6AA      α(0)
     1   7 N        1.774    -0.264    27.680     7.791
     2   6 C        2.826     0.102    25.740     8.313
     3   6 C        3.907     0.007    20.404     6.421
     4   6 C        2.974     0.005    27.901     8.664
     5   6 C        2.921    -0.078    29.956     8.975
     6   6 C        2.862     0.130    25.143     8.219
     7   8 O        1.706    -0.228    17.780     5.693
     8   6 C        3.644     0.027    20.462     6.502
     9   6 C        2.863     0.129    25.165     8.223
    10   8 O        1.706    -0.226    17.752     5.689
    11   6 C        3.645     0.026    20.467     6.502
    12   6 C        2.913    -0.073    29.832     8.956
    13   6 C        2.921    -0.052    29.283     8.874
    14   6 C        3.811    -0.065    21.738     6.636
    15   6 C        3.801    -0.066    21.770     6.643
    16   6 C        2.869    -0.041    29.004     8.828
    17   7 N        2.729     0.101    19.507     6.560
    18   6 C        2.820    -0.106    30.662     9.073
    19   6 C        2.852    -0.098    30.450     9.044
    20   6 C        2.959     0.022    27.513     8.603
    21   6 C        2.921    -0.039    28.971     8.827
    22   6 C        2.906    -0.063    29.567     8.916
    23   6 C        2.864     0.140    24.943     8.186
    24   8 O        1.706    -0.204    17.389     5.630
    25   6 C        3.645     0.022    20.541     6.514
    26   6 C        2.856     0.135    25.045     8.203
    27   8 O        1.706    -0.230    17.819     5.699
    28   6 C        3.645     0.027    20.457     6.501
    29   6 C        2.917    -0.080    29.997     8.981
    30   6 C        3.719    -0.077    22.087     6.713
    31   6 C        3.853    -0.008    20.677     6.467
    32   6 C        3.756    -0.118    22.818     6.811
    33   6 C        3.755    -0.119    22.830     6.813
    34   1 H        0.926     0.054     2.268     2.355
    35   1 H        0.924     0.055     2.261     2.351
    36   1 H        0.925     0.082     1.959     2.189
    37   1 H        0.924     0.050     2.326     2.385
    38   1 H        0.924     0.056     2.243     2.342
    39   1 H        0.925     0.082     1.960     2.189
    40   1 H        0.924     0.049     2.327     2.386
    41   1 H        0.926     0.053     2.279     2.361
    42   1 H        0.926     0.041     2.433     2.439
    43   1 H        0.925     0.056     2.243     2.342
    44   1 H        0.924     0.053     2.277     2.360
    45   1 H        0.925     0.057     2.232     2.336
    46   1 H        0.923     0.066     2.130     2.282
    47   1 H        0.923     0.016     2.802     2.618
    48   1 H        0.926     0.058     2.220     2.330
    49   1 H        0.927     0.060     2.195     2.317
    50   1 H        0.926     0.060     2.203     2.321
    51   1 H        0.926     0.047     2.360     2.402
    52   1 H        0.926     0.047     2.352     2.398
    53   1 H        0.926     0.055     2.259     2.350
    54   1 H        0.926     0.059     2.213     2.326
    55   1 H        0.924     0.059     2.216     2.328
    56   1 H        0.924     0.062     2.176     2.307
    57   1 H        0.925     0.086     1.915     2.164
    58   1 H        0.925     0.082     1.961     2.190
    59   1 H        0.924     0.049     2.337     2.391
    60   1 H        0.924     0.055     2.261     2.352
    61   1 H        0.926     0.054     2.270     2.356
    62   1 H        0.925     0.084     1.939     2.178
    63   1 H        0.924     0.082     1.957     2.188
    64   1 H        0.925     0.085     1.928     2.172
    65   1 H        0.924     0.038     2.477     2.461
    66   1 H        0.925     0.070     2.085     2.258
    67   1 H        0.925     0.035     2.516     2.480
    68   1 H        0.925     0.051     2.307     2.375
    69   1 H        0.925     0.062     2.173     2.305
    70   1 H        0.925     0.037     2.494     2.470
    71   1 H        0.925     0.055     2.263     2.353
    72   1 H        0.860     0.159     1.340     1.813

 Mol. C6AA /au·bohr⁶  :      48143.175867
 Mol. C8AA /au·bohr⁸  :    1099978.615880
 Mol. α(0) /au        :        338.993442


Wiberg/Mayer (AO) data.
largest (>0.10) Wiberg bond orders for each atom

 ---------------------------------------------------------------------------
     #   Z sym  total        # sym  WBO       # sym  WBO       # sym  WBO
 ---------------------------------------------------------------------------
     1   7 N    3.021 --     2 C    1.957    72 H    0.940
     2   6 C    3.932 --     1 N    1.957     3 C    0.993    47 H    0.909
     3   6 C    3.970 --     2 C    0.993     4 C    0.971    14 C    0.954
                            31 C    0.943
     4   6 C    3.943 --    13 C    1.409     5 C    1.370     3 C    0.971
     5   6 C    3.959 --     6 C    1.399     4 C    1.370    34 H    0.957
     6   6 C    3.899 --     5 C    1.399     9 C    1.219     7 O    1.102
     7   8 O    2.251 --     6 C    1.102     8 C    0.977
     8   6 C    3.930 --     7 O    0.977    36 H    0.976    35 H    0.973
                            37 H    0.973
     9   6 C    3.894 --    12 C    1.388     6 C    1.219    10 O    1.104
    10   8 O    2.250 --     9 C    1.104    11 C    0.977
    11   6 C    3.930 --    10 O    0.977    39 H    0.977    40 H    0.973
                            38 H    0.973
    12   6 C    3.959 --    13 C    1.408     9 C    1.388    41 H    0.963
    13   6 C    3.948 --     4 C    1.409    12 C    1.408    42 H    0.962
    14   6 C    3.976 --    15 C    0.988    44 H    0.972    43 H    0.969
                             3 C    0.954
    15   6 C    3.986 --    16 C    1.051    14 C    0.988    45 H    0.961
                            46 H    0.937
    16   6 C    3.669 --    17 N    1.348    15 C    1.051    48 H    0.960
                            18 C    0.213
    17   7 N    3.745 --    18 C    1.366    16 C    1.348    30 C    0.985
    18   6 C    3.594 --    17 N    1.366    49 H    0.975    50 H    0.974
                            16 C    0.213
    19   6 C    3.540 --    20 C    1.498    51 H    0.979    52 H    0.979
    20   6 C    3.979 --    19 C    1.498    21 C    1.207    29 C    1.200
    21   6 C    3.806 --    22 C    1.522    20 C    1.207    53 H    0.967
    22   6 C    3.969 --    21 C    1.522    23 C    1.317    54 H    0.961
    23   6 C    3.767 --    22 C    1.317    26 C    1.172    24 O    1.142
    24   8 O    2.257 --    23 C    1.142    25 C    0.972
    25   6 C    3.924 --    57 H    0.976    24 O    0.972    55 H    0.972
                            56 H    0.971
    26   6 C    3.914 --    29 C    1.482    23 C    1.172    27 O    1.099
    27   8 O    2.255 --    26 C    1.099    28 C    0.978
    28   6 C    3.931 --    27 O    0.978    58 H    0.977    59 H    0.973
                            60 H    0.973
    29   6 C    3.853 --    26 C    1.482    20 C    1.200    61 H    0.962
    30   6 C    3.955 --    17 N    0.985    64 H    0.977    62 H    0.970
                            63 H    0.966
    31   6 C    3.969 --    33 C    1.008    32 C    1.008    65 H    0.958
                             3 C    0.943
    32   6 C    3.975 --    31 C    1.008    67 H    0.981    68 H    0.981
                            66 H    0.972
    33   6 C    3.979 --    31 C    1.008    70 H    0.982    71 H    0.979
                            69 H    0.975
    34   1 H    0.996 --     5 C    0.957
    35   1 H    0.993 --     8 C    0.973
    36   1 H    0.992 --     8 C    0.976
    37   1 H    0.993 --     8 C    0.973
    38   1 H    0.992 --    11 C    0.973
    39   1 H    0.993 --    11 C    0.977
    40   1 H    0.992 --    11 C    0.973
    41   1 H    0.995 --    12 C    0.963
    42   1 H    0.997 --    13 C    0.962
    43   1 H    0.995 --    14 C    0.969
    44   1 H    0.996 --    14 C    0.972
    45   1 H    0.995 --    15 C    0.961
    46   1 H    0.974 --    15 C    0.937
    47   1 H    0.978 --     2 C    0.909
    48   1 H    0.996 --    16 C    0.960
    49   1 H    0.996 --    18 C    0.975
    50   1 H    0.996 --    18 C    0.974
    51   1 H    0.997 --    19 C    0.979
    52   1 H    0.997 --    19 C    0.979
    53   1 H    0.996 --    21 C    0.967
    54   1 H    0.995 --    22 C    0.961
    55   1 H    0.989 --    25 C    0.972
    56   1 H    0.989 --    25 C    0.971
    57   1 H    0.992 --    25 C    0.976
    58   1 H    0.993 --    28 C    0.977
    59   1 H    0.993 --    28 C    0.973
    60   1 H    0.993 --    28 C    0.973
    61   1 H    0.996 --    29 C    0.962
    62   1 H    0.992 --    30 C    0.970
    63   1 H    0.993 --    30 C    0.966
    64   1 H    0.993 --    30 C    0.977
    65   1 H    0.990 --    31 C    0.958
    66   1 H    0.989 --    32 C    0.972
    67   1 H    0.996 --    32 C    0.981
    68   1 H    0.993 --    32 C    0.981
    69   1 H    0.992 --    33 C    0.975
    70   1 H    0.996 --    33 C    0.982
    71   1 H    0.993 --    33 C    0.979
    72   1 H    0.967 --     1 N    0.940
 ---------------------------------------------------------------------------

Topologies differ in total number of bonds
Writing topology from bond orders to xtbtopo.mol

molecular dipole:
                 x           y           z       tot (Debye)
 q only:        1.042       0.004      -0.435
   full:        1.441      -0.080      -0.563       3.937
molecular quadrupole (traceless):
                xx          xy          yy          xz          yz          zz
 q only:       58.951       2.878     -17.540       5.174      -8.948     -41.411
  q+dip:       54.971       7.350     -17.304       7.484     -11.916     -37.667
   full:       54.911       6.555     -17.743       4.116     -12.016     -37.167

           -------------------------------------------------
          |                Geometry Summary                 |
           -------------------------------------------------

      molecular mass/u    :      455.6105846
   center of mass at/Å    :        0.0099411      -0.0082906      -0.0087498
  moments of inertia/u·Å² :        0.2664981E+04   0.1106112E+05   0.1233440E+05
rotational constants/cm⁻¹ :        0.6325610E-02   0.1524044E-02   0.1366717E-02

 * 66 selected distances

     #   Z          #   Z                                           value/Å
     1   7 N        2   6 C                                       1.2492033
     4   6 C        5   6 C                                       1.3962239
     5   6 C        6   6 C                                       1.3849909
     6   6 C        7   8 O                                       1.3482440
     7   8 O        8   6 C                                       1.4093900
     6   6 C        9   6 C                                       1.4219396
     9   6 C       10   8 O                                       1.3474204
    10   8 O       11   6 C                                       1.4087640
     9   6 C       12   6 C                                       1.3864311
     4   6 C       13   6 C                                       1.3871991
    12   6 C       13   6 C                                       1.3888548
    14   6 C       15   6 C                                       1.5384535 (max)
    15   6 C       16   6 C                                       1.4849650
    16   6 C       17   7 N                                       1.3294085
    17   7 N       18   6 C                                       1.3276566
    19   6 C       20   6 C                                       1.3737944
    20   6 C       21   6 C                                       1.4236903
    21   6 C       22   6 C                                       1.3705291
    22   6 C       23   6 C                                       1.3988628
    23   6 C       24   8 O                                       1.3374177
    24   8 O       25   6 C                                       1.4097415
    23   6 C       26   6 C                                       1.4335397
    26   6 C       27   8 O                                       1.3491411
    27   8 O       28   6 C                                       1.4079428
    20   6 C       29   6 C                                       1.4270920
    26   6 C       29   6 C                                       1.3712854
    17   7 N       30   6 C                                       1.4532029
    31   6 C       32   6 C                                       1.5266076
    31   6 C       33   6 C                                       1.5264881
     5   6 C       34   1 H                                       1.0772191
     8   6 C       35   1 H                                       1.0944951
     8   6 C       36   1 H                                       1.0884357
     8   6 C       37   1 H                                       1.0950799
    11   6 C       38   1 H                                       1.0938433
    11   6 C       39   1 H                                       1.0881873
    11   6 C       40   1 H                                       1.0946266
    12   6 C       41   1 H                                       1.0781414
    13   6 C       42   1 H                                       1.0791111
    14   6 C       43   1 H                                       1.0899306
    14   6 C       44   1 H                                       1.0904335
    15   6 C       45   1 H                                       1.0888974
    15   6 C       46   1 H                                       1.0985897
    16   6 C       48   1 H                                       1.0794500
    18   6 C       49   1 H                                       1.0700039 (min)
    18   6 C       50   1 H                                       1.0724013
    19   6 C       51   1 H                                       1.0749928
    19   6 C       52   1 H                                       1.0754204
    21   6 C       53   1 H                                       1.0788041
    22   6 C       54   1 H                                       1.0784625
    25   6 C       55   1 H                                       1.0942897
    25   6 C       56   1 H                                       1.0943487
    25   6 C       57   1 H                                       1.0890885
    28   6 C       58   1 H                                       1.0885303
    28   6 C       59   1 H                                       1.0948007
    28   6 C       60   1 H                                       1.0940715
    29   6 C       61   1 H                                       1.0783727
    30   6 C       62   1 H                                       1.0896705
    30   6 C       63   1 H                                       1.0916082
    30   6 C       64   1 H                                       1.0863221
    31   6 C       65   1 H                                       1.0962070
    32   6 C       66   1 H                                       1.0851601
    32   6 C       67   1 H                                       1.0874306
    32   6 C       68   1 H                                       1.0867036
    33   6 C       69   1 H                                       1.0857366
    33   6 C       70   1 H                                       1.0865014
    33   6 C       71   1 H                                       1.0868705

 * 4 distinct bonds (by element types)

   Z      Z             #   av. dist./Å        max./Å        min./Å
   1 H    6 C          37     1.0865470     1.0985897     1.0700039
   6 C    6 C          17     1.4259381     1.5384535     1.3705291
   6 C    7 N           4     1.3398678     1.4532029     1.2492033
   6 C    8 O           8     1.3772577     1.4097415     1.3374177


optimized geometry written to: xtbopt.xyz


           -------------------------------------------------
          | TOTAL ENERGY              -99.328085896114 Eh   |
          | GRADIENT NORM               0.002615203623 Eh/α |
          | HOMO-LUMO GAP               0.712243250332 eV   |
           -------------------------------------------------

------------------------------------------------------------------------
 * finished run on 2024/04/06 at 11:13:49.183     
------------------------------------------------------------------------
 total:
 * wall-time:     0 d,  0 h,  0 min,  6.839 sec
 *  cpu-time:     0 d,  0 h,  0 min,  6.816 sec
 * ratio c/w:     0.997 speedup
 SCF:
 * wall-time:     0 d,  0 h,  0 min,  0.190 sec
 *  cpu-time:     0 d,  0 h,  0 min,  0.190 sec
 * ratio c/w:     1.000 speedup
 ANC optimizer:
 * wall-time:     0 d,  0 h,  0 min,  6.604 sec
 *  cpu-time:     0 d,  0 h,  0 min,  6.600 sec
 * ratio c/w:     0.999 speedup

