      -----------------------------------------------------------      
     |                   =====================                   |     
     |                           x T B                           |     
     |                   =====================                   |     
     |                         S. Grimme                         |     
     |          Mulliken Center for Theoretical Chemistry        |     
     |                    University of Bonn                     |     
      -----------------------------------------------------------      

   * xtb version 6.6.1 (8d0f1dd) compiled by 'conda@1efc2f54142f' on 2023-08-01

   xtb is free software: you can redistribute it and/or modify it under
   the terms of the GNU Lesser General Public License as published by
   the Free Software Foundation, either version 3 of the License, or
   (at your option) any later version.
   
   xtb is distributed in the hope that it will be useful,
   but WITHOUT ANY WARRANTY; without even the implied warranty of
   MERCHANTABILITY or FITNESS FOR A PARTICULAR PURPOSE.  See the
   GNU Lesser General Public License for more details.
   
   Cite this work as:
   * C. Bannwarth, E. Caldeweyher, S. Ehlert, A. Hansen, P. Pracht,
     J. Seibert, S. Spicher, S. Grimme, WIREs Comput. Mol. Sci., 2020, 11,
     e01493. DOI: 10.1002/wcms.1493
   
   for GFN2-xTB:
   * C. Bannwarth, S. Ehlert and S. Grimme., J. Chem. Theory Comput., 2019,
     15, 1652-1671. DOI: 10.1021/acs.jctc.8b01176
   for GFN1-xTB:
   * S. Grimme, C. Bannwarth, P. Shushkov, J. Chem. Theory Comput., 2017,
     13, 1989-2009. DOI: 10.1021/acs.jctc.7b00118
   for GFN0-xTB:
   * P. Pracht, E. Caldeweyher, S. Ehlert, S. Grimme, ChemRxiv, 2019, preprint.
     DOI: 10.26434/chemrxiv.8326202.v1
   for GFN-FF:
   * S. Spicher and S. Grimme, Angew. Chem. Int. Ed., 2020, 59, 15665-15673.
     DOI: 10.1002/anie.202004239
   
   for ALPB and GBSA implicit solvation:
   * S. Ehlert, M. Stahn, S. Spicher, S. Grimme, J. Chem. Theory Comput.,
     2021, 17, 4250-4261. DOI: 10.1021/acs.jctc.1c00471
   
   for DFT-D4:
   * E. Caldeweyher, C. Bannwarth and S. Grimme, J. Chem. Phys., 2017,
     147, 034112. DOI: 10.1063/1.4993215
   * E. Caldeweyher, S. Ehlert, A. Hansen, H. Neugebauer, S. Spicher,
     C. Bannwarth and S. Grimme, J. Chem. Phys., 2019, 150, 154122.
     DOI: 10.1063/1.5090222
   * E. Caldeweyher, J.-M. Mewes, S. Ehlert and S. Grimme, Phys. Chem. Chem. Phys.
     2020, 22, 8499-8512. DOI: 10.1039/D0CP00502A
   
   for sTDA-xTB:
   * S. Grimme and C. Bannwarth, J. Chem. Phys., 2016, 145, 054103.
     DOI: 10.1063/1.4959605
   
   in the mass-spec context:
   * V. Asgeirsson, C. Bauer and S. Grimme, Chem. Sci., 2017, 8, 4879.
     DOI: 10.1039/c7sc00601b
   * J. Koopman and S. Grimme, ACS Omega 2019, 4, 12, 15120-15133.
     DOI: 10.1021/acsomega.9b02011
   
   for metadynamics refer to:
   * S. Grimme, J. Chem. Theory Comput., 2019, 155, 2847-2862
     DOI: 10.1021/acs.jctc.9b00143
   
   for SPH calculations refer to:
   * S. Spicher and S. Grimme, J. Chem. Theory Comput., 2021, 17, 1701-1714
     DOI: 10.1021/acs.jctc.0c01306
   
   with help from (in alphabetical order)
   P. Atkinson, C. Bannwarth, F. Bohle, G. Brandenburg, E. Caldeweyher
   M. Checinski, S. Dohm, S. Ehlert, S. Ehrlich, I. Gerasimov, C. Hölzer
   A. Katbashev, J. Koopman, C. Lavigne, S. Lehtola, F. März, M. Müller,
   F. Musil, H. Neugebauer, J. Pisarek, C. Plett, P. Pracht, F. Pultar,
   J. Seibert, P. Shushkov, S. Spicher, M. Stahn, M. Steiner, T. Strunk,
   J. Stückrath, T. Rose, and J. Unsleber
   
 * started run on 2024/04/06 at 11:13:49.203     

           -------------------------------------------------
          |                Calculation Setup                |
           -------------------------------------------------

          program call               : xtb xtbopt.xyz --opt crude --input .xc2 --gfn2
          hostname                   : n-62-30-23
          coordinate file            : xtbopt.xyz
          omp threads                :                     1

   ID    Z sym.   atoms
    1    7 N      1, 17
    2    6 C      2-6, 8, 9, 11-16, 18-23, 25, 26, 28-33
    3    8 O      7, 10, 24, 27
    4    1 H      34-72

molecular fragmentation (1/2 indicates fragments):
111111111111111111222222222221111111111111111111112222222222211111111111
# atoms in fragment 1/2:    50    22
 fragment masses (1/2) :      304.43      151.18
CMA distance (Bohr)    :  17.585
constraining FC (au)   :  0.0500
########################################################################
[WARNING] Please study the warnings concerning your input carefully
-1- readin_getIntValue: could not parse ''
########################################################################

           -------------------------------------------------
          |                 G F N 2 - x T B                 |
           -------------------------------------------------

        Reference                      10.1021/acs.jctc.8b01176
      * Hamiltonian:
        H0-scaling (s, p, d)           1.850000    2.230000    2.230000
        zeta-weighting                 0.500000
      * Dispersion:
        s8                             2.700000
        a1                             0.520000
        a2                             5.000000
        s9                             5.000000
      * Repulsion:
        kExp                           1.500000    1.000000
        rExp                           1.000000
      * Coulomb:
        alpha                          2.000000
        third order                    shell-resolved
        anisotropic                    true
        a3                             3.000000
        a5                             4.000000
        cn-shift                       1.200000
        cn-exp                         4.000000
        max-rad                        5.000000

q/qsh data taken from xtbrestart
CAMM data taken from xtbrestart

          ...................................................
          :                      SETUP                      :
          :.................................................:
          :  # basis functions                 171          :
          :  # atomic orbitals                 171          :
          :  # shells                          105          :
          :  # electrons                       180          :
          :  max. iterations                   250          :
          :  Hamiltonian                  GFN2-xTB          :
          :  restarted?                       true          :
          :  GBSA solvation                  false          :
          :  PC potential                    false          :
          :  electronic temp.         5000.0000000     K    :
          :  accuracy                    1.0000000          :
          :  -> integral cutoff          0.2500000E+02      :
          :  -> integral neglect         0.1000000E-07      :
          :  -> SCF convergence          0.1000000E-05 Eh   :
          :  -> wf. convergence          0.1000000E-03 e    :
          :  Broyden damping             0.4000000          :
          ...................................................

 iter      E             dE          RMSdq      gap      omega  full diag
   1   -100.7300790 -0.100730E+03  0.303E-05    0.71       0.0  T
   2   -100.7300790  0.403020E-10  0.324E-05    0.71     363.9  T
   3   -100.7300790 -0.748628E-10  0.139E-05    0.71     848.9  T

   *** convergence criteria satisfied after 3 iterations ***

         #    Occupation            Energy/Eh            Energy/eV
      -------------------------------------------------------------
         1        2.0000           -0.8165784             -22.2202
       ...           ...                  ...                  ...
        84        1.9919           -0.5081206             -13.8267
        85        1.9888           -0.5028342             -13.6828
        86        1.9758           -0.4906294             -13.3507
        87        1.9286           -0.4730905             -12.8734
        88        1.9180           -0.4708042             -12.8112
        89        1.8436           -0.4599586             -12.5161
        90        1.5554           -0.4407197             -11.9926 (HOMO)
        91        0.8023           -0.4145452             -11.2803 (LUMO)
        92        0.0139           -0.3423597              -9.3161
        93        0.0089           -0.3352918              -9.1238
        94        0.0028           -0.3168518              -8.6220
        95        0.0023           -0.3137995              -8.5389
       ...           ...                  ...                  ...
       171                          0.5883730              16.0104
      -------------------------------------------------------------
                  HL-Gap            0.0261744 Eh            0.7122 eV
             Fermi-level           -0.4208899 Eh          -11.4530 eV

 SCC (total)                   0 d,  0 h,  0 min,  0.119 sec
 SCC setup                      ...        0 min,  0.001 sec (  0.815%)
 Dispersion                     ...        0 min,  0.002 sec (  1.461%)
 classical contributions        ...        0 min,  0.000 sec (  0.365%)
 integral evaluation            ...        0 min,  0.018 sec ( 15.204%)
 iterations                     ...        0 min,  0.028 sec ( 23.598%)
 molecular gradient             ...        0 min,  0.069 sec ( 58.004%)
 printout                       ...        0 min,  0.001 sec (  0.541%)

         :::::::::::::::::::::::::::::::::::::::::::::::::::::
         ::                     SUMMARY                     ::
         :::::::::::::::::::::::::::::::::::::::::::::::::::::
         :: total energy             -99.328086455511 Eh    ::
         :: gradient norm              0.002675406709 Eh/a0 ::
         :: HOMO-LUMO gap              0.712242934507 eV    ::
         ::.................................................::
         :: SCC energy              -100.730079008374 Eh    ::
         :: -> isotropic ES            0.104952715609 Eh    ::
         :: -> anisotropic ES          0.004843905722 Eh    ::
         :: -> anisotropic XC          0.048276743090 Eh    ::
         :: -> dispersion             -0.073247507951 Eh    ::
         :: repulsion energy           1.400280920905 Eh    ::
         :: add. restraining           0.000000000000 Eh    ::
         :: total charge               1.000000000000 e     ::
         :::::::::::::::::::::::::::::::::::::::::::::::::::::

      ----------------------------------------------------------- 
     |                   =====================                   |
     |                        A N C O P T                        |
     |                   =====================                   |
     |               Approximate Normal Coordinate               |
     |                Rational Function Optimizer                |
      ----------------------------------------------------------- 

          ...................................................
          :                      SETUP                      :
          :.................................................:
          :   optimization level             crude          :
          :   max. optcycles                   200          :
          :   ANC micro-cycles                  20          :
          :   degrees of freedom               210          :
          :.................................................:
          :   RF solver                   davidson          :
          :   write xtbopt.log                true          :
          :   linear?                        false          :
          :   energy convergence         0.5000000E-03 Eh   :
          :   grad. convergence          0.1000000E-01 Eh/α :
          :   maxmium RF displ.          1.0000000          :
          :   Hlow (freq-cutoff)         0.1000000E-01      :
          :   Hmax (freq-cutoff)         5.0000000          :
          :   S6 in model hess.         20.0000000          :
          ...................................................

generating ANC from model Hessian ...
Using Lindh-Hessian (1995)
 Shifting diagonal of input Hessian by    1.0054497295213759E-002
 Lowest  eigenvalues of input Hessian
    0.010000    0.010026    0.000000    0.000000    0.000000    0.000000
    0.000000    0.000000    0.010093    0.010104    0.010179    0.010235
    0.010325    0.010466    0.010573    0.010934    0.011060    0.011193
 Highest eigenvalues
    2.019362    2.041266    2.108338    2.180164    2.181022    2.196985


........................................................................
.............................. CYCLE    1 ..............................
........................................................................

 iter      E             dE          RMSdq      gap      omega  full diag
   1   -100.7300790 -0.100730E+03  0.114E-05    0.71       0.0  T
   2   -100.7300790  0.320313E-10  0.200E-05    0.71     590.3  T
   3   -100.7300790 -0.426468E-10  0.408E-06    0.71    2888.3  T
     SCC iter.                  ...        0 min,  0.026 sec
     gradient                   ...        0 min,  0.068 sec
 * total energy  :   -99.3280865 Eh     change       -0.5812240E-11 Eh
   gradient norm :     0.0026754 Eh/α   predicted     0.0000000E+00 (-100.00%)
   displ. norm   :     0.0578099 α      lambda       -0.7178987E-05
   maximum displ.:     0.0277021 α      in ANC's #8, #12, #10, ...

   *** GEOMETRY OPTIMIZATION CONVERGED AFTER 1 ITERATIONS ***

------------------------------------------------------------------------
 total energy gain   :        -0.0000000 Eh       -0.0000 kcal/mol
 total RMSD          :         0.0000000 a0        0.0000 Å
 total power (kW/mol):        -0.0000000 (step)   -0.0000 (real)
------------------------------------------------------------------------

 ANCopt (total)                0 d,  0 h,  0 min,  0.176 sec
 optimizer setup                ...        0 min,  0.000 sec (  0.120%)
 model hessian                  ...        0 min,  0.050 sec ( 28.460%)
 ANC generation                 ...        0 min,  0.006 sec (  3.637%)
 coordinate transformation      ...        0 min,  0.000 sec (  0.028%)
 single point calculation       ...        0 min,  0.116 sec ( 66.230%)
 optimization log               ...        0 min,  0.002 sec (  1.051%)
 hessian update                 ...        0 min,  0.000 sec (  0.001%)
 rational function              ...        0 min,  0.000 sec (  0.091%)

================
 final structure:
================
72
 xtb: 6.6.1 (8d0f1dd)
N           -2.32665803333492        3.05361963147565        2.45625464152146
C           -2.12131217370640        2.30722332813750        1.47582909697874
C           -3.12933554511864        2.03064795951886        0.39378690700189
C           -3.51991315711713        0.56114333335544        0.43032813956740
C           -4.31479787474936        0.03313566623888       -0.58889065615841
C           -4.71754394615374       -1.29199360981599       -0.58365950966834
O           -5.49803035895629       -1.87057977802703       -1.51845388697998
C           -6.07313551074258       -1.07047026804912       -2.52615360200122
C           -4.29838929454085       -2.14608081615362        0.47310741522031
O           -4.72492965574886       -3.42161617875050        0.39177906164388
C           -4.42803883149675       -4.31412911479696        1.44053646768428
C           -3.51004672340356       -1.61545547405117        1.48263377048374
C           -3.13176538841977       -0.27924670806437        1.46348198114022
C           -2.42944727906532        2.36104014718570       -0.95290987304518
C           -1.38518334942600        1.33015499365117       -1.41510827678176
C           -0.11351317307935        1.41434615297991       -0.65294851967945
N            0.61936263308139        0.38432979250274       -0.24150482407779
C            1.77070564182179        0.52109625488653        0.40531503461908
C            3.38448050145096       -1.15192046497180       -2.31902959625842
C            4.49542056085709       -0.74816279982249       -1.61895634855363
C            5.02914021421605        0.56272347360602       -1.77262533202645
C            6.14777373446922        0.96267631212051       -1.08921735222749
C            6.80206375068918        0.09382999967413       -0.20954277727032
O            7.89864607700910        0.38100095462358        0.50019375107301
C            8.49498558461101        1.65316425402223        0.38464974724145
C            6.28366020280673       -1.23014751739760       -0.02684946016246
O            6.98564746058284       -1.98530106588868        0.84328753116974
C            6.60859685183733       -3.32668802895664        1.04531827811318
C            5.16413703011968       -1.62511114900773       -0.71321302058828
C            0.13915005317540       -0.96457321179262       -0.48980892799609
C           -4.42565867463572        2.88362167346922        0.53250543602803
C           -5.18676450081432        2.54915610242890        1.81288858874925
C           -4.16667378091364        4.38650942621573        0.46601782963147
H           -4.63266636037395        0.67386852301866       -1.39438544685910
H           -6.66621923070183       -0.25556924429533       -2.09941330730016
H           -6.72605394625636       -1.73422402241721       -3.08990925039288
H           -5.31168508255988       -0.65928839036650       -3.19721435507990
H           -4.83827304574023       -3.96387521030041        2.39212619901140
H           -4.90317424276535       -5.25402157156178        1.16667545148174
H           -3.34946262407857       -4.47047564460649        1.54269485093267
H           -3.19374000660775       -2.23404602286555        2.30706354750524
H           -2.54577510119810        0.10089534819186        2.28603164096210
H           -3.19373390182904        2.43904236106086       -1.72603997648998
H           -1.94895265174429        3.33610668037458       -0.86679899944297
H           -1.82109428710432        0.33329276899700       -1.37100917889518
H           -1.17271102872741        1.54854204590691       -2.47059950303428
H           -1.15858470780775        1.80334940641523        1.28303456677478
H            0.31518219433205        2.39415039655556       -0.50660609345268
H            2.32912219568968       -0.33928461717457        0.70998494514534
H            2.15251861995432        1.50278753156964        0.60667373777042
H            2.89558843849719       -0.49111542615961       -3.01179976147935
H            2.99194072936440       -2.14865571159606       -2.22437086249824
H            4.54043548772059        1.24123254442023       -2.45424926078384
H            6.53133618042897        1.95924793110382       -1.24023371450127
H            7.80855954623235        2.44509699417605        0.69950143209598
H            8.83155260825891        1.84524574375471       -0.63878868660104
H            9.35625505470391        1.63443581209267        1.05096622612683
H            7.33765431458650       -3.73304326018417        1.74406618129860
H            5.60782782941242       -3.40078657964825        1.48299295444881
H            6.64316837205950       -3.89628493860770        0.11185359262584
H            4.76825819704449       -2.62118177956095       -0.59484657819709
H            0.05081242144074       -1.13820884513209       -1.56192304861846
H           -0.83610714134820       -1.11302618331949       -0.02242973005800
H            0.84049814309375       -1.68308231901826       -0.07513904819881
H           -5.06506849944484        2.61477798414654       -0.31634539230849
H           -4.61381968004884        2.86308071076410        2.67935133856905
H           -5.38350556731790        1.48227053387991        1.88740825088741
H           -6.13849025325834        3.07367162308197        1.81798263690289
H           -3.50628410882693        4.69105743654008        1.27221866027805
H           -3.73216739438303        4.68217177636475       -0.48491489625894
H           -5.10910365159084        4.91577456924964        0.57999894848500
H           -1.57015526739429        3.19226729711073        3.11861505729437

 Bond Distances (Angstroems)
 ---------------------------
N1-C2=1.2492         N1-H72=1.0150        C2-N1=1.2492         C2-C3=1.5045         C2-H47=1.1036        C3-C2=1.5045         
C3-C4=1.5210         C3-C14=1.5533        C3-C31=1.5580        C4-C3=1.5210         C4-C5=1.3962         C4-C13=1.3872        
C5-C4=1.3962         C5-C6=1.3850         C5-H34=1.0772        C6-C5=1.3850         C6-O7=1.3482         C6-C9=1.4219         
O7-C6=1.3482         O7-C8=1.4094         C8-O7=1.4094         C8-H35=1.0945        C8-H36=1.0884        C8-H37=1.0951        
C9-C6=1.4219         C9-O10=1.3474        C9-C12=1.3864        O10-C9=1.3474        O10-C11=1.4088       C11-O10=1.4088       
C11-H38=1.0938       C11-H39=1.0882       C11-H40=1.0946       C12-C9=1.3864        C12-C13=1.3889       C12-H41=1.0781       
C13-C4=1.3872        C13-C12=1.3889       C13-H42=1.0791       C14-C3=1.5533        C14-C15=1.5385       C14-H43=1.0899       
C14-H44=1.0904       C15-C14=1.5385       C15-C16=1.4850       C15-H45=1.0889       C15-H46=1.0986       C16-C15=1.4850       
C16-N17=1.3294       C16-H48=1.0795       N17-C16=1.3294       N17-C18=1.3277       N17-C30=1.4532       C18-N17=1.3277       
C18-H49=1.0700       C18-H50=1.0724       C19-C20=1.3738       C19-H51=1.0750       C19-H52=1.0754       C20-C19=1.3738       
C20-C21=1.4237       C20-C29=1.4271       C21-C20=1.4237       C21-C22=1.3705       C21-H53=1.0788       C22-C21=1.3705       
C22-C23=1.3989       C22-H54=1.0785       C23-C22=1.3989       C23-O24=1.3374       C23-C26=1.4335       O24-C23=1.3374       
O24-C25=1.4097       C25-O24=1.4097       C25-H55=1.0943       C25-H56=1.0943       C25-H57=1.0891       C26-C23=1.4335       
C26-O27=1.3491       C26-C29=1.3713       O27-C26=1.3491       O27-C28=1.4079       C28-O27=1.4079       C28-H58=1.0885       
C28-H59=1.0948       C28-H60=1.0941       C29-C20=1.4271       C29-C26=1.3713       C29-H61=1.0784       C30-N17=1.4532       
C30-H62=1.0897       C30-H63=1.0916       C30-H64=1.0863       C31-C3=1.5580        C31-C32=1.5266       C31-C33=1.5265       
C31-H65=1.0962       C32-C31=1.5266       C32-H66=1.0852       C32-H67=1.0874       C32-H68=1.0867       C33-C31=1.5265       
C33-H69=1.0857       C33-H70=1.0865       C33-H71=1.0869       H34-C5=1.0772        H35-C8=1.0945        H36-C8=1.0884        
H37-C8=1.0951        H38-C11=1.0938       H39-C11=1.0882       H40-C11=1.0946       H41-C12=1.0781       H42-C13=1.0791       
H43-C14=1.0899       H44-C14=1.0904       H45-C15=1.0889       H46-C15=1.0986       H47-C2=1.1036        H48-C16=1.0795       
H49-C18=1.0700       H50-C18=1.0724       H51-C19=1.0750       H52-C19=1.0754       H53-C21=1.0788       H54-C22=1.0785       
H55-C25=1.0943       H56-C25=1.0943       H57-C25=1.0891       H58-C28=1.0885       H59-C28=1.0948       H60-C28=1.0941       
H61-C29=1.0784       H62-C30=1.0897       H63-C30=1.0916       H64-C30=1.0863       H65-C31=1.0962       H66-C32=1.0852       
H67-C32=1.0874       H68-C32=1.0867       H69-C33=1.0857       H70-C33=1.0865       H71-C33=1.0869       H72-N1=1.0150        
 C  H  Rav=1.0870 sigma=0.0078  Rmin=1.0700  Rmax=1.1036    38
 C  C  Rav=1.4466 sigma=0.0665  Rmin=1.3705  Rmax=1.5580    21
 N  H  Rav=1.0150 sigma=0.0000  Rmin=1.0150  Rmax=1.0150     1
 N  C  Rav=1.3399 sigma=0.0730  Rmin=1.2492  Rmax=1.4532     4
 O  C  Rav=1.3773 sigma=0.0319  Rmin=1.3374  Rmax=1.4097     8

 selected bond angles (degree)
 --------------------
H72-N1-C2=118.12               C3-C2-N1=124.35                H47-C2-N1=123.59               H47-C2-C3=112.02               
C4-C3-C2=109.41                C14-C3-C2=106.41               C14-C3-C4=110.00               C31-C3-C2=113.13               
C31-C3-C4=108.25               C31-C3-C14=109.61              C5-C4-C3=119.61                C13-C4-C3=122.10               
C13-C4-C5=118.29               C6-C5-C4=121.64                H34-C5-C4=119.27               H34-C5-C6=119.09               
O7-C6-C5=125.19                C9-C6-C5=119.46                C9-C6-O7=115.35                C8-O7-C6=119.23                
H35-C8-O7=111.41               H36-C8-O7=105.60               H36-C8-H35=109.33              H37-C8-O7=111.57               
H37-C8-H35=109.64              H37-C8-H36=109.19              O10-C9-C6=115.50               C12-C9-C6=118.61               
C12-C9-O10=125.89              C11-O10-C9=119.22              

 selected dihedral angles (degree)
 ---------------------------------
C3-C2-N1-H72=181.56           H47-C2-N1-H72=359.04          C4-C3-C2-N1=245.03            C4-C3-C2-H47= 67.29           
C14-C3-C2-N1=126.22           C14-C3-C2-H47=308.48          C31-C3-C2-N1=  5.80           C31-C3-C2-H47=188.06          
C5-C4-C3-C2=188.13            C5-C4-C3-C14=304.68           C5-C4-C3-C31= 64.43           C13-C4-C3-C2=  9.34           
C13-C4-C3-C14=125.90          C13-C4-C3-C31=245.64          C6-C5-C4-C3=181.32            C6-C5-C4-C13=  0.15           
H34-C5-C4-C3=  0.62           H34-C5-C4-C13=179.46          O7-C6-C5-C4=179.04            O7-C6-C5-H34=359.73           
C9-C6-C5-C4=359.07            C9-C6-C5-H34=179.76           C8-O7-C6-C5=353.54            C8-O7-C6-C9=173.50            
H35-C8-O7-C6=304.01           H36-C8-O7-C6=185.42           H37-C8-O7-C6= 66.91           O10-C9-C6-C5=180.64           
O10-C9-C6-O7=  0.68           C12-C9-C6-C5=  0.95           C12-C9-C6-O7=180.98           C11-O10-C9-C6=184.05          
C11-O10-C9-C12=  3.72         

 CMA Distance (Angstroems)
 ---------------------------
R(CMA):  9.3058
           -------------------------------------------------
          |                Final Singlepoint                |
           -------------------------------------------------

          ...................................................
          :                      SETUP                      :
          :.................................................:
          :  # basis functions                 171          :
          :  # atomic orbitals                 171          :
          :  # shells                          105          :
          :  # electrons                       180          :
          :  max. iterations                   250          :
          :  Hamiltonian                  GFN2-xTB          :
          :  restarted?                      false          :
          :  GBSA solvation                  false          :
          :  PC potential                    false          :
          :  electronic temp.         5000.0000000     K    :
          :  accuracy                    1.0000000          :
          :  -> integral cutoff          0.2500000E+02      :
          :  -> integral neglect         0.1000000E-07      :
          :  -> SCF convergence          0.1000000E-05 Eh   :
          :  -> wf. convergence          0.1000000E-03 e    :
          :  Broyden damping             0.4000000          :
          ...................................................

 iter      E             dE          RMSdq      gap      omega  full diag
   1   -100.7300790 -0.100730E+03  0.258E-06    0.71       0.0  T
   2   -100.7300790  0.213163E-12  0.191E-06    0.71    6158.9  T
   3   -100.7300790 -0.710543E-13  0.146E-06    0.71    8056.2  T

   *** convergence criteria satisfied after 3 iterations ***

         #    Occupation            Energy/Eh            Energy/eV
      -------------------------------------------------------------
         1        2.0000           -0.8165784             -22.2202
       ...           ...                  ...                  ...
        84        1.9919           -0.5081205             -13.8267
        85        1.9888           -0.5028342             -13.6828
        86        1.9758           -0.4906294             -13.3507
        87        1.9286           -0.4730905             -12.8734
        88        1.9180           -0.4708041             -12.8112
        89        1.8436           -0.4599585             -12.5161
        90        1.5554           -0.4407197             -11.9926 (HOMO)
        91        0.8023           -0.4145453             -11.2804 (LUMO)
        92        0.0139           -0.3423597              -9.3161
        93        0.0089           -0.3352917              -9.1238
        94        0.0028           -0.3168517              -8.6220
        95        0.0023           -0.3137995              -8.5389
       ...           ...                  ...                  ...
       171                          0.5883730              16.0104
      -------------------------------------------------------------
                  HL-Gap            0.0261744 Eh            0.7122 eV
             Fermi-level           -0.4208900 Eh          -11.4530 eV

 SCC (total)                   0 d,  0 h,  0 min,  0.116 sec
 SCC setup                      ...        0 min,  0.001 sec (  0.753%)
 Dispersion                     ...        0 min,  0.002 sec (  1.383%)
 classical contributions        ...        0 min,  0.000 sec (  0.369%)
 integral evaluation            ...        0 min,  0.018 sec ( 15.304%)
 iterations                     ...        0 min,  0.026 sec ( 22.710%)
 molecular gradient             ...        0 min,  0.069 sec ( 58.989%)
 printout                       ...        0 min,  0.001 sec (  0.478%)

         :::::::::::::::::::::::::::::::::::::::::::::::::::::
         ::                     SUMMARY                     ::
         :::::::::::::::::::::::::::::::::::::::::::::::::::::
         :: total energy             -99.328086455517 Eh    ::
         :: gradient norm              0.002675367358 Eh/a0 ::
         :: HOMO-LUMO gap              0.712240961541 eV    ::
         ::.................................................::
         :: SCC energy              -100.730079008381 Eh    ::
         :: -> isotropic ES            0.104952766575 Eh    ::
         :: -> anisotropic ES          0.004843882889 Eh    ::
         :: -> anisotropic XC          0.048276728774 Eh    ::
         :: -> dispersion             -0.073247505963 Eh    ::
         :: repulsion energy           1.400280920905 Eh    ::
         :: add. restraining           0.000000000000 Eh    ::
         :: total charge               1.000000000000 e     ::
         :::::::::::::::::::::::::::::::::::::::::::::::::::::

           -------------------------------------------------
          |                Property Printout                |
           -------------------------------------------------

    * Orbital Energies and Occupations

         #    Occupation            Energy/Eh            Energy/eV
      -------------------------------------------------------------
         1        2.0000           -0.8165784             -22.2202
       ...           ...                  ...                  ...
        78        1.9977           -0.5276963             -14.3593
        79        1.9976           -0.5271967             -14.3458
        80        1.9966           -0.5220047             -14.2045
        81        1.9964           -0.5208582             -14.1733
        82        1.9943           -0.5137714             -13.9804
        83        1.9935           -0.5116326             -13.9222
        84        1.9919           -0.5081205             -13.8267
        85        1.9888           -0.5028342             -13.6828
        86        1.9758           -0.4906294             -13.3507
        87        1.9286           -0.4730905             -12.8734
        88        1.9180           -0.4708041             -12.8112
        89        1.8436           -0.4599585             -12.5161
        90        1.5554           -0.4407197             -11.9926 (HOMO)
        91        0.8023           -0.4145453             -11.2804 (LUMO)
        92        0.0139           -0.3423597              -9.3161
        93        0.0089           -0.3352917              -9.1238
        94        0.0028           -0.3168517              -8.6220
        95        0.0023           -0.3137995              -8.5389
        96        0.0020           -0.3115303              -8.4772
        97        0.0004           -0.2877798              -7.8309
        98        0.0000           -0.1913410              -5.2067
        99        0.0000           -0.1806134              -4.9147
       100                         -0.1035496              -2.8177
       101                         -0.0666365              -1.8133
       ...                                ...                  ...
       171                          0.5883730              16.0104
      -------------------------------------------------------------
                  HL-Gap            0.0261744 Eh            0.7122 eV
             Fermi-level           -0.4208900 Eh          -11.4530 eV

     #   Z          covCN         q      C6AA      α(0)
     1   7 N        1.774    -0.264    27.680     7.791
     2   6 C        2.826     0.102    25.740     8.313
     3   6 C        3.907     0.007    20.404     6.421
     4   6 C        2.974     0.005    27.901     8.664
     5   6 C        2.921    -0.078    29.956     8.975
     6   6 C        2.862     0.130    25.143     8.219
     7   8 O        1.706    -0.228    17.780     5.693
     8   6 C        3.644     0.027    20.462     6.502
     9   6 C        2.863     0.129    25.165     8.223
    10   8 O        1.706    -0.226    17.752     5.689
    11   6 C        3.645     0.026    20.467     6.502
    12   6 C        2.913    -0.073    29.832     8.956
    13   6 C        2.921    -0.052    29.283     8.874
    14   6 C        3.811    -0.065    21.738     6.636
    15   6 C        3.801    -0.066    21.770     6.643
    16   6 C        2.869    -0.041    29.004     8.828
    17   7 N        2.729     0.101    19.507     6.560
    18   6 C        2.820    -0.106    30.662     9.073
    19   6 C        2.852    -0.098    30.450     9.044
    20   6 C        2.959     0.022    27.513     8.603
    21   6 C        2.921    -0.039    28.971     8.827
    22   6 C        2.906    -0.063    29.567     8.916
    23   6 C        2.864     0.140    24.943     8.186
    24   8 O        1.706    -0.204    17.389     5.630
    25   6 C        3.645     0.022    20.541     6.514
    26   6 C        2.856     0.135    25.045     8.203
    27   8 O        1.706    -0.230    17.819     5.699
    28   6 C        3.645     0.027    20.457     6.501
    29   6 C        2.917    -0.080    29.997     8.981
    30   6 C        3.719    -0.077    22.087     6.713
    31   6 C        3.853    -0.008    20.677     6.467
    32   6 C        3.756    -0.118    22.818     6.811
    33   6 C        3.755    -0.119    22.830     6.813
    34   1 H        0.926     0.054     2.268     2.355
    35   1 H        0.924     0.055     2.261     2.351
    36   1 H        0.925     0.082     1.959     2.189
    37   1 H        0.924     0.050     2.326     2.385
    38   1 H        0.924     0.056     2.243     2.342
    39   1 H        0.925     0.082     1.960     2.189
    40   1 H        0.924     0.049     2.327     2.386
    41   1 H        0.926     0.053     2.279     2.361
    42   1 H        0.926     0.041     2.433     2.439
    43   1 H        0.925     0.056     2.243     2.342
    44   1 H        0.924     0.053     2.277     2.360
    45   1 H        0.925     0.057     2.232     2.336
    46   1 H        0.923     0.066     2.130     2.282
    47   1 H        0.923     0.016     2.802     2.618
    48   1 H        0.926     0.058     2.220     2.330
    49   1 H        0.927     0.060     2.195     2.317
    50   1 H        0.926     0.060     2.203     2.321
    51   1 H        0.926     0.047     2.360     2.402
    52   1 H        0.926     0.047     2.352     2.398
    53   1 H        0.926     0.055     2.259     2.350
    54   1 H        0.926     0.059     2.213     2.326
    55   1 H        0.924     0.059     2.216     2.328
    56   1 H        0.924     0.062     2.176     2.307
    57   1 H        0.925     0.086     1.915     2.164
    58   1 H        0.925     0.082     1.961     2.190
    59   1 H        0.924     0.049     2.337     2.391
    60   1 H        0.924     0.055     2.261     2.352
    61   1 H        0.926     0.054     2.270     2.356
    62   1 H        0.925     0.084     1.939     2.178
    63   1 H        0.924     0.082     1.957     2.188
    64   1 H        0.925     0.085     1.928     2.172
    65   1 H        0.924     0.038     2.477     2.461
    66   1 H        0.925     0.070     2.085     2.258
    67   1 H        0.925     0.035     2.516     2.480
    68   1 H        0.925     0.051     2.307     2.375
    69   1 H        0.925     0.062     2.173     2.305
    70   1 H        0.925     0.037     2.494     2.470
    71   1 H        0.925     0.055     2.263     2.353
    72   1 H        0.860     0.159     1.340     1.813

 Mol. C6AA /au·bohr⁶  :      48143.175737
 Mol. C8AA /au·bohr⁸  :    1099978.607478
 Mol. α(0) /au        :        338.993440


Wiberg/Mayer (AO) data.
largest (>0.10) Wiberg bond orders for each atom

 ---------------------------------------------------------------------------
     #   Z sym  total        # sym  WBO       # sym  WBO       # sym  WBO
 ---------------------------------------------------------------------------
     1   7 N    3.021 --     2 C    1.957    72 H    0.940
     2   6 C    3.932 --     1 N    1.957     3 C    0.993    47 H    0.909
     3   6 C    3.970 --     2 C    0.993     4 C    0.971    14 C    0.954
                            31 C    0.943
     4   6 C    3.943 --    13 C    1.409     5 C    1.370     3 C    0.971
     5   6 C    3.959 --     6 C    1.399     4 C    1.370    34 H    0.957
     6   6 C    3.899 --     5 C    1.399     9 C    1.219     7 O    1.102
     7   8 O    2.251 --     6 C    1.102     8 C    0.977
     8   6 C    3.930 --     7 O    0.977    36 H    0.976    35 H    0.973
                            37 H    0.973
     9   6 C    3.894 --    12 C    1.388     6 C    1.219    10 O    1.104
    10   8 O    2.250 --     9 C    1.104    11 C    0.977
    11   6 C    3.930 --    10 O    0.977    39 H    0.977    40 H    0.973
                            38 H    0.973
    12   6 C    3.959 --    13 C    1.408     9 C    1.388    41 H    0.963
    13   6 C    3.948 --     4 C    1.409    12 C    1.408    42 H    0.962
    14   6 C    3.976 --    15 C    0.988    44 H    0.972    43 H    0.969
                             3 C    0.954
    15   6 C    3.986 --    16 C    1.051    14 C    0.988    45 H    0.961
                            46 H    0.937
    16   6 C    3.669 --    17 N    1.348    15 C    1.051    48 H    0.960
                            18 C    0.213
    17   7 N    3.745 --    18 C    1.366    16 C    1.348    30 C    0.985
    18   6 C    3.594 --    17 N    1.366    49 H    0.975    50 H    0.974
                            16 C    0.213
    19   6 C    3.540 --    20 C    1.498    51 H    0.979    52 H    0.979
    20   6 C    3.979 --    19 C    1.498    21 C    1.207    29 C    1.200
    21   6 C    3.806 --    22 C    1.522    20 C    1.207    53 H    0.967
    22   6 C    3.969 --    21 C    1.522    23 C    1.317    54 H    0.961
    23   6 C    3.767 --    22 C    1.317    26 C    1.172    24 O    1.142
    24   8 O    2.257 --    23 C    1.142    25 C    0.972
    25   6 C    3.924 --    57 H    0.976    24 O    0.972    55 H    0.972
                            56 H    0.971
    26   6 C    3.914 --    29 C    1.482    23 C    1.172    27 O    1.099
    27   8 O    2.255 --    26 C    1.099    28 C    0.978
    28   6 C    3.931 --    27 O    0.978    58 H    0.977    59 H    0.973
                            60 H    0.973
    29   6 C    3.853 --    26 C    1.482    20 C    1.200    61 H    0.962
    30   6 C    3.955 --    17 N    0.985    64 H    0.977    62 H    0.970
                            63 H    0.966
    31   6 C    3.969 --    33 C    1.008    32 C    1.008    65 H    0.958
                             3 C    0.943
    32   6 C    3.975 --    31 C    1.008    67 H    0.981    68 H    0.981
                            66 H    0.972
    33   6 C    3.979 --    31 C    1.008    70 H    0.982    71 H    0.979
                            69 H    0.975
    34   1 H    0.996 --     5 C    0.957
    35   1 H    0.993 --     8 C    0.973
    36   1 H    0.992 --     8 C    0.976
    37   1 H    0.993 --     8 C    0.973
    38   1 H    0.992 --    11 C    0.973
    39   1 H    0.993 --    11 C    0.977
    40   1 H    0.992 --    11 C    0.973
    41   1 H    0.995 --    12 C    0.963
    42   1 H    0.997 --    13 C    0.962
    43   1 H    0.995 --    14 C    0.969
    44   1 H    0.996 --    14 C    0.972
    45   1 H    0.995 --    15 C    0.961
    46   1 H    0.974 --    15 C    0.937
    47   1 H    0.978 --     2 C    0.909
    48   1 H    0.996 --    16 C    0.960
    49   1 H    0.996 --    18 C    0.975
    50   1 H    0.996 --    18 C    0.974
    51   1 H    0.997 --    19 C    0.979
    52   1 H    0.997 --    19 C    0.979
    53   1 H    0.996 --    21 C    0.967
    54   1 H    0.995 --    22 C    0.961
    55   1 H    0.989 --    25 C    0.972
    56   1 H    0.989 --    25 C    0.971
    57   1 H    0.992 --    25 C    0.976
    58   1 H    0.993 --    28 C    0.977
    59   1 H    0.993 --    28 C    0.973
    60   1 H    0.993 --    28 C    0.973
    61   1 H    0.996 --    29 C    0.962
    62   1 H    0.992 --    30 C    0.970
    63   1 H    0.993 --    30 C    0.966
    64   1 H    0.993 --    30 C    0.977
    65   1 H    0.990 --    31 C    0.958
    66   1 H    0.989 --    32 C    0.972
    67   1 H    0.996 --    32 C    0.981
    68   1 H    0.993 --    32 C    0.981
    69   1 H    0.992 --    33 C    0.975
    70   1 H    0.996 --    33 C    0.982
    71   1 H    0.993 --    33 C    0.979
    72   1 H    0.967 --     1 N    0.940
 ---------------------------------------------------------------------------

Topologies differ in total number of bonds
Writing topology from bond orders to xtbtopo.mol

molecular dipole:
                 x           y           z       tot (Debye)
 q only:        1.042       0.004      -0.435
   full:        1.441      -0.080      -0.563       3.937
molecular quadrupole (traceless):
                xx          xy          yy          xz          yz          zz
 q only:       58.950       2.878     -17.540       5.173      -8.948     -41.411
  q+dip:       54.971       7.350     -17.304       7.484     -11.916     -37.667
   full:       54.911       6.555     -17.743       4.116     -12.016     -37.167

           -------------------------------------------------
          |                Geometry Summary                 |
           -------------------------------------------------

      molecular mass/u    :      455.6105846
   center of mass at/Å    :        0.0099411      -0.0082906      -0.0087498
  moments of inertia/u·Å² :        0.2664981E+04   0.1106112E+05   0.1233440E+05
rotational constants/cm⁻¹ :        0.6325610E-02   0.1524044E-02   0.1366717E-02

 * 66 selected distances

     #   Z          #   Z                                           value/Å
     1   7 N        2   6 C                                       1.2492033
     4   6 C        5   6 C                                       1.3962239
     5   6 C        6   6 C                                       1.3849909
     6   6 C        7   8 O                                       1.3482440
     7   8 O        8   6 C                                       1.4093900
     6   6 C        9   6 C                                       1.4219396
     9   6 C       10   8 O                                       1.3474204
    10   8 O       11   6 C                                       1.4087640
     9   6 C       12   6 C                                       1.3864311
     4   6 C       13   6 C                                       1.3871991
    12   6 C       13   6 C                                       1.3888548
    14   6 C       15   6 C                                       1.5384535 (max)
    15   6 C       16   6 C                                       1.4849650
    16   6 C       17   7 N                                       1.3294085
    17   7 N       18   6 C                                       1.3276566
    19   6 C       20   6 C                                       1.3737944
    20   6 C       21   6 C                                       1.4236903
    21   6 C       22   6 C                                       1.3705291
    22   6 C       23   6 C                                       1.3988628
    23   6 C       24   8 O                                       1.3374177
    24   8 O       25   6 C                                       1.4097415
    23   6 C       26   6 C                                       1.4335397
    26   6 C       27   8 O                                       1.3491411
    27   8 O       28   6 C                                       1.4079428
    20   6 C       29   6 C                                       1.4270920
    26   6 C       29   6 C                                       1.3712854
    17   7 N       30   6 C                                       1.4532029
    31   6 C       32   6 C                                       1.5266076
    31   6 C       33   6 C                                       1.5264881
     5   6 C       34   1 H                                       1.0772191
     8   6 C       35   1 H                                       1.0944951
     8   6 C       36   1 H                                       1.0884357
     8   6 C       37   1 H                                       1.0950799
    11   6 C       38   1 H                                       1.0938433
    11   6 C       39   1 H                                       1.0881873
    11   6 C       40   1 H                                       1.0946266
    12   6 C       41   1 H                                       1.0781414
    13   6 C       42   1 H                                       1.0791111
    14   6 C       43   1 H                                       1.0899306
    14   6 C       44   1 H                                       1.0904335
    15   6 C       45   1 H                                       1.0888974
    15   6 C       46   1 H                                       1.0985897
    16   6 C       48   1 H                                       1.0794500
    18   6 C       49   1 H                                       1.0700039 (min)
    18   6 C       50   1 H                                       1.0724013
    19   6 C       51   1 H                                       1.0749928
    19   6 C       52   1 H                                       1.0754204
    21   6 C       53   1 H                                       1.0788041
    22   6 C       54   1 H                                       1.0784625
    25   6 C       55   1 H                                       1.0942897
    25   6 C       56   1 H                                       1.0943487
    25   6 C       57   1 H                                       1.0890885
    28   6 C       58   1 H                                       1.0885303
    28   6 C       59   1 H                                       1.0948007
    28   6 C       60   1 H                                       1.0940715
    29   6 C       61   1 H                                       1.0783727
    30   6 C       62   1 H                                       1.0896705
    30   6 C       63   1 H                                       1.0916082
    30   6 C       64   1 H                                       1.0863221
    31   6 C       65   1 H                                       1.0962070
    32   6 C       66   1 H                                       1.0851601
    32   6 C       67   1 H                                       1.0874306
    32   6 C       68   1 H                                       1.0867036
    33   6 C       69   1 H                                       1.0857366
    33   6 C       70   1 H                                       1.0865014
    33   6 C       71   1 H                                       1.0868705

 * 4 distinct bonds (by element types)

   Z      Z             #   av. dist./Å        max./Å        min./Å
   1 H    6 C          37     1.0865470     1.0985897     1.0700039
   6 C    6 C          17     1.4259381     1.5384535     1.3705291
   6 C    7 N           4     1.3398678     1.4532029     1.2492033
   6 C    8 O           8     1.3772577     1.4097415     1.3374177


optimized geometry written to: xtbopt.xyz


           -------------------------------------------------
          | TOTAL ENERGY              -99.328086455517 Eh   |
          | GRADIENT NORM               0.002675367358 Eh/α |
          | HOMO-LUMO GAP               0.712240961541 eV   |
           -------------------------------------------------

------------------------------------------------------------------------
 * finished run on 2024/04/06 at 11:13:49.668     
------------------------------------------------------------------------
 total:
 * wall-time:     0 d,  0 h,  0 min,  0.465 sec
 *  cpu-time:     0 d,  0 h,  0 min,  0.435 sec
 * ratio c/w:     0.935 speedup
 SCF:
 * wall-time:     0 d,  0 h,  0 min,  0.119 sec
 *  cpu-time:     0 d,  0 h,  0 min,  0.119 sec
 * ratio c/w:     0.999 speedup
 ANC optimizer:
 * wall-time:     0 d,  0 h,  0 min,  0.299 sec
 *  cpu-time:     0 d,  0 h,  0 min,  0.292 sec
 * ratio c/w:     0.977 speedup

