      -----------------------------------------------------------      
     |                   =====================                   |     
     |                           x T B                           |     
     |                   =====================                   |     
     |                         S. Grimme                         |     
     |          Mulliken Center for Theoretical Chemistry        |     
     |                    University of Bonn                     |     
      -----------------------------------------------------------      

   * xtb version 6.6.1 (8d0f1dd) compiled by 'conda@1efc2f54142f' on 2023-08-01

   xtb is free software: you can redistribute it and/or modify it under
   the terms of the GNU Lesser General Public License as published by
   the Free Software Foundation, either version 3 of the License, or
   (at your option) any later version.
   
   xtb is distributed in the hope that it will be useful,
   but WITHOUT ANY WARRANTY; without even the implied warranty of
   MERCHANTABILITY or FITNESS FOR A PARTICULAR PURPOSE.  See the
   GNU Lesser General Public License for more details.
   
   Cite this work as:
   * C. Bannwarth, E. Caldeweyher, S. Ehlert, A. Hansen, P. Pracht,
     J. Seibert, S. Spicher, S. Grimme, WIREs Comput. Mol. Sci., 2020, 11,
     e01493. DOI: 10.1002/wcms.1493
   
   for GFN2-xTB:
   * C. Bannwarth, S. Ehlert and S. Grimme., J. Chem. Theory Comput., 2019,
     15, 1652-1671. DOI: 10.1021/acs.jctc.8b01176
   for GFN1-xTB:
   * S. Grimme, C. Bannwarth, P. Shushkov, J. Chem. Theory Comput., 2017,
     13, 1989-2009. DOI: 10.1021/acs.jctc.7b00118
   for GFN0-xTB:
   * P. Pracht, E. Caldeweyher, S. Ehlert, S. Grimme, ChemRxiv, 2019, preprint.
     DOI: 10.26434/chemrxiv.8326202.v1
   for GFN-FF:
   * S. Spicher and S. Grimme, Angew. Chem. Int. Ed., 2020, 59, 15665-15673.
     DOI: 10.1002/anie.202004239
   
   for ALPB and GBSA implicit solvation:
   * S. Ehlert, M. Stahn, S. Spicher, S. Grimme, J. Chem. Theory Comput.,
     2021, 17, 4250-4261. DOI: 10.1021/acs.jctc.1c00471
   
   for DFT-D4:
   * E. Caldeweyher, C. Bannwarth and S. Grimme, J. Chem. Phys., 2017,
     147, 034112. DOI: 10.1063/1.4993215
   * E. Caldeweyher, S. Ehlert, A. Hansen, H. Neugebauer, S. Spicher,
     C. Bannwarth and S. Grimme, J. Chem. Phys., 2019, 150, 154122.
     DOI: 10.1063/1.5090222
   * E. Caldeweyher, J.-M. Mewes, S. Ehlert and S. Grimme, Phys. Chem. Chem. Phys.
     2020, 22, 8499-8512. DOI: 10.1039/D0CP00502A
   
   for sTDA-xTB:
   * S. Grimme and C. Bannwarth, J. Chem. Phys., 2016, 145, 054103.
     DOI: 10.1063/1.4959605
   
   in the mass-spec context:
   * V. Asgeirsson, C. Bauer and S. Grimme, Chem. Sci., 2017, 8, 4879.
     DOI: 10.1039/c7sc00601b
   * J. Koopman and S. Grimme, ACS Omega 2019, 4, 12, 15120-15133.
     DOI: 10.1021/acsomega.9b02011
   
   for metadynamics refer to:
   * S. Grimme, J. Chem. Theory Comput., 2019, 155, 2847-2862
     DOI: 10.1021/acs.jctc.9b00143
   
   for SPH calculations refer to:
   * S. Spicher and S. Grimme, J. Chem. Theory Comput., 2021, 17, 1701-1714
     DOI: 10.1021/acs.jctc.0c01306
   
   with help from (in alphabetical order)
   P. Atkinson, C. Bannwarth, F. Bohle, G. Brandenburg, E. Caldeweyher
   M. Checinski, S. Dohm, S. Ehlert, S. Ehrlich, I. Gerasimov, C. Hölzer
   A. Katbashev, J. Koopman, C. Lavigne, S. Lehtola, F. März, M. Müller,
   F. Musil, H. Neugebauer, J. Pisarek, C. Plett, P. Pracht, F. Pultar,
   J. Seibert, P. Shushkov, S. Spicher, M. Stahn, M. Steiner, T. Strunk,
   J. Stückrath, T. Rose, and J. Unsleber
   
 * started run on 2024/04/06 at 11:14:55.505     

           -------------------------------------------------
          |                Calculation Setup                |
           -------------------------------------------------

          program call               : xtb xtbopt.xyz --opt crude --input .xc2 --gfn2
          hostname                   : n-62-30-23
          coordinate file            : xtbopt.xyz
          omp threads                :                     1

   ID    Z sym.   atoms
    1    7 N      1, 17
    2    6 C      2-6, 8, 9, 11-16, 18-23, 25, 26, 28-33
    3    8 O      7, 10, 24, 27
    4    1 H      34-72
########################################################################
[WARNING] Please study the warnings concerning your input carefully
-1- readin_getIntValue: could not parse ''
########################################################################

           -------------------------------------------------
          |                 G F N 2 - x T B                 |
           -------------------------------------------------

        Reference                      10.1021/acs.jctc.8b01176
      * Hamiltonian:
        H0-scaling (s, p, d)           1.850000    2.230000    2.230000
        zeta-weighting                 0.500000
      * Dispersion:
        s8                             2.700000
        a1                             0.520000
        a2                             5.000000
        s9                             5.000000
      * Repulsion:
        kExp                           1.500000    1.000000
        rExp                           1.000000
      * Coulomb:
        alpha                          2.000000
        third order                    shell-resolved
        anisotropic                    true
        a3                             3.000000
        a5                             4.000000
        cn-shift                       1.200000
        cn-exp                         4.000000
        max-rad                        5.000000

q/qsh data taken from xtbrestart
CAMM data taken from xtbrestart

          ...................................................
          :                      SETUP                      :
          :.................................................:
          :  # basis functions                 171          :
          :  # atomic orbitals                 171          :
          :  # shells                          105          :
          :  # electrons                       180          :
          :  max. iterations                   250          :
          :  Hamiltonian                  GFN2-xTB          :
          :  restarted?                       true          :
          :  GBSA solvation                  false          :
          :  PC potential                    false          :
          :  electronic temp.         5000.0000000     K    :
          :  accuracy                    1.0000000          :
          :  -> integral cutoff          0.2500000E+02      :
          :  -> integral neglect         0.1000000E-07      :
          :  -> SCF convergence          0.1000000E-05 Eh   :
          :  -> wf. convergence          0.1000000E-03 e    :
          :  Broyden damping             0.4000000          :
          ...................................................

 iter      E             dE          RMSdq      gap      omega  full diag
   1   -100.6814424 -0.100681E+03  0.269E-05    0.07       0.0  T
   2   -100.6814424  0.865583E-10  0.355E-05    0.07     331.9  T
   3   -100.6814424 -0.760707E-10  0.208E-05    0.07     565.4  T

   *** convergence criteria satisfied after 3 iterations ***

         #    Occupation            Energy/Eh            Energy/eV
      -------------------------------------------------------------
         1        2.0000           -0.8182463             -22.2656
       ...           ...                  ...                  ...
        84        1.9988           -0.5182907             -14.1034
        85        1.9980           -0.5095537             -13.8657
        86        1.9853           -0.4779891             -13.0067
        87        1.9842           -0.4768205             -12.9749
        88        1.9656           -0.4643577             -12.6358
        89        1.8888           -0.4451762             -12.1139
        90        0.8569           -0.3957595             -10.7692 (HOMO)
        91        0.7802           -0.3932460             -10.7008 (LUMO)
        92        0.4964           -0.3827774             -10.4159
        93        0.0394           -0.3384689              -9.2102
        94        0.0065           -0.3096941              -8.4272
        95        0.0038           -0.3011123              -8.1937
       ...           ...                  ...                  ...
       171                          0.5889034              16.0249
      -------------------------------------------------------------
                  HL-Gap            0.0025135 Eh            0.0684 eV
             Fermi-level           -0.4003237 Eh          -10.8934 eV

 SCC (total)                   0 d,  0 h,  0 min,  0.118 sec
 SCC setup                      ...        0 min,  0.001 sec (  0.850%)
 Dispersion                     ...        0 min,  0.002 sec (  1.453%)
 classical contributions        ...        0 min,  0.000 sec (  0.367%)
 integral evaluation            ...        0 min,  0.018 sec ( 15.295%)
 iterations                     ...        0 min,  0.027 sec ( 23.116%)
 molecular gradient             ...        0 min,  0.069 sec ( 58.354%)
 printout                       ...        0 min,  0.001 sec (  0.553%)

         :::::::::::::::::::::::::::::::::::::::::::::::::::::
         ::                     SUMMARY                     ::
         :::::::::::::::::::::::::::::::::::::::::::::::::::::
         :: total energy             -99.327089206431 Eh    ::
         :: gradient norm              0.004407762822 Eh/a0 ::
         :: HOMO-LUMO gap              0.068394777177 eV    ::
         ::.................................................::
         :: SCC energy              -100.681442388793 Eh    ::
         :: -> isotropic ES            0.109067548588 Eh    ::
         :: -> anisotropic ES          0.004126738483 Eh    ::
         :: -> anisotropic XC          0.043365005536 Eh    ::
         :: -> dispersion             -0.074183704272 Eh    ::
         :: repulsion energy           1.353126555073 Eh    ::
         :: add. restraining           0.000000000000 Eh    ::
         :: total charge               0.999999999999 e     ::
         :::::::::::::::::::::::::::::::::::::::::::::::::::::

      ----------------------------------------------------------- 
     |                   =====================                   |
     |                        A N C O P T                        |
     |                   =====================                   |
     |               Approximate Normal Coordinate               |
     |                Rational Function Optimizer                |
      ----------------------------------------------------------- 

          ...................................................
          :                      SETUP                      :
          :.................................................:
          :   optimization level             crude          :
          :   max. optcycles                   200          :
          :   ANC micro-cycles                  20          :
          :   degrees of freedom               210          :
          :.................................................:
          :   RF solver                   davidson          :
          :   write xtbopt.log                true          :
          :   linear?                        false          :
          :   energy convergence         0.5000000E-03 Eh   :
          :   grad. convergence          0.1000000E-01 Eh/α :
          :   maxmium RF displ.          1.0000000          :
          :   Hlow (freq-cutoff)         0.1000000E-01      :
          :   Hmax (freq-cutoff)         5.0000000          :
          :   S6 in model hess.         20.0000000          :
          ...................................................

generating ANC from model Hessian ...
Using Lindh-Hessian (1995)
 Shifting diagonal of input Hessian by    9.9558302878603420E-003
 Lowest  eigenvalues of input Hessian
    0.000000    0.000000    0.000000    0.000000    0.000000    0.000000
    0.010000    0.010016    0.010116    0.010212    0.010274    0.010605
    0.010678    0.010864    0.011034    0.011732    0.011887    0.012634
 Highest eigenvalues
    1.959098    2.000894    2.048432    2.069060    2.080716    2.182125


........................................................................
.............................. CYCLE    1 ..............................
........................................................................

 iter      E             dE          RMSdq      gap      omega  full diag
   1   -100.6814424 -0.100681E+03  0.193E-05    0.07       0.0  T
   2   -100.6814424  0.349857E-09  0.569E-05    0.07     207.1  T
   3   -100.6814424 -0.384858E-09  0.818E-06    0.07    1441.3  T
     SCC iter.                  ...        0 min,  0.026 sec
     gradient                   ...        0 min,  0.069 sec
 * total energy  :   -99.3270892 Eh     change       -0.2921752E-10 Eh
   gradient norm :     0.0044076 Eh/α   predicted     0.0000000E+00 (-100.00%)
   displ. norm   :     0.1223941 α      lambda       -0.3242892E-03
   maximum displ.:     0.0530940 α      in ANC's #9, #8, #13, ...

   *** GEOMETRY OPTIMIZATION CONVERGED AFTER 1 ITERATIONS ***

------------------------------------------------------------------------
 total energy gain   :        -0.0000000 Eh       -0.0000 kcal/mol
 total RMSD          :         0.0000000 a0        0.0000 Å
 total power (kW/mol):        -0.0000001 (step)   -0.0000 (real)
------------------------------------------------------------------------

 ANCopt (total)                0 d,  0 h,  0 min,  0.181 sec
 optimizer setup                ...        0 min,  0.000 sec (  0.163%)
 model hessian                  ...        0 min,  0.052 sec ( 28.856%)
 ANC generation                 ...        0 min,  0.006 sec (  3.495%)
 coordinate transformation      ...        0 min,  0.000 sec (  0.027%)
 single point calculation       ...        0 min,  0.119 sec ( 65.725%)
 optimization log               ...        0 min,  0.002 sec (  1.244%)
 hessian update                 ...        0 min,  0.000 sec (  0.001%)
 rational function              ...        0 min,  0.000 sec (  0.251%)

================
 final structure:
================
72
 xtb: 6.6.1 (8d0f1dd)
N           -1.87127269800979        2.82941018697280        2.35198790458106
C           -1.79992646379874        2.13020048748670        1.31567096468113
C           -2.96549012696352        1.98840929966366        0.34367842597701
C           -3.51086778394933        0.56978644749531        0.42126239616006
C           -4.60656829784328        0.18433623101468       -0.53060210820664
C           -4.95819173661350       -1.26786128160924       -0.50375566108423
O           -5.85771440820788       -1.78245303549321       -1.36466582604369
C           -6.52323791619208       -0.94905396363283       -2.28164630322908
C           -4.41988080793894       -2.14557100803718        0.43365660081215
O           -4.86373987617833       -3.42682183971326        0.36029136687011
C           -4.43823171983252       -4.34866228289528        1.33653832478164
C           -3.48083222165840       -1.67616256829218        1.35531712565254
C           -3.04364179103434       -0.34140241104172        1.31446099706425
C           -2.38520872001451        2.26223204964889       -1.07258098956538
C           -1.48715845513885        1.13790872210366       -1.61855512830459
C           -0.13544102303791        1.11574231526648       -1.01092156983022
N            0.52358045360372        0.01162842263688       -0.64688910531763
C            1.91214570147619        0.08412489031518       -0.26443011780450
C            2.85557586989468       -0.35294511649956       -1.40253418230854
C            4.28058627159209       -0.15774480042773       -0.96763795751760
C            4.92156137305409        1.05072159280519       -1.17802466855933
C            6.21789850507229        1.25405196373861       -0.72922232876586
C            6.89583256304959        0.25072202486727       -0.05415140171054
O            8.15053108853567        0.33988875471472        0.43254137476903
C            8.87393820605945        1.53302049560309        0.24045195931721
C            6.24735966812757       -0.99433465819495        0.16391677136252
O            6.98171032474817       -1.91605444094734        0.82378414553765
C            6.43198962598906       -3.18906369682526        1.06125546086759
C            4.95222004214761       -1.17479214895373       -0.29243940943942
C           -0.07613813207879       -1.29772422419282       -0.72782065851398
C           -4.00024647010175        3.01628965848924        0.72049842814211
C           -4.89031086326304        2.72454490214054        1.86204935326202
C           -3.79861402243437        4.44024357299148        0.35228050713683
H           -4.34947977185281        0.47708852424875       -1.55727545398040
H           -7.09205142712845       -0.16239414199180       -1.77693118247230
H           -7.21052153341375       -1.59881728330984       -2.82011178987509
H           -5.82977319267768       -0.49175071333011       -2.99470507817786
H           -4.70507910642641       -4.01907447568844        2.34520263869924
H           -4.96404786143206       -5.27434165131726        1.11043170816266
H           -3.35887667976163       -4.52498373165522        1.28227457223674
H           -3.07609423846440       -2.33143106617363        2.10614569735699
H           -2.29901310935127       -0.04665480323146        2.03932172980618
H           -3.21793218150163        2.40758825307766       -1.76153048454131
H           -1.81321032565058        3.19028385591466       -1.04465605514419
H           -1.98168593884090        0.17533191907695       -1.50050912764733
H           -1.36867025153832        1.32099022910885       -2.69580497909049
H           -0.90016543255903        1.59710163648694        0.97047120593676
H            0.41892633730701        2.04028428277017       -0.97808523324380
H            2.07825088430715       -0.55465718932905        0.60775225742335
H            2.15475893163091        1.11132370169741        0.01549159223594
H            2.64589220930335        0.25377125200691       -2.28511235046251
H            2.67342517978190       -1.39930336165906       -1.65027327582402
H            4.41645050755626        1.84567838654000       -1.70564816031746
H            6.69251142145031        2.20380634252335       -0.91323313113542
H            8.38717233329143        2.38085065216283        0.73279390219850
H            9.00666756769246        1.75475936430773       -0.82280776172731
H            9.84667922208859        1.36140154077967        0.69726413873093
H            7.20514393750194       -3.74790883273653        1.58494620407290
H            5.53928340635983       -3.13063278751995        1.69273590398342
H            6.18614319554144       -3.70175437301161        0.12593571115831
H            4.45212975903753       -2.11807003371989       -0.13715271423827
H           -0.27545600922852       -1.58038287686108       -1.76427036153883
H           -1.01545470031172       -1.32442234580989       -0.16959561458739
H            0.60251353185424       -2.02813194899527       -0.29497578067968
H           -5.52386612000933        0.75032680300973       -0.29693992539628
H           -4.37583765043055        3.03027872583106        2.78223788626606
H           -5.11431939234852        1.66510025311982        1.95671661147659
H           -5.81486530280455        3.29699747456164        1.80311646403367
H           -2.89006115651112        4.81656902866035        0.83602049787558
H           -3.68266985967650        4.58775055898481       -0.72088685449367
H           -4.63333996280851        5.04360382047288        0.69867121696425
H           -1.03917778203249        2.88534999229878        2.93047552778464

 Bond Distances (Angstroems)
 ---------------------------
N1-C2=1.2522         N1-H72=1.0150        C2-N1=1.2522         C2-C3=1.5243         C2-H47=1.1013        C3-C2=1.5243         
C3-C4=1.5218         C3-C14=1.5548        C3-C31=1.5064        C4-C3=1.5218         C4-C5=1.5017         C4-C13=1.3588        
C5-C4=1.5017         C5-C6=1.4944         C5-H34=1.0981        C5-H65=1.1029        C6-C5=1.4944         C6-O7=1.3473         
C6-C9=1.3924         O7-C6=1.3473         O7-C8=1.4065         C8-O7=1.4065         C8-H35=1.0941        C8-H36=1.0883        
C8-H37=1.0947        C9-C6=1.3924         C9-O10=1.3579        C9-C12=1.3970        O10-C9=1.3579        O10-C11=1.4085       
C11-O10=1.4085       C11-H38=1.0942       C11-H39=1.0883       C11-H40=1.0950       C12-C9=1.3970        C12-C13=1.4051       
C12-H41=1.0756       C13-C4=1.3588        C13-C12=1.4051       C13-H42=1.0802       C14-C3=1.5548        C14-C15=1.5391       
C14-H43=1.0905       C14-H44=1.0905       C15-C14=1.5391       C15-C16=1.4822       C15-H45=1.0886       C15-H46=1.0991       
C16-C15=1.4822       C16-N17=1.3364       C16-H48=1.0785       N17-C16=1.3364       N17-C18=1.4421       N17-C30=1.4424       
C18-N17=1.4421       C18-C19=1.5415       C18-H49=1.0938       C18-H50=1.0920       C19-C18=1.5415       C19-C20=1.5026       
C19-H51=1.0913       C19-H52=1.0906       C20-C19=1.5026       C20-C21=1.3840       C20-C29=1.3933       C21-C20=1.3840       
C21-C22=1.3868       C21-H53=1.0796       C22-C21=1.3868       C22-C23=1.3864       C22-H54=1.0776       C23-C22=1.3864       
C23-O24=1.3487       C23-C26=1.4206       O24-C23=1.3487       O24-C25=1.4085       C25-O24=1.4085       C25-H55=1.0946       
C25-H56=1.0942       C25-H57=1.0883       C26-C23=1.4206       C26-O27=1.3507       C26-C29=1.3850       O27-C26=1.3507       
O27-C28=1.4068       C28-O27=1.4068       C28-H58=1.0883       C28-H59=1.0950       C28-H60=1.0946       C29-C20=1.3933       
C29-C26=1.3850       C29-H61=1.0789       C30-N17=1.4424       C30-H62=1.0926       C30-H63=1.0930       C30-H64=1.0869       
C31-C3=1.5064        C31-C32=1.4766       C31-C33=1.4845       C32-C31=1.4766       C32-H66=1.0977       C32-H67=1.0870       
C32-H68=1.0890       C33-C31=1.4845       C33-H69=1.0959       C33-H70=1.0894       C33-H71=1.0866       H34-C5=1.0981        
H35-C8=1.0941        H36-C8=1.0883        H37-C8=1.0947        H38-C11=1.0942       H39-C11=1.0883       H40-C11=1.0950       
H41-C12=1.0756       H42-C13=1.0802       H43-C14=1.0905       H44-C14=1.0905       H45-C15=1.0886       H46-C15=1.0991       
H47-C2=1.1013        H48-C16=1.0785       H49-C18=1.0938       H50-C18=1.0920       H51-C19=1.0913       H52-C19=1.0906       
H53-C21=1.0796       H54-C22=1.0776       H55-C25=1.0946       H56-C25=1.0942       H57-C25=1.0883       H58-C28=1.0883       
H59-C28=1.0950       H60-C28=1.0946       H61-C29=1.0789       H62-C30=1.0926       H63-C30=1.0930       H64-C30=1.0869       
H65-C5=1.1029        H66-C32=1.0977       H67-C32=1.0870       H68-C32=1.0890       H69-C33=1.0959       H70-C33=1.0894       
H71-C33=1.0866       H72-N1=1.0150        
 C  H  Rav=1.0904 sigma=0.0065  Rmin=1.0756  Rmax=1.1029    38
 C  C  Rav=1.4563 sigma=0.0632  Rmin=1.3588  Rmax=1.5548    22
 N  H  Rav=1.0150 sigma=0.0000  Rmin=1.0150  Rmax=1.0150     1
 N  C  Rav=1.3683 sigma=0.0798  Rmin=1.2522  Rmax=1.4424     4
 O  C  Rav=1.3794 sigma=0.0284  Rmin=1.3473  Rmax=1.4085     8

 selected bond angles (degree)
 --------------------
H72-N1-C2=117.11               C3-C2-N1=122.42                H47-C2-N1=125.19               H47-C2-C3=112.32               
C4-C3-C2=109.16                C14-C3-C2=106.21               C14-C3-C4=110.14               C31-C3-C2=107.59               
C31-C3-C4=112.16               C31-C3-C14=111.35              C5-C4-C3=117.93                C13-C4-C3=122.37               
C13-C4-C5=119.70               C6-C5-C4=114.19                H34-C5-C4=110.69               H34-C5-C6=109.33               
H65-C5-C4=109.93               H65-C5-C6=107.41               H65-C5-H34=104.83              O7-C6-C5=121.12                
C9-C6-C5=122.25                C9-C6-O7=116.59                C8-O7-C6=120.41                H35-C8-O7=111.79               
H36-C8-O7=105.52               H36-C8-H35=109.22              H37-C8-O7=111.87               H37-C8-H35=109.23              
H37-C8-H36=109.10              O10-C9-C6=115.59               C12-C9-C6=119.49               C12-C9-O10=124.92              
C11-O10-C9=118.77              

 selected dihedral angles (degree)
 ---------------------------------
C3-C2-N1-H72=181.47           H47-C2-N1-H72=358.18          C4-C3-C2-N1=249.29            C4-C3-C2-H47= 72.20           
C14-C3-C2-N1=130.57           C14-C3-C2-H47=313.47          C31-C3-C2-N1= 11.23           C31-C3-C2-H47=194.14          
C5-C4-C3-C2=184.27            C5-C4-C3-C14=300.51           C5-C4-C3-C31= 65.13           C13-C4-C3-C2=  4.40           
C13-C4-C3-C14=120.64          C13-C4-C3-C31=245.26          C6-C5-C4-C3=172.57            C6-C5-C4-C13=352.44           
H34-C5-C4-C3= 48.69           H34-C5-C4-C13=228.56          H65-C5-C4-C3=293.35           H65-C5-C4-C13=113.22          
O7-C6-C5-C4=184.56            O7-C6-C5-H34=309.17           O7-C6-C5-H65= 62.39           C9-C6-C5-C4=  7.04            
C9-C6-C5-H34=131.65           C9-C6-C5-H65=244.87           C8-O7-C6-C5=357.76            C8-O7-C6-C9=175.42            
H35-C8-O7-C6=300.82           H36-C8-O7-C6=182.20           H37-C8-O7-C6= 63.69           O10-C9-C6-C5=178.06           
O10-C9-C6-O7=  0.43           C12-C9-C6-C5=357.60           C12-C9-C6-O7=179.96           C11-O10-C9-C6=184.58          
C11-O10-C9-C12=  5.07         
           -------------------------------------------------
          |                Final Singlepoint                |
           -------------------------------------------------

          ...................................................
          :                      SETUP                      :
          :.................................................:
          :  # basis functions                 171          :
          :  # atomic orbitals                 171          :
          :  # shells                          105          :
          :  # electrons                       180          :
          :  max. iterations                   250          :
          :  Hamiltonian                  GFN2-xTB          :
          :  restarted?                      false          :
          :  GBSA solvation                  false          :
          :  PC potential                    false          :
          :  electronic temp.         5000.0000000     K    :
          :  accuracy                    1.0000000          :
          :  -> integral cutoff          0.2500000E+02      :
          :  -> integral neglect         0.1000000E-07      :
          :  -> SCF convergence          0.1000000E-05 Eh   :
          :  -> wf. convergence          0.1000000E-03 e    :
          :  Broyden damping             0.4000000          :
          ...................................................

 iter      E             dE          RMSdq      gap      omega  full diag
   1   -100.6814424 -0.100681E+03  0.531E-06    0.07       0.0  T
   2   -100.6814424  0.936495E-11  0.100E-05    0.07    1177.5  T
   3   -100.6814424 -0.109281E-10  0.244E-06    0.07    4825.0  T

   *** convergence criteria satisfied after 3 iterations ***

         #    Occupation            Energy/Eh            Energy/eV
      -------------------------------------------------------------
         1        2.0000           -0.8182464             -22.2656
       ...           ...                  ...                  ...
        84        1.9988           -0.5182906             -14.1034
        85        1.9980           -0.5095537             -13.8657
        86        1.9853           -0.4779891             -13.0067
        87        1.9842           -0.4768204             -12.9749
        88        1.9656           -0.4643577             -12.6358
        89        1.8888           -0.4451761             -12.1139
        90        0.8569           -0.3957596             -10.7692 (HOMO)
        91        0.7802           -0.3932463             -10.7008 (LUMO)
        92        0.4964           -0.3827772             -10.4159
        93        0.0394           -0.3384689              -9.2102
        94        0.0065           -0.3096942              -8.4272
        95        0.0038           -0.3011122              -8.1937
       ...           ...                  ...                  ...
       171                          0.5889035              16.0249
      -------------------------------------------------------------
                  HL-Gap            0.0025134 Eh            0.0684 eV
             Fermi-level           -0.4003238 Eh          -10.8934 eV

 SCC (total)                   0 d,  0 h,  0 min,  0.117 sec
 SCC setup                      ...        0 min,  0.001 sec (  0.756%)
 Dispersion                     ...        0 min,  0.002 sec (  1.361%)
 classical contributions        ...        0 min,  0.000 sec (  0.374%)
 integral evaluation            ...        0 min,  0.018 sec ( 15.402%)
 iterations                     ...        0 min,  0.026 sec ( 22.661%)
 molecular gradient             ...        0 min,  0.069 sec ( 58.963%)
 printout                       ...        0 min,  0.001 sec (  0.466%)

         :::::::::::::::::::::::::::::::::::::::::::::::::::::
         ::                     SUMMARY                     ::
         :::::::::::::::::::::::::::::::::::::::::::::::::::::
         :: total energy             -99.327089206464 Eh    ::
         :: gradient norm              0.004407648078 Eh/a0 ::
         :: HOMO-LUMO gap              0.068392120722 eV    ::
         ::.................................................::
         :: SCC energy              -100.681442388826 Eh    ::
         :: -> isotropic ES            0.109067639294 Eh    ::
         :: -> anisotropic ES          0.004126829066 Eh    ::
         :: -> anisotropic XC          0.043365016842 Eh    ::
         :: -> dispersion             -0.074183705188 Eh    ::
         :: repulsion energy           1.353126555073 Eh    ::
         :: add. restraining           0.000000000000 Eh    ::
         :: total charge               0.999999999999 e     ::
         :::::::::::::::::::::::::::::::::::::::::::::::::::::

           -------------------------------------------------
          |                Property Printout                |
           -------------------------------------------------

    * Orbital Energies and Occupations

         #    Occupation            Energy/Eh            Energy/eV
      -------------------------------------------------------------
         1        2.0000           -0.8182464             -22.2656
       ...           ...                  ...                  ...
        78        1.9996           -0.5335069             -14.5175
        79        1.9994           -0.5300616             -14.4237
        80        1.9993           -0.5258530             -14.3092
        81        1.9991           -0.5227659             -14.2252
        82        1.9991           -0.5220324             -14.2052
        83        1.9990           -0.5214635             -14.1897
        84        1.9988           -0.5182906             -14.1034
        85        1.9980           -0.5095537             -13.8657
        86        1.9853           -0.4779891             -13.0067
        87        1.9842           -0.4768204             -12.9749
        88        1.9656           -0.4643577             -12.6358
        89        1.8888           -0.4451761             -12.1139
        90        0.8569           -0.3957596             -10.7692 (HOMO)
        91        0.7802           -0.3932463             -10.7008 (LUMO)
        92        0.4964           -0.3827772             -10.4159
        93        0.0394           -0.3384689              -9.2102
        94        0.0065           -0.3096942              -8.4272
        95        0.0038           -0.3011122              -8.1937
        96        0.0032           -0.2985059              -8.1228
        97        0.0000           -0.2226595              -6.0589
        98        0.0000           -0.1759185              -4.7870
        99                         -0.1246009              -3.3906
       100                         -0.0786952              -2.1414
       101                         -0.0724214              -1.9707
       ...                                ...                  ...
       171                          0.5889035              16.0249
      -------------------------------------------------------------
                  HL-Gap            0.0025134 Eh            0.0684 eV
             Fermi-level           -0.4003238 Eh          -10.8934 eV

     #   Z          covCN         q      C6AA      α(0)
     1   7 N        1.774    -0.295    28.463     7.900
     2   6 C        2.830     0.093    25.926     8.344
     3   6 C        3.909     0.009    20.371     6.415
     4   6 C        2.958    -0.018    28.468     8.751
     5   6 C        3.810    -0.074    21.899     6.661
     6   6 C        2.850     0.114    25.492     8.275
     7   8 O        1.706    -0.211    17.509     5.650
     8   6 C        3.642     0.024    20.519     6.513
     9   6 C        2.850     0.123    25.298     8.243
    10   8 O        1.706    -0.247    18.089     5.742
    11   6 C        3.644     0.030    20.407     6.493
    12   6 C        2.912    -0.087    30.185     9.009
    13   6 C        2.905    -0.049    29.217     8.863
    14   6 C        3.809    -0.066    21.754     6.639
    15   6 C        3.802    -0.067    21.775     6.644
    16   6 C        2.842    -0.009    28.237     8.709
    17   7 N        2.729    -0.001    21.289     6.853
    18   6 C        3.756    -0.014    20.882     6.516
    19   6 C        3.808    -0.070    21.829     6.651
    20   6 C        2.970    -0.003    28.091     8.694
    21   6 C        2.922    -0.051    29.266     8.872
    22   6 C        2.914    -0.069    29.722     8.940
    23   6 C        2.865     0.131    25.134     8.218
    24   8 O        1.706    -0.229    17.799     5.696
    25   6 C        3.646     0.027    20.447     6.499
    26   6 C        2.863     0.131    25.138     8.218
    27   8 O        1.706    -0.231    17.836     5.702
    28   6 C        3.645     0.029    20.414     6.494
    29   6 C        2.920    -0.081    30.019     8.985
    30   6 C        3.699    -0.066    21.943     6.700
    31   6 C        2.947     0.010    27.789     8.646
    32   6 C        3.755    -0.121    22.869     6.819
    33   6 C        3.754    -0.119    22.834     6.814
    34   1 H        0.923     0.069     2.100     2.266
    35   1 H        0.924     0.058     2.229     2.335
    36   1 H        0.925     0.087     1.907     2.160
    37   1 H        0.924     0.053     2.289     2.366
    38   1 H        0.924     0.051     2.306     2.375
    39   1 H        0.925     0.078     2.002     2.213
    40   1 H        0.924     0.045     2.385     2.415
    41   1 H        0.926     0.050     2.321     2.383
    42   1 H        0.926     0.039     2.457     2.451
    43   1 H        0.924     0.053     2.280     2.361
    44   1 H        0.924     0.054     2.275     2.359
    45   1 H        0.925     0.063     2.167     2.302
    46   1 H        0.923     0.070     2.087     2.259
    47   1 H        0.923     0.014     2.827     2.629
    48   1 H        0.926     0.060     2.196     2.317
    49   1 H        0.924     0.063     2.163     2.300
    50   1 H        0.924     0.064     2.149     2.293
    51   1 H        0.924     0.052     2.290     2.366
    52   1 H        0.924     0.053     2.288     2.366
    53   1 H        0.926     0.041     2.433     2.439
    54   1 H        0.926     0.055     2.264     2.353
    55   1 H        0.924     0.051     2.313     2.379
    56   1 H        0.924     0.053     2.289     2.366
    57   1 H        0.925     0.079     1.990     2.206
    58   1 H        0.925     0.079     1.994     2.208
    59   1 H        0.924     0.045     2.381     2.413
    60   1 H        0.924     0.050     2.326     2.385
    61   1 H        0.926     0.044     2.400     2.422
    62   1 H        0.924     0.071     2.076     2.253
    63   1 H        0.924     0.074     2.038     2.232
    64   1 H        0.925     0.077     2.013     2.219
    65   1 H        0.923     0.080     1.979     2.200
    66   1 H        0.924     0.102     1.765     2.077
    67   1 H        0.925     0.056     2.252     2.347
    68   1 H        0.925     0.067     2.124     2.279
    69   1 H        0.924     0.079     1.991     2.207
    70   1 H        0.925     0.059     2.205     2.322
    71   1 H        0.925     0.066     2.126     2.280
    72   1 H        0.860     0.157     1.358     1.825

 Mol. C6AA /au·bohr⁶  :      47371.255871
 Mol. C8AA /au·bohr⁸  :    1081182.485353
 Mol. α(0) /au        :        334.094143


Wiberg/Mayer (AO) data.
largest (>0.10) Wiberg bond orders for each atom

 ---------------------------------------------------------------------------
     #   Z sym  total        # sym  WBO       # sym  WBO       # sym  WBO
 ---------------------------------------------------------------------------
     1   7 N    3.007 --     2 C    1.945    72 H    0.943
     2   6 C    3.871 --     1 N    1.945     3 C    0.944    47 H    0.907
     3   6 C    3.981 --    31 C    1.001     4 C    0.972    14 C    0.949
                             2 C    0.944
     4   6 C    3.757 --    13 C    1.600     5 C    1.022     3 C    0.972
     5   6 C    3.982 --     6 C    1.028     4 C    1.022    34 H    0.928
                            65 H    0.912
     6   6 C    3.653 --     9 C    1.346     7 O    1.124     5 C    1.028
     7   8 O    2.242 --     6 C    1.124     8 C    0.979
     8   6 C    3.928 --     7 O    0.979    36 H    0.976    35 H    0.970
                            37 H    0.969
     9   6 C    3.904 --     6 C    1.346    12 C    1.321    10 O    1.075
    10   8 O    2.231 --     9 C    1.075    11 C    0.980
    11   6 C    3.935 --    10 O    0.980    39 H    0.977    38 H    0.975
                            40 H    0.975
    12   6 C    3.719 --     9 C    1.321    13 C    1.296    41 H    0.966
    13   6 C    3.981 --     4 C    1.600    12 C    1.296    42 H    0.958
    14   6 C    3.961 --    15 C    0.987    44 H    0.973    43 H    0.970
                             3 C    0.949
    15   6 C    3.989 --    16 C    1.054    14 C    0.987    45 H    0.961
                            46 H    0.933
    16   6 C    3.515 --    17 N    1.358    15 C    1.054    48 H    0.960
    17   7 N    3.428 --    16 C    1.358    30 C    1.001    18 C    0.992
    18   6 C    3.958 --    17 N    0.992    50 H    0.968    19 C    0.966
                            49 H    0.964
    19   6 C    3.976 --    20 C    1.008    51 H    0.973    52 H    0.972
                            18 C    0.966
    20   6 C    3.954 --    21 C    1.417    29 C    1.376    19 C    1.008
    21   6 C    3.959 --    20 C    1.417    22 C    1.412    53 H    0.969
    22   6 C    3.965 --    21 C    1.412    23 C    1.390    54 H    0.964
    23   6 C    3.905 --    22 C    1.390    26 C    1.228    24 O    1.101
    24   8 O    2.254 --    23 C    1.101    25 C    0.978
    25   6 C    3.933 --    24 O    0.978    57 H    0.977    55 H    0.974
                            56 H    0.974
    26   6 C    3.908 --    29 C    1.401    23 C    1.228    27 O    1.095
    27   8 O    2.253 --    26 C    1.095    28 C    0.981
    28   6 C    3.936 --    27 O    0.981    58 H    0.977    59 H    0.974
                            60 H    0.974
    29   6 C    3.964 --    26 C    1.401    20 C    1.376    61 H    0.963
    30   6 C    3.961 --    17 N    1.001    64 H    0.978    62 H    0.968
                            63 H    0.963
    31   6 C    3.247 --    32 C    1.085    33 C    1.072     3 C    1.001
    32   6 C    3.973 --    31 C    1.085    67 H    0.973    68 H    0.965
                            66 H    0.909
    33   6 C    3.978 --    31 C    1.072    71 H    0.978    70 H    0.961
                            69 H    0.928
    34   1 H    0.963 --     5 C    0.928
    35   1 H    0.990 --     8 C    0.970
    36   1 H    0.992 --     8 C    0.976
    37   1 H    0.991 --     8 C    0.969
    38   1 H    0.995 --    11 C    0.975
    39   1 H    0.993 --    11 C    0.977
    40   1 H    0.995 --    11 C    0.975
    41   1 H    0.996 --    12 C    0.966
    42   1 H    0.998 --    13 C    0.958
    43   1 H    0.996 --    14 C    0.970
    44   1 H    0.996 --    14 C    0.973
    45   1 H    0.995 --    15 C    0.961
    46   1 H    0.966 --    15 C    0.933
    47   1 H    0.988 --     2 C    0.907
    48   1 H    0.996 --    16 C    0.960
    49   1 H    0.991 --    18 C    0.964
    50   1 H    0.995 --    18 C    0.968
    51   1 H    0.996 --    19 C    0.973
    52   1 H    0.996 --    19 C    0.972
    53   1 H    0.998 --    21 C    0.969
    54   1 H    0.996 --    22 C    0.964
    55   1 H    0.994 --    25 C    0.974
    56   1 H    0.993 --    25 C    0.974
    57   1 H    0.993 --    25 C    0.977
    58   1 H    0.993 --    28 C    0.977
    59   1 H    0.995 --    28 C    0.974
    60   1 H    0.994 --    28 C    0.974
    61   1 H    0.997 --    29 C    0.963
    62   1 H    0.984 --    30 C    0.968
    63   1 H    0.986 --    30 C    0.963
    64   1 H    0.994 --    30 C    0.978
    65   1 H    0.947 --     5 C    0.912
    66   1 H    0.934 --    32 C    0.909
    67   1 H    0.992 --    32 C    0.973
    68   1 H    0.981 --    32 C    0.965
    69   1 H    0.948 --    33 C    0.928
    70   1 H    0.978 --    33 C    0.961
    71   1 H    0.993 --    33 C    0.978
    72   1 H    0.972 --     1 N    0.943
 ---------------------------------------------------------------------------

Topologies differ in total number of bonds
Writing topology from bond orders to xtbtopo.mol

molecular dipole:
                 x           y           z       tot (Debye)
 q only:       -1.343       0.766      -0.723
   full:       -1.028       0.778      -0.853       3.929
molecular quadrupole (traceless):
                xx          xy          yy          xz          yz          zz
 q only:       54.194      -7.583     -13.827       6.680      -7.117     -40.367
  q+dip:       47.831      -4.496     -11.938       7.807     -10.395     -35.893
   full:       47.495      -4.376     -12.510       6.226     -10.043     -34.986

           -------------------------------------------------
          |                Geometry Summary                 |
           -------------------------------------------------

      molecular mass/u    :      455.6105846
   center of mass at/Å    :        0.0047246       0.0256793       0.0126228
  moments of inertia/u·Å² :        0.2478636E+04   0.1101447E+05   0.1233621E+05
rotational constants/cm⁻¹ :        0.6801172E-02   0.1530499E-02   0.1366516E-02

 * 65 selected distances

     #   Z          #   Z                                           value/Å
     1   7 N        2   6 C                                       1.2521731
     6   6 C        7   8 O                                       1.3472611
     7   8 O        8   6 C                                       1.4065309
     6   6 C        9   6 C                                       1.3924421
     9   6 C       10   8 O                                       1.3579386
    10   8 O       11   6 C                                       1.4085118
     9   6 C       12   6 C                                       1.3970022
     4   6 C       13   6 C                                       1.3588117
    12   6 C       13   6 C                                       1.4051298
    14   6 C       15   6 C                                       1.5390534
    15   6 C       16   6 C                                       1.4821776
    16   6 C       17   7 N                                       1.3363745
    17   7 N       18   6 C                                       1.4420972
    18   6 C       19   6 C                                       1.5415486 (max)
    20   6 C       21   6 C                                       1.3840170
    21   6 C       22   6 C                                       1.3868155
    22   6 C       23   6 C                                       1.3863573
    23   6 C       24   8 O                                       1.3487362
    24   8 O       25   6 C                                       1.4084672
    23   6 C       26   6 C                                       1.4206468
    26   6 C       27   8 O                                       1.3506530
    27   8 O       28   6 C                                       1.4068185
    20   6 C       29   6 C                                       1.3933308
    26   6 C       29   6 C                                       1.3849956
    17   7 N       30   6 C                                       1.4424344
    31   6 C       32   6 C                                       1.4766410
    31   6 C       33   6 C                                       1.4845488
     5   6 C       34   1 H                                       1.0981151
     8   6 C       35   1 H                                       1.0941298
     8   6 C       36   1 H                                       1.0883457
     8   6 C       37   1 H                                       1.0947477
    11   6 C       38   1 H                                       1.0941844
    11   6 C       39   1 H                                       1.0883425
    11   6 C       40   1 H                                       1.0950075
    12   6 C       41   1 H                                       1.0756084 (min)
    13   6 C       42   1 H                                       1.0801719
    14   6 C       43   1 H                                       1.0905083
    14   6 C       44   1 H                                       1.0905239
    15   6 C       45   1 H                                       1.0885985
    15   6 C       46   1 H                                       1.0991023
     2   6 C       47   1 H                                       1.1013298
    16   6 C       48   1 H                                       1.0785080
    18   6 C       49   1 H                                       1.0937714
    18   6 C       50   1 H                                       1.0919501
    19   6 C       51   1 H                                       1.0913370
    19   6 C       52   1 H                                       1.0906050
    21   6 C       53   1 H                                       1.0795740
    22   6 C       54   1 H                                       1.0775672
    25   6 C       55   1 H                                       1.0946039
    25   6 C       56   1 H                                       1.0942151
    25   6 C       57   1 H                                       1.0882811
    28   6 C       58   1 H                                       1.0882682
    28   6 C       59   1 H                                       1.0950371
    28   6 C       60   1 H                                       1.0945846
    29   6 C       61   1 H                                       1.0788780
    30   6 C       62   1 H                                       1.0926352
    30   6 C       63   1 H                                       1.0929976
    30   6 C       64   1 H                                       1.0869307
     5   6 C       65   1 H                                       1.1028957
    32   6 C       66   1 H                                       1.0976807
    32   6 C       67   1 H                                       1.0869981
    32   6 C       68   1 H                                       1.0890253
    33   6 C       69   1 H                                       1.0959442
    33   6 C       70   1 H                                       1.0894447
    33   6 C       71   1 H                                       1.0866452

 * 4 distinct bonds (by element types)

   Z      Z             #   av. dist./Å        max./Å        min./Å
   1 H    6 C          38     1.0904498     1.1028957     1.0756084
   6 C    6 C          15     1.4289012     1.5415486     1.3588117
   6 C    7 N           4     1.3682698     1.4424344     1.2521731
   6 C    8 O           8     1.3793647     1.4085118     1.3472611


optimized geometry written to: xtbopt.xyz


           -------------------------------------------------
          | TOTAL ENERGY              -99.327089206464 Eh   |
          | GRADIENT NORM               0.004407648078 Eh/α |
          | HOMO-LUMO GAP               0.068392120722 eV   |
           -------------------------------------------------

------------------------------------------------------------------------
 * finished run on 2024/04/06 at 11:14:55.977     
------------------------------------------------------------------------
 total:
 * wall-time:     0 d,  0 h,  0 min,  0.472 sec
 *  cpu-time:     0 d,  0 h,  0 min,  0.441 sec
 * ratio c/w:     0.933 speedup
 SCF:
 * wall-time:     0 d,  0 h,  0 min,  0.119 sec
 *  cpu-time:     0 d,  0 h,  0 min,  0.119 sec
 * ratio c/w:     1.000 speedup
 ANC optimizer:
 * wall-time:     0 d,  0 h,  0 min,  0.305 sec
 *  cpu-time:     0 d,  0 h,  0 min,  0.297 sec
 * ratio c/w:     0.974 speedup

