      -----------------------------------------------------------      
     |                   =====================                   |     
     |                           x T B                           |     
     |                   =====================                   |     
     |                         S. Grimme                         |     
     |          Mulliken Center for Theoretical Chemistry        |     
     |                    University of Bonn                     |     
      -----------------------------------------------------------      

   * xtb version 6.6.1 (8d0f1dd) compiled by 'conda@1efc2f54142f' on 2023-08-01

   xtb is free software: you can redistribute it and/or modify it under
   the terms of the GNU Lesser General Public License as published by
   the Free Software Foundation, either version 3 of the License, or
   (at your option) any later version.
   
   xtb is distributed in the hope that it will be useful,
   but WITHOUT ANY WARRANTY; without even the implied warranty of
   MERCHANTABILITY or FITNESS FOR A PARTICULAR PURPOSE.  See the
   GNU Lesser General Public License for more details.
   
   Cite this work as:
   * C. Bannwarth, E. Caldeweyher, S. Ehlert, A. Hansen, P. Pracht,
     J. Seibert, S. Spicher, S. Grimme, WIREs Comput. Mol. Sci., 2020, 11,
     e01493. DOI: 10.1002/wcms.1493
   
   for GFN2-xTB:
   * C. Bannwarth, S. Ehlert and S. Grimme., J. Chem. Theory Comput., 2019,
     15, 1652-1671. DOI: 10.1021/acs.jctc.8b01176
   for GFN1-xTB:
   * S. Grimme, C. Bannwarth, P. Shushkov, J. Chem. Theory Comput., 2017,
     13, 1989-2009. DOI: 10.1021/acs.jctc.7b00118
   for GFN0-xTB:
   * P. Pracht, E. Caldeweyher, S. Ehlert, S. Grimme, ChemRxiv, 2019, preprint.
     DOI: 10.26434/chemrxiv.8326202.v1
   for GFN-FF:
   * S. Spicher and S. Grimme, Angew. Chem. Int. Ed., 2020, 59, 15665-15673.
     DOI: 10.1002/anie.202004239
   
   for ALPB and GBSA implicit solvation:
   * S. Ehlert, M. Stahn, S. Spicher, S. Grimme, J. Chem. Theory Comput.,
     2021, 17, 4250-4261. DOI: 10.1021/acs.jctc.1c00471
   
   for DFT-D4:
   * E. Caldeweyher, C. Bannwarth and S. Grimme, J. Chem. Phys., 2017,
     147, 034112. DOI: 10.1063/1.4993215
   * E. Caldeweyher, S. Ehlert, A. Hansen, H. Neugebauer, S. Spicher,
     C. Bannwarth and S. Grimme, J. Chem. Phys., 2019, 150, 154122.
     DOI: 10.1063/1.5090222
   * E. Caldeweyher, J.-M. Mewes, S. Ehlert and S. Grimme, Phys. Chem. Chem. Phys.
     2020, 22, 8499-8512. DOI: 10.1039/D0CP00502A
   
   for sTDA-xTB:
   * S. Grimme and C. Bannwarth, J. Chem. Phys., 2016, 145, 054103.
     DOI: 10.1063/1.4959605
   
   in the mass-spec context:
   * V. Asgeirsson, C. Bauer and S. Grimme, Chem. Sci., 2017, 8, 4879.
     DOI: 10.1039/c7sc00601b
   * J. Koopman and S. Grimme, ACS Omega 2019, 4, 12, 15120-15133.
     DOI: 10.1021/acsomega.9b02011
   
   for metadynamics refer to:
   * S. Grimme, J. Chem. Theory Comput., 2019, 155, 2847-2862
     DOI: 10.1021/acs.jctc.9b00143
   
   for SPH calculations refer to:
   * S. Spicher and S. Grimme, J. Chem. Theory Comput., 2021, 17, 1701-1714
     DOI: 10.1021/acs.jctc.0c01306
   
   with help from (in alphabetical order)
   P. Atkinson, C. Bannwarth, F. Bohle, G. Brandenburg, E. Caldeweyher
   M. Checinski, S. Dohm, S. Ehlert, S. Ehrlich, I. Gerasimov, C. Hölzer
   A. Katbashev, J. Koopman, C. Lavigne, S. Lehtola, F. März, M. Müller,
   F. Musil, H. Neugebauer, J. Pisarek, C. Plett, P. Pracht, F. Pultar,
   J. Seibert, P. Shushkov, S. Spicher, M. Stahn, M. Steiner, T. Strunk,
   J. Stückrath, T. Rose, and J. Unsleber
   
 * started run on 2024/06/05 at 19:57:55.358     

           -------------------------------------------------
          |                Calculation Setup                |
           -------------------------------------------------

          program call               : xtb struc.xyz --opt loose --input .xc1 --gfn2
          hostname                   : n-62-31-11
          coordinate file            : struc.xyz
          omp threads                :                     1

   ID    Z sym.   atoms
    1    6 C      1, 3, 5-7, 10, 11, 14
    2    7 N      2, 4, 9, 13
    3    8 O      8, 12
    4    1 H      15-25
constraining bond 6 10 to    6.0000000 Å, actual value:    3.7045483 Å

           -------------------------------------------------
          |                 G F N 2 - x T B                 |
           -------------------------------------------------

        Reference                      10.1021/acs.jctc.8b01176
      * Hamiltonian:
        H0-scaling (s, p, d)           1.850000    2.230000    2.230000
        zeta-weighting                 0.500000
      * Dispersion:
        s8                             2.700000
        a1                             0.520000
        a2                             5.000000
        s9                             5.000000
      * Repulsion:
        kExp                           1.500000    1.000000
        rExp                           1.000000
      * Coulomb:
        alpha                          2.000000
        third order                    shell-resolved
        anisotropic                    true
        a3                             3.000000
        a5                             4.000000
        cn-shift                       1.200000
        cn-exp                         4.000000
        max-rad                        5.000000


          ...................................................
          :                      SETUP                      :
          :.................................................:
          :  # basis functions                  67          :
          :  # atomic orbitals                  67          :
          :  # shells                           39          :
          :  # electrons                        74          :
          :  max. iterations                   250          :
          :  Hamiltonian                  GFN2-xTB          :
          :  restarted?                      false          :
          :  GBSA solvation                  false          :
          :  PC potential                    false          :
          :  electronic temp.         5000.0000000     K    :
          :  accuracy                    1.0000000          :
          :  -> integral cutoff          0.2500000E+02      :
          :  -> integral neglect         0.1000000E-07      :
          :  -> SCF convergence          0.1000000E-05 Eh   :
          :  -> wf. convergence          0.1000000E-03 e    :
          :  Broyden damping             0.4000000          :
          ...................................................

 iter      E             dE          RMSdq      gap      omega  full diag
   1    -42.5894031 -0.425894E+02  0.445E+00    3.52       0.0  T
   2    -42.7683054 -0.178902E+00  0.251E+00    3.36       1.0  T
   3    -42.7759211 -0.761567E-02  0.147E+00    3.35       1.0  T
   4    -42.7728404  0.308066E-02  0.553E-01    3.33       1.0  T
   5    -42.7789548 -0.611444E-02  0.112E-01    3.35       1.0  T
   6    -42.7790473 -0.924914E-04  0.614E-02    3.33       1.0  T
   7    -42.7790721 -0.247928E-04  0.258E-02    3.34       1.0  T
   8    -42.7790772 -0.508996E-05  0.938E-03    3.34       2.1  T
   9    -42.7790779 -0.669422E-06  0.448E-03    3.34       4.5  T
  10    -42.7790780 -0.821510E-07  0.115E-03    3.34      17.4  T
  11    -42.7790780 -0.322663E-08  0.553E-04    3.34      36.2  T
  12    -42.7790780 -0.287051E-08  0.180E-04    3.34     111.1  T

   *** convergence criteria satisfied after 12 iterations ***

         #    Occupation            Energy/Eh            Energy/eV
      -------------------------------------------------------------
         1        2.0000           -0.9185990             -24.9964
       ...           ...                  ...                  ...
        31        1.9996           -0.6230278             -16.9534
        32        1.9995           -0.6194601             -16.8564
        33        1.9979           -0.5974976             -16.2587
        34        1.9932           -0.5789629             -15.7544
        35        1.9817           -0.5631863             -15.3251
        36        1.9779           -0.5602245             -15.2445
        37        1.9748           -0.5581234             -15.1873 (HOMO)
        38        0.0652           -0.4353579             -11.8467 (LUMO)
        39        0.0099           -0.4050467             -11.0219
        40        0.0013           -0.3732218             -10.1559
        41        0.0000           -0.2886859              -7.8555
        42                         -0.2065804              -5.6213
       ...                                ...                  ...
        67                          0.5625656              15.3082
      -------------------------------------------------------------
                  HL-Gap            0.1227656 Eh            3.3406 eV
             Fermi-level           -0.4890455 Eh          -13.3076 eV

 SCC (total)                   0 d,  0 h,  0 min,  0.035 sec
 SCC setup                      ...        0 min,  0.000 sec (  0.726%)
 Dispersion                     ...        0 min,  0.000 sec (  0.889%)
 classical contributions        ...        0 min,  0.000 sec (  0.236%)
 integral evaluation            ...        0 min,  0.005 sec ( 15.310%)
 iterations                     ...        0 min,  0.016 sec ( 44.189%)
 molecular gradient             ...        0 min,  0.014 sec ( 38.218%)
 printout                       ...        0 min,  0.000 sec (  0.399%)

         :::::::::::::::::::::::::::::::::::::::::::::::::::::
         ::                     SUMMARY                     ::
         :::::::::::::::::::::::::::::::::::::::::::::::::::::
         :: total energy             -32.839714421642 Eh    ::
         :: gradient norm              6.131600233544 Eh/a0 ::
         :: HOMO-LUMO gap              3.340621582928 eV    ::
         ::.................................................::
         :: SCC energy               -42.779077977399 Eh    ::
         :: -> isotropic ES            0.141123876439 Eh    ::
         :: -> anisotropic ES         -0.005230418907 Eh    ::
         :: -> anisotropic XC          0.011966818540 Eh    ::
         :: -> dispersion             -0.022657731803 Eh    ::
         :: repulsion energy           0.531105277918 Eh    ::
         :: add. restraining           9.408144118830 Eh    ::
         :: total charge               1.000000000002 e     ::
         :::::::::::::::::::::::::::::::::::::::::::::::::::::

      ----------------------------------------------------------- 
     |                   =====================                   |
     |                        A N C O P T                        |
     |                   =====================                   |
     |               Approximate Normal Coordinate               |
     |                Rational Function Optimizer                |
      ----------------------------------------------------------- 

          ...................................................
          :                      SETUP                      :
          :.................................................:
          :   optimization level             loose          :
          :   max. optcycles                   200          :
          :   ANC micro-cycles                  20          :
          :   degrees of freedom                69          :
          :.................................................:
          :   RF solver                   davidson          :
          :   write xtbopt.log                true          :
          :   linear?                        false          :
          :   energy convergence         0.5000000E-04 Eh   :
          :   grad. convergence          0.4000000E-02 Eh/α :
          :   maxmium RF displ.          1.0000000          :
          :   Hlow (freq-cutoff)         0.1000000E-01      :
          :   Hmax (freq-cutoff)         5.0000000          :
          :   S6 in model hess.         20.0000000          :
          ...................................................

generating ANC from model Hessian ...
Using Lindh-Hessian (1995)
 Shifting diagonal of input Hessian by   0.80847231505736117     
 Lowest  eigenvalues of input Hessian
    0.010000    0.301339    0.000000    0.000000    0.000000    0.000000
    0.000000    0.000000    0.811287    0.813983    0.818204    0.819258
    0.820169    0.821610    0.823870    0.827111    0.830942    0.839160
 Highest eigenvalues
    2.892346    3.034389    3.083607    3.164894    3.335521    4.145794


........................................................................
.............................. CYCLE    1 ..............................
........................................................................

 iter      E             dE          RMSdq      gap      omega  full diag
   1    -42.7790780 -0.427791E+02  0.626E-05    3.34       0.0  T
   2    -42.7790780 -0.124416E-10  0.329E-05    3.34     607.4  T
   3    -42.7790780  0.127898E-12  0.193E-05    3.34    1034.2  T
     SCC iter.                  ...        0 min,  0.005 sec
     gradient                   ...        0 min,  0.014 sec
 * total energy  :   -32.8397144 Eh     change       -0.6650680E-10 Eh
   gradient norm :     6.1316000 Eh/α   predicted     0.0000000E+00 (-100.00%)
   displ. norm   :     0.7410042 α      lambda       -0.4518435E+01
   maximum displ.:     0.6546441 α      in ANC's #69, #60, #48, ...

........................................................................
.............................. CYCLE    2 ..............................
........................................................................

 iter      E             dE          RMSdq      gap      omega  full diag
   1    -42.7066591 -0.427067E+02  0.150E+00    3.43       0.0  T
   2    -42.7184135 -0.117544E-01  0.878E-01    3.44       1.0  T
   3    -42.7215872 -0.317372E-02  0.508E-01    3.39       1.0  T
   4    -42.7223645 -0.777216E-03  0.688E-02    3.42       1.0  T
   5    -42.7224158 -0.513630E-04  0.215E-02    3.41       1.0  T
   6    -42.7224187 -0.283950E-05  0.125E-02    3.41       1.6  T
   7    -42.7224192 -0.535189E-06  0.488E-03    3.41       4.1  T
   8    -42.7224196 -0.354426E-06  0.159E-03    3.41      12.6  T
   9    -42.7224196 -0.302256E-07  0.729E-04    3.41      27.4  T
  10    -42.7224196 -0.101063E-08  0.203E-04    3.41      98.4  T
     SCC iter.                  ...        0 min,  0.014 sec
     gradient                   ...        0 min,  0.014 sec
 * total energy  :   -36.6825626 Eh     change       -0.3842848E+01 Eh
   gradient norm :     4.2837691 Eh/α   predicted    -0.3499752E+01 (  -8.93%)
   displ. norm   :     0.7658316 α      lambda       -0.3253354E+01
   maximum displ.:     0.6501837 α      in ANC's #69, #60, #48, ...

........................................................................
.............................. CYCLE    3 ..............................
........................................................................

 iter      E             dE          RMSdq      gap      omega  full diag
   1    -42.5020521 -0.425021E+02  0.146E+00    2.54       0.0  T
   2    -42.5159549 -0.139028E-01  0.114E+00    2.84       1.0  T
   3    -42.5348138 -0.188589E-01  0.516E-01    2.70       1.0  T
   4    -42.5340022  0.811565E-03  0.352E-01    2.72       1.0  T
   5    -42.5359718 -0.196962E-02  0.593E-02    2.70       1.0  T
   6    -42.5360395 -0.676435E-04  0.308E-02    2.73       1.0  T
   7    -42.5360557 -0.161941E-04  0.115E-02    2.71       1.7  T
   8    -42.5360561 -0.479891E-06  0.917E-03    2.72       2.2  T
   9    -42.5360575 -0.130702E-05  0.139E-03    2.72      14.4  T
  10    -42.5360575 -0.234073E-07  0.600E-04    2.72      33.3  T
  11    -42.5360575 -0.457490E-09  0.286E-04    2.72      70.0  T
     SCC iter.                  ...        0 min,  0.015 sec
     gradient                   ...        0 min,  0.014 sec
 * total energy  :   -39.2887378 Eh     change       -0.2606175E+01 Eh
   gradient norm :     2.6303323 Eh/α   predicted    -0.2580722E+01 (  -0.98%)
   displ. norm   :     0.7744240 α      lambda       -0.1991384E+01
   maximum displ.:     0.5014890 α      in ANC's #69, #61, #60, ...

........................................................................
.............................. CYCLE    4 ..............................
........................................................................

 iter      E             dE          RMSdq      gap      omega  full diag
   1    -42.2430242 -0.422430E+02  0.139E+00    1.01       0.0  T
   2    -41.6434798  0.599544E+00  0.345E+00    0.41       1.0  T
   3    -42.3208277 -0.677348E+00  0.624E-01    1.30       1.0  T
   4    -42.3100103  0.108173E-01  0.710E-01    1.23       1.0  T
   5    -42.3133140 -0.330371E-02  0.523E-01    1.35       1.0  T
   6    -42.3236151 -0.103010E-01  0.217E-01    1.21       1.0  T
   7    -42.3247512 -0.113612E-02  0.112E-01    1.20       1.0  T
   8    -42.3247685 -0.173454E-04  0.781E-02    1.21       1.0  T
   9    -42.3248237 -0.552304E-04  0.277E-02    1.21       1.0  T
  10    -42.3248315 -0.773781E-05  0.688E-03    1.21       2.9  T
  11    -42.3248321 -0.575804E-06  0.223E-03    1.21       9.0  T
  12    -42.3248322 -0.110246E-06  0.146E-03    1.21      13.7  T
  13    -42.3248322 -0.287902E-07  0.548E-04    1.21      36.5  T
  14    -42.3248322 -0.195656E-08  0.112E-04    1.21     178.5  T
     SCC iter.                  ...        0 min,  0.019 sec
     gradient                   ...        0 min,  0.013 sec
 * total energy  :   -40.8264168 Eh     change       -0.1537679E+01 Eh
   gradient norm :     1.4720401 Eh/α   predicted    -0.1592896E+01 (   3.59%)
   displ. norm   :     0.6112789 α      lambda       -0.8831413E+00
   maximum displ.:     0.4511147 α      in ANC's #69, #61, #60, ...

........................................................................
.............................. CYCLE    5 ..............................
........................................................................

 iter      E             dE          RMSdq      gap      omega  full diag
   1    -42.1378385 -0.421378E+02  0.153E+00    0.87       0.0  T
   2    -41.3519559  0.785883E+00  0.348E+00    0.14       1.0  T
   3    -42.1233653 -0.771409E+00  0.109E+00    0.96       1.0  T
   4    -42.1699016 -0.465363E-01  0.756E-01    0.50       1.0  T
   5    -42.1780564 -0.815478E-02  0.324E-01    0.65       1.0  T
   6    -42.1778084  0.248011E-03  0.296E-01    0.59       1.0  T
   7    -42.1809654 -0.315698E-02  0.134E-01    0.65       1.0  T
   8    -42.1817761 -0.810745E-03  0.320E-02    0.69       1.0  T
   9    -42.1818184 -0.422276E-04  0.121E-02    0.70       1.6  T
  10    -42.1818196 -0.125121E-05  0.748E-03    0.70       2.7  T
  11    -42.1818210 -0.134903E-05  0.326E-03    0.70       6.1  T
  12    -42.1818211 -0.157416E-06  0.120E-03    0.70      16.7  T
  13    -42.1818211 -0.197979E-07  0.512E-04    0.70      39.1  T
  14    -42.1818211 -0.918791E-08  0.138E-04    0.70     145.1  T
     SCC iter.                  ...        0 min,  0.018 sec
     gradient                   ...        0 min,  0.013 sec
 * total energy  :   -41.4261007 Eh     change       -0.5996839E+00 Eh
   gradient norm :     0.5455222 Eh/α   predicted    -0.6065693E+00 (   1.15%)
   displ. norm   :     0.4181269 α      lambda       -0.2170609E+00
   maximum displ.:     0.2109379 α      in ANC's #69, #61, #39, ...

........................................................................
.............................. CYCLE    6 ..............................
........................................................................

 iter      E             dE          RMSdq      gap      omega  full diag
   1    -42.1165608 -0.421166E+02  0.107E+00    0.19       0.0  T
   2    -41.9341675  0.182393E+00  0.218E+00    1.23       1.0  T
   3    -42.1038050 -0.169637E+00  0.884E-01    0.33       1.0  T
   4    -42.1011767  0.262826E-02  0.929E-01    0.93       1.0  T
   5    -42.1482345 -0.470577E-01  0.180E-01    0.50       1.0  T
   6    -42.1486734 -0.438902E-03  0.485E-02    0.54       1.0  T
   7    -42.1486402  0.331394E-04  0.456E-02    0.53       1.0  T
   8    -42.1487178 -0.775630E-04  0.197E-02    0.54       1.0  T
   9    -42.1487246 -0.682414E-05  0.107E-02    0.55       1.9  T
  10    -42.1487252 -0.585711E-06  0.771E-03    0.55       2.6  T
  11    -42.1487280 -0.282325E-05  0.129E-03    0.55      15.5  T
  12    -42.1487280 -0.734902E-08  0.483E-04    0.55      41.4  T
  13    -42.1487280 -0.187335E-08  0.188E-04    0.55     106.2  T
     SCC iter.                  ...        0 min,  0.017 sec
     gradient                   ...        0 min,  0.013 sec
 * total energy  :   -41.5659980 Eh     change       -0.1398973E+00 Eh
   gradient norm :     0.2383132 Eh/α   predicted    -0.1275071E+00 (  -8.86%)
   displ. norm   :     0.3858893 α      lambda       -0.7156952E-01
   maximum displ.:     0.2158458 α      in ANC's #1, #18, #19, ...

........................................................................
.............................. CYCLE    7 ..............................
........................................................................

 iter      E             dE          RMSdq      gap      omega  full diag
   1    -42.1536395 -0.421536E+02  0.624E-01    0.27       0.0  T
   2    -42.0281526  0.125487E+00  0.175E+00    1.26       1.0  T
   3    -42.1628934 -0.134741E+00  0.513E-01    0.51       1.0  T
   4    -42.1400770  0.228164E-01  0.759E-01    0.84       1.0  T
   5    -42.1701052 -0.300282E-01  0.174E-01    0.51       1.0  T
   6    -42.1704511 -0.345888E-03  0.342E-02    0.48       1.0  T
   7    -42.1704804 -0.292960E-04  0.257E-02    0.50       1.0  T
   8    -42.1704924 -0.120253E-04  0.995E-03    0.50       2.0  T
   9    -42.1704948 -0.243125E-05  0.380E-03    0.50       5.3  T
  10    -42.1704949 -0.124571E-06  0.171E-03    0.50      11.7  T
  11    -42.1704950 -0.573514E-07  0.777E-04    0.50      25.7  T
  12    -42.1704950  0.372878E-07  0.936E-04    0.50      21.4  T
     SCC iter.                  ...        0 min,  0.016 sec
     gradient                   ...        0 min,  0.013 sec
 * total energy  :   -41.6252965 Eh     change       -0.5929852E-01 Eh
   gradient norm :     0.2387303 Eh/α   predicted    -0.4111349E-01 ( -30.67%)
   displ. norm   :     0.6553165 α      lambda       -0.9852063E-01
   maximum displ.:     0.3889760 α      in ANC's #1, #18, #20, ...

........................................................................
.............................. CYCLE    8 ..............................
........................................................................

 iter      E             dE          RMSdq      gap      omega  full diag
   1    -42.1427678 -0.421428E+02  0.125E+00    0.09       0.0  T
   2    -41.6451910  0.497577E+00  0.335E+00    2.34       1.0  T
   3    -42.1719288 -0.526738E+00  0.113E+00    0.83       1.0  T
   4    -42.1971642 -0.252354E-01  0.803E-01    0.73       1.0  T
   5    -42.0677956  0.129369E+00  0.145E+00    0.26       1.0  T
   6    -42.2146339 -0.146838E+00  0.328E-01    0.27       1.0  T
   7    -42.2187717 -0.413782E-02  0.228E-01    0.32       1.0  T
   8    -42.2215301 -0.275837E-02  0.990E-02    0.38       1.0  T
   9    -42.2222108 -0.680676E-03  0.206E-02    0.42       1.0  T
  10    -42.2222160 -0.525791E-05  0.148E-02    0.43       1.4  T
  11    -42.2222101  0.594868E-05  0.145E-02    0.43       1.4  T
  12    -42.2222224 -0.122717E-04  0.121E-03    0.42      16.5  T
  13    -42.2222222  0.196814E-06  0.193E-03    0.42      10.4  T
  14    -42.2222222 -0.561697E-07  0.151E-03    0.42      13.2  T
  15    -42.2222224 -0.147843E-06  0.354E-04    0.42      56.4  T
  16    -42.2222224 -0.771910E-08  0.942E-05    0.42     212.3  T
     SCC iter.                  ...        0 min,  0.021 sec
     gradient                   ...        0 min,  0.013 sec
 * total energy  :   -41.7029688 Eh     change       -0.7767228E-01 Eh
   gradient norm :     0.2684406 Eh/α   predicted    -0.7041472E-01 (  -9.34%)
   displ. norm   :     0.6376358 α      lambda       -0.9104075E-01
   maximum displ.:     0.3179784 α      in ANC's #18, #20, #19, ...

........................................................................
.............................. CYCLE    9 ..............................
........................................................................

 iter      E             dE          RMSdq      gap      omega  full diag
   1    -42.2650698 -0.422651E+02  0.134E+00    0.19       0.0  T
   2    -41.8021484  0.462921E+00  0.313E+00    2.22       1.0  T
   3    -42.2825209 -0.480372E+00  0.883E-01    0.14       1.0  T
   4    -42.2866694 -0.414846E-02  0.871E-01    0.51       1.0  T
   5    -42.3006651 -0.139957E-01  0.439E-01    0.18       1.0  T
   6    -42.3116648 -0.109997E-01  0.799E-02    0.28       1.0  T
   7    -42.3117235 -0.587229E-04  0.606E-02    0.33       1.0  T
   8    -42.3118525 -0.128930E-03  0.263E-02    0.30       1.0  T
   9    -42.3118817 -0.292273E-04  0.105E-02    0.30       1.9  T
  10    -42.3118867 -0.500836E-05  0.205E-03    0.31       9.8  T
  11    -42.3118867  0.318651E-07  0.122E-03    0.31      16.4  T
  12    -42.3118867 -0.700440E-07  0.245E-04    0.31      81.7  T
  13    -42.3118867  0.225913E-08  0.236E-04    0.31      84.6  T
     SCC iter.                  ...        0 min,  0.017 sec
     gradient                   ...        0 min,  0.013 sec
 * total energy  :   -41.7769552 Eh     change       -0.7398642E-01 Eh
   gradient norm :     0.2139198 Eh/α   predicted    -0.6402804E-01 ( -13.46%)
   displ. norm   :     0.6446753 α      lambda       -0.7708175E-01
   maximum displ.:     0.3345098 α      in ANC's #18, #19, #20, ...

........................................................................
.............................. CYCLE   10 ..............................
........................................................................

 iter      E             dE          RMSdq      gap      omega  full diag
   1    -42.2630879 -0.422631E+02  0.179E+00    0.75       0.0  T
   2    -41.5188584  0.744230E+00  0.430E+00    2.08       1.0  T
   3    -42.3653216 -0.846463E+00  0.533E-01    0.12       1.0  T
   4    -42.3567836  0.853803E-02  0.690E-01    0.13       1.0  T
   5    -42.3374654  0.193182E-01  0.759E-01    0.41       1.0  T
   6    -42.3682755 -0.308101E-01  0.122E-01    0.11       1.0  T
   7    -42.3687636 -0.488105E-03  0.635E-02    0.11       1.0  T
   8    -42.3689457 -0.182070E-03  0.110E-02    0.12       1.8  T
   9    -42.3689477 -0.204562E-05  0.791E-03    0.12       2.5  T
  10    -42.3689489 -0.120058E-05  0.582E-03    0.12       3.4  T
  11    -42.3689506 -0.167740E-05  0.724E-04    0.12      27.6  T
  12    -42.3689506 -0.111688E-07  0.286E-04    0.12      70.0  T
  13    -42.3689506 -0.136070E-08  0.180E-04    0.12     111.3  T
     SCC iter.                  ...        0 min,  0.017 sec
     gradient                   ...        0 min,  0.013 sec
 * total energy  :   -41.8343354 Eh     change       -0.5738014E-01 Eh
   gradient norm :     0.2106624 Eh/α   predicted    -0.5455877E-01 (  -4.92%)
   displ. norm   :     0.5024680 α      lambda       -0.5674085E-01
   maximum displ.:     0.2702853 α      in ANC's #18, #19, #20, ...

........................................................................
.............................. CYCLE   11 ..............................
........................................................................

 iter      E             dE          RMSdq      gap      omega  full diag
   1    -42.3822532 -0.423823E+02  0.104E+00    0.63       0.0  T
   2    -41.9182289  0.464024E+00  0.323E+00    1.50       1.0  T
   3    -42.3902619 -0.472033E+00  0.710E-01    0.56       1.0  T
   4    -42.4043823 -0.141204E-01  0.451E-01    0.26       1.0  T
   5    -42.4085971 -0.421474E-02  0.846E-02    0.30       1.0  T
   6    -42.4087269 -0.129862E-03  0.385E-02    0.29       1.0  T
   7    -42.4087743 -0.473908E-04  0.137E-02    0.27       1.5  T
   8    -42.4087763 -0.194854E-05  0.797E-03    0.27       2.5  T
   9    -42.4087778 -0.151899E-05  0.178E-03    0.28      11.2  T
  10    -42.4087779 -0.522704E-07  0.679E-04    0.28      29.4  T
  11    -42.4087778  0.586934E-08  0.516E-04    0.28      38.7  T
     SCC iter.                  ...        0 min,  0.015 sec
     gradient                   ...        0 min,  0.013 sec
 * total energy  :   -41.8795509 Eh     change       -0.4521549E-01 Eh
   gradient norm :     0.2459137 Eh/α   predicted    -0.3553330E-01 ( -21.41%)
   displ. norm   :     0.6555993 α      lambda       -0.7971420E-01
   maximum displ.:     0.3490168 α      in ANC's #1, #18, #12, ...

........................................................................
.............................. CYCLE   12 ..............................
........................................................................

 iter      E             dE          RMSdq      gap      omega  full diag
   1    -42.3858876 -0.423859E+02  0.112E+00    0.76       0.0  T
   2    -41.9143709  0.471517E+00  0.328E+00    1.27       1.0  T
   3    -42.3955398 -0.481169E+00  0.754E-01    0.71       1.0  T
   4    -42.4077827 -0.122430E-01  0.439E-01    0.36       1.0  T
   5    -42.4120894 -0.430671E-02  0.102E-01    0.41       1.0  T
   6    -42.4122661 -0.176634E-03  0.380E-02    0.41       1.0  T
   7    -42.4122667 -0.579118E-06  0.305E-02    0.40       1.0  T
   8    -42.4122785 -0.118208E-04  0.125E-02    0.40       1.6  T
   9    -42.4122833 -0.485018E-05  0.385E-03    0.40       5.2  T
  10    -42.4122836 -0.284757E-06  0.153E-03    0.40      13.1  T
  11    -42.4122837 -0.461203E-07  0.416E-04    0.40      48.1  T
  12    -42.4122837 -0.156521E-08  0.189E-04    0.40     105.9  T
     SCC iter.                  ...        0 min,  0.016 sec
     gradient                   ...        0 min,  0.013 sec
 * total energy  :   -41.9251852 Eh     change       -0.4563427E-01 Eh
   gradient norm :     0.1940174 Eh/α   predicted    -0.5698812E-01 (  24.88%)
   displ. norm   :     0.6797675 α      lambda       -0.6564603E-01
   maximum displ.:     0.5141929 α      in ANC's #1, #18, #12, ...

........................................................................
.............................. CYCLE   13 ..............................
........................................................................

 iter      E             dE          RMSdq      gap      omega  full diag
   1    -42.4874757 -0.424875E+02  0.951E-01    0.50       0.0  T
   2    -42.4897349 -0.225927E-02  0.568E-01    0.55       1.0  T
   3    -42.4783358  0.113991E-01  0.570E-01    0.28       1.0  T
   4    -42.4511596  0.271763E-01  0.970E-01    1.03       1.0  T
   5    -42.4905043 -0.393447E-01  0.129E-01    0.49       1.0  T
   6    -42.4909805 -0.476244E-03  0.427E-02    0.53       1.0  T
   7    -42.4910323 -0.517689E-04  0.131E-02    0.52       1.5  T
   8    -42.4910336 -0.131210E-05  0.309E-03    0.52       6.5  T
   9    -42.4910337 -0.935307E-07  0.131E-03    0.51      15.3  T
  10    -42.4910337 -0.308735E-07  0.558E-04    0.52      35.9  T
  11    -42.4910337 -0.110838E-08  0.299E-04    0.52      66.8  T
     SCC iter.                  ...        0 min,  0.015 sec
     gradient                   ...        0 min,  0.013 sec
 * total energy  :   -41.9432952 Eh     change       -0.1811008E-01 Eh
   gradient norm :     0.2381911 Eh/α   predicted    -0.4799057E-01 ( 164.99%)
   displ. norm   :     0.2335201 α      lambda       -0.4231238E-01
   maximum displ.:     0.1266966 α      in ANC's #2, #1, #69, ...

........................................................................
.............................. CYCLE   14 ..............................
........................................................................

 iter      E             dE          RMSdq      gap      omega  full diag
   1    -42.5010044 -0.425010E+02  0.261E-01    0.51       0.0  T
   2    -42.5011894 -0.184922E-03  0.156E-01    0.49       1.0  T
   3    -42.5001591  0.103025E-02  0.181E-01    0.58       1.0  T
   4    -42.4977959  0.236322E-02  0.284E-01    0.37       1.0  T
   5    -42.5013287 -0.353281E-02  0.308E-02    0.52       1.0  T
   6    -42.5013598 -0.310899E-04  0.715E-03    0.51       2.8  T
   7    -42.5013597  0.994889E-07  0.476E-03    0.51       4.2  T
   8    -42.5013602 -0.535905E-06  0.143E-03    0.51      14.0  T
   9    -42.5013603 -0.446474E-07  0.545E-04    0.51      36.7  T
  10    -42.5013603 -0.596802E-08  0.194E-04    0.51     103.2  T
     SCC iter.                  ...        0 min,  0.014 sec
     gradient                   ...        0 min,  0.013 sec
 * total energy  :   -41.9707999 Eh     change       -0.2750462E-01 Eh
   gradient norm :     0.1554588 Eh/α   predicted    -0.2231003E-01 ( -18.89%)
   displ. norm   :     0.3721016 α      lambda       -0.2896650E-01
   maximum displ.:     0.1871431 α      in ANC's #1, #18, #19, ...

........................................................................
.............................. CYCLE   15 ..............................
........................................................................

 iter      E             dE          RMSdq      gap      omega  full diag
   1    -42.5140658 -0.425141E+02  0.518E-01    0.78       0.0  T
   2    -42.3065358  0.207530E+00  0.219E+00    0.50       1.0  T
   3    -42.5220372 -0.215501E+00  0.207E-01    0.60       1.0  T
   4    -42.5220621 -0.249626E-04  0.123E-01    0.55       1.0  T
   5    -42.5223583 -0.296132E-03  0.492E-02    0.56       1.0  T
   6    -42.5224038 -0.454775E-04  0.174E-02    0.55       1.1  T
   7    -42.5224088 -0.504022E-05  0.105E-02    0.55       1.9  T
   8    -42.5224110 -0.224648E-05  0.412E-03    0.56       4.8  T
   9    -42.5224114 -0.382158E-06  0.110E-03    0.56      18.1  T
  10    -42.5224115 -0.328686E-07  0.353E-04    0.56      56.7  T
  11    -42.5224115 -0.602597E-09  0.136E-04    0.56     147.0  T
     SCC iter.                  ...        0 min,  0.015 sec
     gradient                   ...        0 min,  0.013 sec
 * total energy  :   -41.9912723 Eh     change       -0.2047244E-01 Eh
   gradient norm :     0.1318868 Eh/α   predicted    -0.1648862E-01 ( -19.46%)
   displ. norm   :     0.3940462 α      lambda       -0.2471175E-01
   maximum displ.:     0.2091444 α      in ANC's #18, #17, #19, ...

........................................................................
.............................. CYCLE   16 ..............................
........................................................................

 iter      E             dE          RMSdq      gap      omega  full diag
   1    -42.5589635 -0.425590E+02  0.496E-01    0.81       0.0  T
   2    -42.4357766  0.123187E+00  0.169E+00    0.18       1.0  T
   3    -42.5581610 -0.122384E+00  0.408E-01    0.82       1.0  T
   4    -42.5633792 -0.521815E-02  0.114E-01    0.66       1.0  T
   5    -42.5636089 -0.229734E-03  0.341E-02    0.64       1.0  T
   6    -42.5636402 -0.312810E-04  0.143E-02    0.64       1.4  T
   7    -42.5636445 -0.430761E-05  0.682E-03    0.64       2.9  T
   8    -42.5636452 -0.683500E-06  0.267E-03    0.64       7.5  T
   9    -42.5636454 -0.153942E-06  0.539E-04    0.63      37.1  T
  10    -42.5636454 -0.441350E-08  0.249E-04    0.63      80.2  T
     SCC iter.                  ...        0 min,  0.014 sec
     gradient                   ...        0 min,  0.013 sec
 * total energy  :   -42.0099098 Eh     change       -0.1863755E-01 Eh
   gradient norm :     0.1093612 Eh/α   predicted    -0.1427463E-01 ( -23.41%)
   displ. norm   :     0.4359614 α      lambda       -0.2081601E-01
   maximum displ.:     0.2415033 α      in ANC's #18, #17, #44, ...

........................................................................
.............................. CYCLE   17 ..............................
........................................................................

 iter      E             dE          RMSdq      gap      omega  full diag
   1    -42.5887887 -0.425888E+02  0.505E-01    0.87       0.0  T
   2    -42.4829557  0.105833E+00  0.158E+00    0.07       1.0  T
   3    -42.5859379 -0.102982E+00  0.459E-01    0.92       1.0  T
   4    -42.5926025 -0.666460E-02  0.749E-02    0.73       1.0  T
   5    -42.5926899 -0.874188E-04  0.365E-02    0.72       1.0  T
   6    -42.5927218 -0.319350E-04  0.179E-02    0.72       1.1  T
   7    -42.5927311 -0.920660E-05  0.667E-03    0.71       3.0  T
   8    -42.5927318 -0.763303E-06  0.235E-03    0.71       8.5  T
   9    -42.5927320 -0.139267E-06  0.524E-04    0.71      38.2  T
  10    -42.5927320 -0.243771E-08  0.258E-04    0.71      77.4  T
     SCC iter.                  ...        0 min,  0.013 sec
     gradient                   ...        0 min,  0.013 sec
 * total energy  :   -42.0252622 Eh     change       -0.1535232E-01 Eh
   gradient norm :     0.0831293 Eh/α   predicted    -0.1238618E-01 ( -19.32%)
   displ. norm   :     0.3773696 α      lambda       -0.1350706E-01
   maximum displ.:     0.2195246 α      in ANC's #18, #17, #12, ...

........................................................................
.............................. CYCLE   18 ..............................
........................................................................

 iter      E             dE          RMSdq      gap      omega  full diag
   1    -42.6041384 -0.426041E+02  0.381E-01    0.85       0.0  T
   2    -42.5565655  0.475729E-01  0.107E+00    0.23       1.0  T
   3    -42.6017424 -0.451769E-01  0.366E-01    0.91       1.0  T
   4    -42.6059050 -0.416260E-02  0.769E-02    0.76       1.0  T
   5    -42.6060179 -0.112890E-03  0.312E-02    0.75       1.0  T
   6    -42.6060348 -0.169068E-04  0.174E-02    0.75       1.1  T
   7    -42.6060441 -0.932897E-05  0.553E-03    0.75       3.6  T
   8    -42.6060446 -0.529178E-06  0.135E-03    0.74      14.8  T
   9    -42.6060447 -0.296930E-07  0.419E-04    0.74      47.7  T
  10    -42.6060447 -0.599982E-10  0.268E-04    0.74      74.7  T
     SCC iter.                  ...        0 min,  0.014 sec
     gradient                   ...        0 min,  0.013 sec
 * total energy  :   -42.0350965 Eh     change       -0.9834383E-02 Eh
   gradient norm :     0.0752542 Eh/α   predicted    -0.7715369E-02 ( -21.55%)
   displ. norm   :     0.3243831 α      lambda       -0.9141155E-02
   maximum displ.:     0.1938960 α      in ANC's #18, #17, #6, ...

........................................................................
.............................. CYCLE   19 ..............................
........................................................................

 iter      E             dE          RMSdq      gap      omega  full diag
   1    -42.6110918 -0.426111E+02  0.286E-01    0.83       0.0  T
   2    -42.5939820  0.171098E-01  0.654E-01    0.44       1.0  T
   3    -42.6090099 -0.150279E-01  0.296E-01    0.90       1.0  T
   4    -42.6117870 -0.277702E-02  0.715E-02    0.77       1.0  T
   5    -42.6118744 -0.874002E-04  0.251E-02    0.76       1.0  T
   6    -42.6118884 -0.140862E-04  0.120E-02    0.77       1.7  T
   7    -42.6118928 -0.435159E-05  0.365E-03    0.76       5.5  T
   8    -42.6118929 -0.144238E-06  0.102E-03    0.76      19.6  T
   9    -42.6118930 -0.150138E-07  0.384E-04    0.76      52.1  T
  10    -42.6118930 -0.438341E-09  0.242E-04    0.76      82.8  T
     SCC iter.                  ...        0 min,  0.013 sec
     gradient                   ...        0 min,  0.013 sec
 * total energy  :   -42.0418603 Eh     change       -0.6763722E-02 Eh
   gradient norm :     0.0723511 Eh/α   predicted    -0.5051520E-02 ( -25.31%)
   displ. norm   :     0.3023135 α      lambda       -0.7643621E-02
   maximum displ.:     0.1729876 α      in ANC's #18, #6, #17, ...

........................................................................
.............................. CYCLE   20 ..............................
........................................................................

 iter      E             dE          RMSdq      gap      omega  full diag
   1    -42.6135775 -0.426136E+02  0.250E-01    0.83       0.0  T
   2    -42.6045453  0.903222E-02  0.484E-01    0.55       1.0  T
   3    -42.6114675 -0.692219E-02  0.278E-01    0.91       1.0  T
   4    -42.6139786 -0.251109E-02  0.656E-02    0.79       1.0  T
   5    -42.6140446 -0.660298E-04  0.236E-02    0.78       1.0  T
   6    -42.6140595 -0.149388E-04  0.940E-03    0.79       2.1  T
   7    -42.6140620 -0.249619E-05  0.289E-03    0.78       6.9  T
   8    -42.6140621 -0.565130E-07  0.745E-04    0.78      26.9  T
   9    -42.6140621 -0.667764E-08  0.349E-04    0.78      57.3  T
     SCC iter.                  ...        0 min,  0.012 sec
     gradient                   ...        0 min,  0.013 sec
 * total energy  :   -42.0475563 Eh     change       -0.5696085E-02 Eh
   gradient norm :     0.0650092 Eh/α   predicted    -0.4171126E-02 ( -26.77%)
   displ. norm   :     0.2721382 α      lambda       -0.6690243E-02
   maximum displ.:     0.1335010 α      in ANC's #18, #6, #17, ...
 * RMSD in coord.:     1.2620440 α      energy gain  -0.9207842E+01 Eh

generating ANC from model Hessian ...
Using Lindh-Hessian (1995)
 Shifting diagonal of input Hessian by    1.0044559680494251E-002
 Lowest  eigenvalues of input Hessian
    0.010000    0.000000    0.000000    0.000000    0.000000    0.000000
    0.000000    0.010048    0.010535    0.010643    0.010952    0.011174
    0.012587    0.012995    0.014391    0.017253    0.018651    0.022515
 Highest eigenvalues
    2.085335    2.157224    2.172314    2.434759    2.689792    3.099384


........................................................................
.............................. CYCLE   21 ..............................
........................................................................

 iter      E             dE          RMSdq      gap      omega  full diag
   1    -42.6136664 -0.426137E+02  0.227E-01    0.85       0.0  T
   2    -42.6079409  0.572555E-02  0.390E-01    0.61       1.0  T
   3    -42.6116440 -0.370309E-02  0.265E-01    0.93       1.0  T
   4    -42.6139125 -0.226848E-02  0.566E-02    0.82       1.0  T
   5    -42.6139750 -0.625232E-04  0.202E-02    0.81       1.0  T
   6    -42.6139876 -0.126090E-04  0.621E-03    0.81       3.2  T
   7    -42.6139881 -0.526514E-06  0.286E-03    0.81       7.0  T
   8    -42.6139883 -0.141129E-06  0.571E-04    0.81      35.0  T
   9    -42.6139883 -0.545727E-08  0.256E-04    0.81      78.0  T
     SCC iter.                  ...        0 min,  0.012 sec
     gradient                   ...        0 min,  0.013 sec
 * total energy  :   -42.0524184 Eh     change       -0.4862088E-02 Eh
   gradient norm :     0.0566865 Eh/α   predicted     0.0000000E+00 (-100.00%)
   displ. norm   :     0.4723973 α      lambda       -0.1254848E-01
   maximum displ.:     0.2556450 α      in ANC's #7, #15, #18, ...

........................................................................
.............................. CYCLE   22 ..............................
........................................................................

 iter      E             dE          RMSdq      gap      omega  full diag
   1    -42.6223588 -0.426224E+02  0.309E-01    0.86       0.0  T
   2    -42.6190632  0.329564E-02  0.330E-01    0.68       1.0  T
   3    -42.6139284  0.513479E-02  0.483E-01    1.08       1.0  T
   4    -42.6226628 -0.873444E-02  0.683E-02    0.83       1.0  T
   5    -42.6227235 -0.606699E-04  0.170E-02    0.82       1.2  T
   6    -42.6227273 -0.385745E-05  0.108E-02    0.82       1.8  T
   7    -42.6227307 -0.335915E-05  0.324E-03    0.82       6.2  T
   8    -42.6227307 -0.219380E-07  0.178E-03    0.82      11.3  T
   9    -42.6227308 -0.516080E-07  0.529E-04    0.82      37.8  T
  10    -42.6227308 -0.279290E-08  0.246E-04    0.82      81.4  T
     SCC iter.                  ...        0 min,  0.014 sec
     gradient                   ...        0 min,  0.013 sec
 * total energy  :   -42.0618685 Eh     change       -0.9450079E-02 Eh
   gradient norm :     0.0385051 Eh/α   predicted    -0.7674709E-02 ( -18.79%)
   displ. norm   :     0.7122276 α      lambda       -0.1450498E-01
   maximum displ.:     0.3425223 α      in ANC's #15, #7, #11, ...

........................................................................
.............................. CYCLE   23 ..............................
........................................................................

 iter      E             dE          RMSdq      gap      omega  full diag
   1    -42.6277207 -0.426277E+02  0.492E-01    0.83       0.0  T
   2    -42.6274277  0.293046E-03  0.308E-01    0.91       1.0  T
   3    -42.6017914  0.256363E-01  0.802E-01    0.44       1.0  T
   4    -42.6270108 -0.252194E-01  0.213E-01    0.91       1.0  T
   5    -42.6283111 -0.130031E-02  0.458E-02    0.83       1.0  T
   6    -42.6283714 -0.603006E-04  0.995E-03    0.83       2.0  T
   7    -42.6283731 -0.168452E-05  0.469E-03    0.83       4.3  T
   8    -42.6283731 -0.614244E-07  0.206E-03    0.83       9.7  T
   9    -42.6283732 -0.568907E-07  0.751E-04    0.83      26.6  T
  10    -42.6283732 -0.550402E-08  0.390E-04    0.83      51.3  T
     SCC iter.                  ...        0 min,  0.014 sec
     gradient                   ...        0 min,  0.012 sec
 * total energy  :   -42.0681474 Eh     change       -0.6278873E-02 Eh
   gradient norm :     0.0596861 Eh/α   predicted    -0.1093150E-01 (  74.10%)
   displ. norm   :     0.4370629 α      lambda       -0.9526717E-02
   maximum displ.:     0.2318094 α      in ANC's #15, #7, #8, ...

........................................................................
.............................. CYCLE   24 ..............................
........................................................................

 iter      E             dE          RMSdq      gap      omega  full diag
   1    -42.6325936 -0.426326E+02  0.349E-01    0.85       0.0  T
   2    -42.6328826 -0.288976E-03  0.206E-01    0.87       1.0  T
   3    -42.6305800  0.230256E-02  0.265E-01    0.72       1.0  T
   4    -42.6300654  0.514598E-03  0.289E-01    0.99       1.0  T
   5    -42.6331598 -0.309436E-02  0.413E-02    0.83       1.0  T
   6    -42.6332083 -0.485400E-04  0.726E-03    0.84       2.8  T
   7    -42.6332090 -0.640593E-06  0.374E-03    0.84       5.3  T
   8    -42.6332090 -0.166232E-07  0.132E-03    0.84      15.2  T
   9    -42.6332090 -0.227969E-07  0.484E-04    0.84      41.3  T
  10    -42.6332090 -0.113498E-08  0.250E-04    0.84      79.9  T
     SCC iter.                  ...        0 min,  0.014 sec
     gradient                   ...        0 min,  0.013 sec
 * total energy  :   -42.0755049 Eh     change       -0.7357548E-02 Eh
   gradient norm :     0.0672149 Eh/α   predicted    -0.5673273E-02 ( -22.89%)
   displ. norm   :     0.5742231 α      lambda       -0.1210986E-01
   maximum displ.:     0.3385343 α      in ANC's #15, #7, #16, ...

........................................................................
.............................. CYCLE   25 ..............................
........................................................................

 iter      E             dE          RMSdq      gap      omega  full diag
   1    -42.6244452 -0.426244E+02  0.630E-01    0.92       0.0  T
   2    -42.6276501 -0.320496E-02  0.383E-01    0.79       1.0  T
   3    -42.6257708  0.187933E-02  0.379E-01    1.02       1.0  T
   4    -42.6209910  0.477982E-02  0.476E-01    0.62       1.0  T
   5    -42.6292525 -0.826152E-02  0.113E-01    0.89       1.0  T
   6    -42.6296473 -0.394821E-03  0.139E-02    0.85       1.4  T
   7    -42.6296495 -0.217368E-05  0.727E-03    0.85       2.7  T
   8    -42.6296497 -0.176393E-06  0.245E-03    0.85       8.2  T
   9    -42.6296497 -0.462635E-07  0.937E-04    0.85      21.3  T
  10    -42.6296497 -0.244980E-08  0.430E-04    0.85      46.5  T
     SCC iter.                  ...        0 min,  0.014 sec
     gradient                   ...        0 min,  0.013 sec
 * total energy  :   -42.0871723 Eh     change       -0.1166735E-01 Eh
   gradient norm :     0.0888142 Eh/α   predicted    -0.8051446E-02 ( -30.99%)
   displ. norm   :     0.8047091 α      lambda       -0.2510923E-01
   maximum displ.:     0.4962632 α      in ANC's #15, #7, #60, ...

........................................................................
.............................. CYCLE   26 ..............................
........................................................................

 iter      E             dE          RMSdq      gap      omega  full diag
   1    -42.6153779 -0.426154E+02  0.958E-01    1.15       0.0  T
   2    -42.5412137  0.741641E-01  0.162E+00    0.23       1.0  T
   3    -42.6003618 -0.591481E-01  0.997E-01    1.45       1.0  T
   4    -42.6314892 -0.311274E-01  0.295E-01    0.95       1.0  T
   5    -42.6312399  0.249268E-03  0.191E-01    0.94       1.0  T
   6    -42.6323075 -0.106760E-02  0.397E-02    0.90       1.0  T
   7    -42.6323420 -0.344916E-04  0.161E-02    0.92       1.2  T
   8    -42.6323442 -0.221272E-05  0.886E-03    0.92       2.3  T
   9    -42.6323455 -0.122373E-05  0.494E-03    0.92       4.0  T
  10    -42.6323462 -0.746037E-06  0.105E-03    0.92      19.0  T
  11    -42.6323462  0.996948E-09  0.569E-04    0.92      35.1  T
  12    -42.6323462 -0.869912E-08  0.156E-04    0.92     128.3  T
     SCC iter.                  ...        0 min,  0.016 sec
     gradient                   ...        0 min,  0.013 sec
 * total energy  :   -42.0938280 Eh     change       -0.6655678E-02 Eh
   gradient norm :     0.1362056 Eh/α   predicted    -0.2068445E-01 ( 210.78%)
   displ. norm   :     0.4597007 α      lambda       -0.2629616E-01
   maximum displ.:     0.2800570 α      in ANC's #15, #9, #10, ...

........................................................................
.............................. CYCLE   27 ..............................
........................................................................

 iter      E             dE          RMSdq      gap      omega  full diag
   1    -42.6319070 -0.426319E+02  0.487E-01    1.00       0.0  T
   2    -42.6287753  0.313173E-02  0.509E-01    0.77       1.0  T
   3    -42.6260528  0.272248E-02  0.535E-01    1.25       1.0  T
   4    -42.6352538 -0.920097E-02  0.181E-01    0.90       1.0  T
   5    -42.6357372 -0.483367E-03  0.382E-02    0.96       1.0  T
   6    -42.6357783 -0.411757E-04  0.102E-02    0.96       2.0  T
   7    -42.6357790 -0.677940E-06  0.527E-03    0.96       3.8  T
   8    -42.6357792 -0.174942E-06  0.231E-03    0.96       8.6  T
   9    -42.6357793 -0.805237E-07  0.841E-04    0.96      23.8  T
  10    -42.6357793 -0.810586E-08  0.381E-04    0.96      52.5  T
     SCC iter.                  ...        0 min,  0.013 sec
     gradient                   ...        0 min,  0.013 sec
 * total energy  :   -42.1020249 Eh     change       -0.8196981E-02 Eh
   gradient norm :     0.1028866 Eh/α   predicted    -0.1592660E-01 (  94.30%)
   displ. norm   :     0.5634171 α      lambda       -0.1375251E-01
   maximum displ.:     0.3069505 α      in ANC's #15, #7, #18, ...

........................................................................
.............................. CYCLE   28 ..............................
........................................................................

 iter      E             dE          RMSdq      gap      omega  full diag
   1    -42.6161831 -0.426162E+02  0.520E-01    0.71       0.0  T
   2    -42.5840283  0.321547E-01  0.992E-01    1.44       1.0  T
   3    -42.6185872 -0.345588E-01  0.294E-01    0.76       1.0  T
   4    -42.6196639 -0.107677E-02  0.126E-01    0.87       1.0  T
   5    -42.6199260 -0.262032E-03  0.345E-02    0.86       1.0  T
   6    -42.6199537 -0.277124E-04  0.109E-02    0.86       1.8  T
   7    -42.6199542 -0.477614E-06  0.582E-03    0.86       3.4  T
   8    -42.6199544 -0.284030E-06  0.248E-03    0.86       8.1  T
   9    -42.6199545 -0.108498E-06  0.865E-04    0.86      23.1  T
  10    -42.6199546 -0.512643E-08  0.490E-04    0.86      40.8  T
     SCC iter.                  ...        0 min,  0.014 sec
     gradient                   ...        0 min,  0.013 sec
 * total energy  :   -42.1002695 Eh     change        0.1755474E-02 Eh
   gradient norm :     0.0967772 Eh/α   predicted    -0.9059038E-02 (-616.05%)
   displ. norm   :     0.3124708 α      lambda       -0.1790825E-01
   maximum displ.:     0.1784983 α      in ANC's #7, #60, #18, ...

........................................................................
.............................. CYCLE   29 ..............................
........................................................................

 iter      E             dE          RMSdq      gap      omega  full diag
   1    -42.6364840 -0.426365E+02  0.401E-01    1.09       0.0  T
   2    -42.6103040  0.261800E-01  0.892E-01    0.53       1.0  T
   3    -42.6371886 -0.268845E-01  0.260E-01    1.06       1.0  T
   4    -42.6386056 -0.141700E-02  0.100E-01    0.96       1.0  T
   5    -42.6387482 -0.142603E-03  0.282E-02    0.95       1.0  T
   6    -42.6387660 -0.177917E-04  0.101E-02    0.95       2.0  T
   7    -42.6387666 -0.604125E-06  0.456E-03    0.95       4.4  T
   8    -42.6387669 -0.379203E-06  0.147E-03    0.95      13.6  T
   9    -42.6387670 -0.320901E-07  0.581E-04    0.95      34.4  T
  10    -42.6387670 -0.179152E-08  0.279E-04    0.95      71.6  T
     SCC iter.                  ...        0 min,  0.013 sec
     gradient                   ...        0 min,  0.013 sec
 * total energy  :   -42.1124106 Eh     change       -0.1214114E-01 Eh
   gradient norm :     0.0474919 Eh/α   predicted    -0.9828435E-02 ( -19.05%)
   displ. norm   :     0.2456211 α      lambda       -0.6065635E-02
   maximum displ.:     0.1096861 α      in ANC's #9, #8, #10, ...

........................................................................
.............................. CYCLE   30 ..............................
........................................................................

 iter      E             dE          RMSdq      gap      omega  full diag
   1    -42.6476222 -0.426476E+02  0.258E-01    1.08       0.0  T
   2    -42.6403606  0.726155E-02  0.470E-01    0.78       1.0  T
   3    -42.6471056 -0.674502E-02  0.214E-01    1.11       1.0  T
   4    -42.6482202 -0.111454E-02  0.644E-02    1.03       1.0  T
   5    -42.6482991 -0.788993E-04  0.210E-02    1.01       1.0  T
   6    -42.6483094 -0.103067E-04  0.622E-03    1.01       3.2  T
   7    -42.6483097 -0.302150E-06  0.257E-03    1.01       7.8  T
   8    -42.6483097 -0.551085E-07  0.108E-03    1.01      18.5  T
   9    -42.6483098 -0.241504E-07  0.541E-04    1.01      37.0  T
  10    -42.6483098 -0.407264E-08  0.218E-04    1.01      91.8  T
     SCC iter.                  ...        0 min,  0.014 sec
     gradient                   ...        0 min,  0.013 sec
 * total energy  :   -42.1156402 Eh     change       -0.3229608E-02 Eh
   gradient norm :     0.0352698 Eh/α   predicted    -0.3215797E-02 (  -0.43%)
   displ. norm   :     0.3078379 α      lambda       -0.2631900E-02
   maximum displ.:     0.2353149 α      in ANC's #7, #10, #14, ...

........................................................................
.............................. CYCLE   31 ..............................
........................................................................

 iter      E             dE          RMSdq      gap      omega  full diag
   1    -42.6520877 -0.426521E+02  0.165E-01    1.03       0.0  T
   2    -42.6521261 -0.383875E-04  0.102E-01    1.03       1.0  T
   3    -42.6519942  0.131856E-03  0.739E-02    1.05       1.0  T
   4    -42.6516484  0.345821E-03  0.117E-01    0.97       1.0  T
   5    -42.6521525 -0.504114E-03  0.131E-02    1.03       1.5  T
   6    -42.6521563 -0.383790E-05  0.585E-03    1.03       3.4  T
   7    -42.6521566 -0.303944E-06  0.204E-03    1.03       9.8  T
   8    -42.6521567 -0.627447E-07  0.437E-04    1.03      45.7  T
   9    -42.6521567 -0.209523E-08  0.229E-04    1.03      87.3  T
     SCC iter.                  ...        0 min,  0.012 sec
     gradient                   ...        0 min,  0.013 sec
 * total energy  :   -42.1170666 Eh     change       -0.1426398E-02 Eh
   gradient norm :     0.0213006 Eh/α   predicted    -0.1440662E-02 (   1.00%)
   displ. norm   :     0.2259236 α      lambda       -0.1719023E-02
   maximum displ.:     0.0984029 α      in ANC's #10, #7, #9, ...

........................................................................
.............................. CYCLE   32 ..............................
........................................................................

 iter      E             dE          RMSdq      gap      omega  full diag
   1    -42.6511835 -0.426512E+02  0.137E-01    1.04       0.0  T
   2    -42.6510487  0.134817E-03  0.107E-01    1.00       1.0  T
   3    -42.6499371  0.111162E-02  0.197E-01    1.14       1.0  T
   4    -42.6511978 -0.126074E-02  0.396E-02    1.02       1.0  T
   5    -42.6512454 -0.475657E-04  0.113E-02    1.04       1.8  T
   6    -42.6512485 -0.307827E-05  0.456E-03    1.04       4.4  T
   7    -42.6512485 -0.628728E-07  0.212E-03    1.04       9.4  T
   8    -42.6512486 -0.893941E-07  0.426E-04    1.04      47.0  T
   9    -42.6512486 -0.267524E-08  0.203E-04    1.04      98.5  T
     SCC iter.                  ...        0 min,  0.012 sec
     gradient                   ...        0 min,  0.012 sec
 * total energy  :   -42.1178941 Eh     change       -0.8274753E-03 Eh
   gradient norm :     0.0174945 Eh/α   predicted    -0.9033893E-03 (   9.17%)
   displ. norm   :     0.1682496 α      lambda       -0.7248080E-03
   maximum displ.:     0.0907476 α      in ANC's #10, #9, #7, ...

........................................................................
.............................. CYCLE   33 ..............................
........................................................................

 iter      E             dE          RMSdq      gap      omega  full diag
   1    -42.6508514 -0.426509E+02  0.758E-02    1.03       0.0  T
   2    -42.6508654 -0.140211E-04  0.482E-02    1.03       1.0  T
   3    -42.6508615  0.389658E-05  0.314E-02    1.03       1.0  T
   4    -42.6508019  0.596161E-04  0.452E-02    1.06       1.0  T
   5    -42.6508742 -0.723033E-04  0.983E-03    1.03       2.0  T
   6    -42.6508778 -0.352915E-05  0.158E-03    1.03      12.6  T
   7    -42.6508778 -0.151792E-07  0.747E-04    1.03      26.8  T
   8    -42.6508778 -0.347855E-08  0.209E-04    1.03      95.9  T
     SCC iter.                  ...        0 min,  0.011 sec
     gradient                   ...        0 min,  0.013 sec
 * total energy  :   -42.1183577 Eh     change       -0.4635955E-03 Eh
   gradient norm :     0.0102813 Eh/α   predicted    -0.3726722E-03 ( -19.61%)
   displ. norm   :     0.1661314 α      lambda       -0.3836348E-03
   maximum displ.:     0.0777192 α      in ANC's #10, #9, #7, ...

........................................................................
.............................. CYCLE   34 ..............................
........................................................................

 iter      E             dE          RMSdq      gap      omega  full diag
   1    -42.6505530 -0.426506E+02  0.765E-02    1.03       0.0  T
   2    -42.6505108  0.421763E-04  0.565E-02    1.01       1.0  T
   3    -42.6500862  0.424658E-03  0.116E-01    1.09       1.0  T
   4    -42.6505476 -0.461440E-03  0.230E-02    1.02       1.0  T
   5    -42.6505633 -0.156992E-04  0.314E-03    1.03       6.4  T
   6    -42.6505635 -0.235257E-06  0.120E-03    1.03      16.7  T
   7    -42.6505635 -0.815438E-08  0.392E-04    1.03      51.0  T
   8    -42.6505635 -0.167022E-08  0.125E-04    1.03     160.6  T
     SCC iter.                  ...        0 min,  0.011 sec
     gradient                   ...        0 min,  0.012 sec
 * total energy  :   -42.1186098 Eh     change       -0.2521514E-03 Eh
   gradient norm :     0.0082445 Eh/α   predicted    -0.1971156E-03 ( -21.83%)
   displ. norm   :     0.1473212 α      lambda       -0.2231291E-03
   maximum displ.:     0.0819734 α      in ANC's #2, #9, #10, ...

........................................................................
.............................. CYCLE   35 ..............................
........................................................................

 iter      E             dE          RMSdq      gap      omega  full diag
   1    -42.6486692 -0.426487E+02  0.799E-02    1.04       0.0  T
   2    -42.6484676  0.201629E-03  0.908E-02    0.99       1.0  T
   3    -42.6484731 -0.557111E-05  0.859E-02    1.07       1.0  T
   4    -42.6486740 -0.200901E-03  0.279E-02    1.03       1.0  T
   5    -42.6486989 -0.248591E-04  0.378E-03    1.03       5.3  T
   6    -42.6486993 -0.374079E-06  0.107E-03    1.03      18.7  T
   7    -42.6486993 -0.176932E-08  0.612E-04    1.03      32.7  T
   8    -42.6486993 -0.510129E-08  0.182E-04    1.03     109.8  T
     SCC iter.                  ...        0 min,  0.011 sec
     gradient                   ...        0 min,  0.013 sec
 * total energy  :   -42.1186930 Eh     change       -0.8317193E-04 Eh
   gradient norm :     0.0058369 Eh/α   predicted    -0.1139897E-03 (  37.05%)
   displ. norm   :     0.0881793 α      lambda       -0.1280556E-03
   maximum displ.:     0.0443614 α      in ANC's #2, #1, #7, ...

........................................................................
.............................. CYCLE   36 ..............................
........................................................................

 iter      E             dE          RMSdq      gap      omega  full diag
   1    -42.6507400 -0.426507E+02  0.615E-02    1.03       0.0  T
   2    -42.6507375  0.244138E-05  0.404E-02    1.03       1.0  T
   3    -42.6506135  0.124038E-03  0.613E-02    1.06       1.0  T
   4    -42.6506754 -0.618658E-04  0.426E-02    1.01       1.0  T
   5    -42.6507454 -0.700662E-04  0.199E-03    1.03      10.1  T
   6    -42.6507455 -0.707053E-07  0.742E-04    1.03      26.9  T
   7    -42.6507455 -0.335249E-08  0.363E-04    1.03      55.2  T
     SCC iter.                  ...        0 min,  0.010 sec
     gradient                   ...        0 min,  0.013 sec
 * total energy  :   -42.1187504 Eh     change       -0.5741407E-04 Eh
   gradient norm :     0.0040232 Eh/α   predicted    -0.6452814E-04 (  12.39%)
   displ. norm   :     0.0522470 α      lambda       -0.4612618E-04
   maximum displ.:     0.0274829 α      in ANC's #2, #1, #9, ...

........................................................................
.............................. CYCLE   37 ..............................
........................................................................

 iter      E             dE          RMSdq      gap      omega  full diag
   1    -42.6505880 -0.426506E+02  0.389E-02    1.03       0.0  T
   2    -42.6505857  0.235802E-05  0.241E-02    1.03       1.0  T
   3    -42.6504486  0.137079E-03  0.610E-02    1.06       1.0  T
   4    -42.6505883 -0.139664E-03  0.280E-03    1.03       7.2  T
   5    -42.6505885 -0.269357E-06  0.782E-04    1.03      25.6  T
   6    -42.6505886 -0.176834E-07  0.301E-04    1.03      66.4  T
     SCC iter.                  ...        0 min,  0.008 sec
     gradient                   ...        0 min,  0.013 sec
 * total energy  :   -42.1187870 Eh     change       -0.3652663E-04 Eh
   gradient norm :     0.0032205 Eh/α   predicted    -0.2313253E-04 ( -36.67%)
   displ. norm   :     0.1360199 α      lambda       -0.7658165E-04
   maximum displ.:     0.0835717 α      in ANC's #2, #1, #4, ...

   *** GEOMETRY OPTIMIZATION CONVERGED AFTER 37 ITERATIONS ***

------------------------------------------------------------------------
 total energy gain   :        -9.2790725 Eh    -5822.7059 kcal/mol
 total RMSD          :         1.4039789 a0        0.7430 Å
 total power (kW/mol):      -658.4378810 (step)********** (real)
------------------------------------------------------------------------

 ANCopt (total)                0 d,  0 h,  0 min,  1.204 sec
 optimizer setup                ...        0 min,  0.000 sec (  0.027%)
 model hessian                  ...        0 min,  0.012 sec (  0.980%)
 ANC generation                 ...        0 min,  0.002 sec (  0.128%)
 coordinate transformation      ...        0 min,  0.000 sec (  0.028%)
 single point calculation       ...        0 min,  1.178 sec ( 97.844%)
 optimization log               ...        0 min,  0.004 sec (  0.308%)
 hessian update                 ...        0 min,  0.001 sec (  0.043%)
 rational function              ...        0 min,  0.006 sec (  0.491%)

================
 final structure:
================
25
 xtb: 6.6.1 (8d0f1dd)
C            3.56664833371408        0.85581700817560        0.04006828671998
N            2.58106046960182       -0.19154518898808       -0.00126391626432
C            2.79422604211373       -1.49639113302420       -0.06775311730332
N            1.61455704249708       -2.15470565470587       -0.06198853059249
C            0.61012656855824       -1.22590402301903        0.01034978050715
C            1.23043622802366        0.01680400406464        0.04893643593074
C            0.41827270474609        1.25367898208942        0.08097509189035
O            0.91745132398017        2.35906943850308        0.08464669425503
N           -0.89613640239359        0.98524227430719        0.09083670683171
C           -3.86105167219398        3.18694531401195       -0.10156052087207
C           -1.53218026308841       -0.17605637307284        0.07559623445647
O           -2.72762952642668       -0.31504968235874        0.08629320501334
N           -0.71160808344896       -1.39369505190132        0.03448580198372
C           -1.35627258700990       -2.68406890065733        0.01963113275668
H            4.00656746852396        0.91959509565977        1.03645930543389
H            4.35518938791706        0.66657453096211       -0.68517683849838
H            3.06967579826055        1.80209834706081       -0.17789955865954
H            3.75609026336685       -1.96774114003418       -0.12329055663097
H           -3.10014438328410        3.94311438129834       -0.09448690148091
H           -4.19470761223641        2.76681496667553       -1.03062734052813
H           -4.27428019566539        2.82950398198854        0.82140416623444
H           -1.05692869080944       -3.27565355522823        0.88617117957658
H           -1.12558985061087       -3.22477285311536       -0.89975781188731
H           -2.43041609160100       -2.50314782369355        0.06494127608159
H            1.50707524158455       -3.15828840342333       -0.10581858707843

 Bond Distances (Angstroems)
 ---------------------------
C1-N2=1.4388         C1-H15=1.0911        C1-H16=1.0879        C1-H17=1.0908        N2-C1=1.4388         N2-C3=1.3238         
N2-C6=1.3675         C3-N2=1.3238         C3-N4=1.3509         C3-H18=1.0726        N4-C3=1.3509         N4-C5=1.3700         
N4-H25=1.0103        C5-N4=1.3700         C5-C6=1.3895         C5-N13=1.3326        C6-N2=1.3675         C6-C5=1.3895         
C6-C7=1.4800         C7-C6=1.4800         C7-O8=1.2129         C7-N9=1.3416         O8-C7=1.2129         N9-C7=1.3416         
N9-C11=1.3242        C10-H19=1.0728       C10-H20=1.0728       C10-H21=1.0726       C11-N9=1.3242        C11-O12=1.2036       
C11-N13=1.4689       O12-C11=1.2036       N13-C5=1.3326        N13-C11=1.4689       N13-C14=1.4425       C14-N13=1.4425       
C14-H22=1.0911       C14-H23=1.0913       C14-H24=1.0902       H15-C1=1.0911        H16-C1=1.0879        H17-C1=1.0908        
H18-C3=1.0726        H19-C10=1.0728       H20-C10=1.0728       H21-C10=1.0726       H22-C14=1.0911       H23-C14=1.0913       
H24-C14=1.0902       H25-N4=1.0103        
 C  H  Rav=1.0833 sigma=0.0087  Rmin=1.0726  Rmax=1.0913    10
 C  C  Rav=1.4347 sigma=0.0453  Rmin=1.3895  Rmax=1.4800     2
 N  H  Rav=1.0103 sigma=0.0000  Rmin=1.0103  Rmax=1.0103     1
 N  C  Rav=1.3761 sigma=0.0512  Rmin=1.3238  Rmax=1.4689    10
 O  C  Rav=1.2082 sigma=0.0047  Rmin=1.2036  Rmax=1.2129     2

 selected bond angles (degree)
 --------------------
H15-C1-N2=110.18               H16-C1-N2=110.53               H16-C1-H15=109.07              H17-C1-N2=108.28               
H17-C1-H15=108.39              H17-C1-H16=110.36              C3-N2-C1=127.49                C6-N2-C1=124.37                
C6-N2-C3=108.12                N4-C3-N2=109.85                H18-C3-N2=125.46               H18-C3-N4=124.69               
C5-N4-C3=108.06                H25-N4-C3=125.23               H25-N4-C5=126.71               C6-C5-N4=106.29                
N13-C5-N4=130.00               N13-C5-C6=123.71               C5-C6-N2=107.68                C7-C6-N2=132.07                
C7-C6-C5=120.20                O8-C7-C6=122.40                N9-C7-C6=111.75                N9-C7-O8=125.84                
C11-N9-C7=130.24               H20-C10-H19=120.15             H21-C10-H19=120.17             H21-C10-H20=119.66             

 selected dihedral angles (degree)
 ---------------------------------
C3-N2-C1-H15=283.31           C3-N2-C1-H16= 43.93           C3-N2-C1-H17=164.92           C6-N2-C1-H15=102.00           
C6-N2-C1-H16=222.62           C6-N2-C1-H17=343.61           N4-C3-N2-C1=178.83            N4-C3-N2-C6=359.97            
H18-C3-N2-C1=358.54           H18-C3-N2-C6=179.68           C5-N4-C3-N2=  0.05            C5-N4-C3-H18=180.34           
H25-N4-C3-N2=179.93           H25-N4-C3-H18=  0.22          C6-C5-N4-C3=359.96            C6-C5-N4-H25=180.07           
N13-C5-N4-C3=179.54           N13-C5-N4-H25=359.66          C5-C6-N2-C1=181.09            C5-C6-N2-C3=  0.00            
C7-C6-N2-C1=  3.67            C7-C6-N2-C3=182.57            N2-C6-C5-N4=  0.03            N2-C6-C5-N13=180.41           
C7-C6-C5-N4=177.82            C7-C6-C5-N13=358.20           O8-C7-C6-N2=358.87            O8-C7-C6-C5=181.70            
N9-C7-C6-N2=178.24            N9-C7-C6-C5=  1.08            C11-N9-C7-C6=359.95           C11-N9-C7-O8=179.30           
           -------------------------------------------------
          |                Final Singlepoint                |
           -------------------------------------------------

          ...................................................
          :                      SETUP                      :
          :.................................................:
          :  # basis functions                  67          :
          :  # atomic orbitals                  67          :
          :  # shells                           39          :
          :  # electrons                        74          :
          :  max. iterations                   250          :
          :  Hamiltonian                  GFN2-xTB          :
          :  restarted?                      false          :
          :  GBSA solvation                  false          :
          :  PC potential                    false          :
          :  electronic temp.         5000.0000000     K    :
          :  accuracy                    1.0000000          :
          :  -> integral cutoff          0.2500000E+02      :
          :  -> integral neglect         0.1000000E-07      :
          :  -> SCF convergence          0.1000000E-05 Eh   :
          :  -> wf. convergence          0.1000000E-03 e    :
          :  Broyden damping             0.4000000          :
          ...................................................

 iter      E             dE          RMSdq      gap      omega  full diag
   1    -42.6505886 -0.426506E+02  0.144E-04    1.03       0.0  T
   2    -42.6505886 -0.576250E-11  0.117E-04    1.03     171.2  T
   3    -42.6505886  0.796021E-10  0.106E-04    1.03     187.9  T

   *** convergence criteria satisfied after 3 iterations ***

         #    Occupation            Energy/Eh            Energy/eV
      -------------------------------------------------------------
         1        2.0000           -0.9095122             -24.7491
       ...           ...                  ...                  ...
        31        1.9981           -0.6123923             -16.6640
        32        1.9980           -0.6120750             -16.6554
        33        1.9707           -0.5692267             -15.4894
        34        1.9063           -0.5503065             -14.9746
        35        1.9054           -0.5501542             -14.9705
        36        1.8662           -0.5443410             -14.8123
        37        1.6859           -0.5292114             -14.4006 (HOMO)
        38        0.6574           -0.4912999             -13.3690 (LUMO)
        39        0.0165           -0.4267449             -11.6123
        40        0.0013           -0.3864332             -10.5154
        41        0.0002           -0.3572836              -9.7222
        42        0.0000           -0.2605339              -7.0895
       ...           ...                  ...                  ...
        67                          0.5687746              15.4771
      -------------------------------------------------------------
                  HL-Gap            0.0379115 Eh            1.0316 eV
             Fermi-level           -0.5026071 Eh          -13.6766 eV

 SCC (total)                   0 d,  0 h,  0 min,  0.023 sec
 SCC setup                      ...        0 min,  0.000 sec (  0.877%)
 Dispersion                     ...        0 min,  0.000 sec (  0.760%)
 classical contributions        ...        0 min,  0.000 sec (  0.322%)
 integral evaluation            ...        0 min,  0.004 sec ( 19.610%)
 iterations                     ...        0 min,  0.005 sec ( 20.296%)
 molecular gradient             ...        0 min,  0.013 sec ( 57.544%)
 printout                       ...        0 min,  0.000 sec (  0.542%)

         :::::::::::::::::::::::::::::::::::::::::::::::::::::
         ::                     SUMMARY                     ::
         :::::::::::::::::::::::::::::::::::::::::::::::::::::
         :: total energy             -42.118786954509 Eh    ::
         :: gradient norm              0.003224834899 Eh/a0 ::
         :: HOMO-LUMO gap              1.031624500395 eV    ::
         ::.................................................::
         :: SCC energy               -42.650588559389 Eh    ::
         :: -> isotropic ES            0.141509926057 Eh    ::
         :: -> anisotropic ES         -0.007713650124 Eh    ::
         :: -> anisotropic XC          0.019094766649 Eh    ::
         :: -> dispersion             -0.020851353872 Eh    ::
         :: repulsion energy           0.531761093250 Eh    ::
         :: add. restraining           0.000000229177 Eh    ::
         :: total charge               1.000000000000 e     ::
         :::::::::::::::::::::::::::::::::::::::::::::::::::::

           -------------------------------------------------
          |                Property Printout                |
           -------------------------------------------------

    * Orbital Energies and Occupations

         #    Occupation            Energy/Eh            Energy/eV
      -------------------------------------------------------------
         1        2.0000           -0.9095122             -24.7491
       ...           ...                  ...                  ...
        25        1.9998           -0.6529335             -17.7672
        26        1.9998           -0.6455818             -17.5672
        27        1.9994           -0.6306871             -17.1619
        28        1.9986           -0.6172410             -16.7960
        29        1.9985           -0.6164443             -16.7743
        30        1.9983           -0.6141144             -16.7109
        31        1.9981           -0.6123923             -16.6640
        32        1.9980           -0.6120750             -16.6554
        33        1.9707           -0.5692267             -15.4894
        34        1.9063           -0.5503065             -14.9746
        35        1.9054           -0.5501542             -14.9705
        36        1.8662           -0.5443410             -14.8123
        37        1.6859           -0.5292114             -14.4006 (HOMO)
        38        0.6574           -0.4912999             -13.3690 (LUMO)
        39        0.0165           -0.4267449             -11.6123
        40        0.0013           -0.3864332             -10.5154
        41        0.0002           -0.3572836              -9.7222
        42        0.0000           -0.2605339              -7.0895
        43                         -0.1950954              -5.3088
        44                         -0.1735899              -4.7236
        45                         -0.1387948              -3.7768
        46                         -0.0817064              -2.2233
        47                         -0.0554501              -1.5089
        48                         -0.0351787              -0.9573
       ...                                ...                  ...
        67                          0.5687746              15.4771
      -------------------------------------------------------------
                  HL-Gap            0.0379115 Eh            1.0316 eV
             Fermi-level           -0.5026071 Eh          -13.6766 eV

     #   Z          covCN         q      C6AA      α(0)
     1   6 C        3.692    -0.094    22.481     6.784
     2   7 N        2.834     0.089    19.692     6.591
     3   6 C        3.059     0.056    26.682     8.471
     4   7 N        2.799    -0.064    22.484     7.043
     5   6 C        3.031     0.123    25.274     8.246
     6   6 C        3.134    -0.018    28.227     8.697
     7   6 C        2.761     0.299    21.923     7.668
     8   8 O        0.858    -0.339    20.502     6.071
     9   7 N        1.843    -0.250    27.361     7.752
    10   6 C        2.779    -0.064    29.564     8.906
    11   6 C        2.708     0.337    21.278     7.550
    12   8 O        0.860    -0.348    20.671     6.096
    13   7 N        2.735    -0.070    22.603     7.061
    14   6 C        3.693    -0.066    21.957     6.705
    15   1 H        0.924     0.112     1.677     2.025
    16   1 H        0.925     0.105     1.738     2.062
    17   1 H        0.924     0.140     1.458     1.888
    18   1 H        0.926     0.125     1.573     1.961
    19   1 H        0.926     0.136     1.487     1.907
    20   1 H        0.926     0.135     1.495     1.912
    21   1 H        0.926     0.137     1.483     1.904
    22   1 H        0.924     0.080     1.975     2.198
    23   1 H        0.924     0.081     1.973     2.197
    24   1 H        0.924     0.126     1.562     1.955
    25   1 H        0.860     0.229     0.969     1.542

 Mol. C6AA /au·bohr⁶  :       6643.177205
 Mol. C8AA /au·bohr⁸  :     153032.348007
 Mol. α(0) /au        :        125.189395


Wiberg/Mayer (AO) data.
largest (>0.10) Wiberg bond orders for each atom

 ---------------------------------------------------------------------------
     #   Z sym  total        # sym  WBO       # sym  WBO       # sym  WBO
 ---------------------------------------------------------------------------
     1   6 C    3.908 --     2 N    0.984    16 H    0.965    17 H    0.955
                            15 H    0.952
     2   7 N    3.717 --     3 C    1.406     6 C    1.182     1 C    0.984
     3   6 C    3.885 --     2 N    1.406     4 N    1.284    18 H    0.952
     4   7 N    3.590 --     3 C    1.284     5 C    1.171    25 H    0.919
     5   6 C    3.950 --     6 C    1.338    13 N    1.266     4 N    1.171
     6   6 C    3.807 --     5 C    1.338     2 N    1.182     7 C    0.990
     7   6 C    3.947 --     8 O    1.641     9 N    1.235     6 C    0.990
     8   8 O    1.933 --     7 C    1.641     9 N    0.133
     9   7 N    2.862 --    11 C    1.282     7 C    1.235     8 O    0.133
                            12 O    0.115
    10   6 C    2.937 --    20 H    0.979    19 H    0.979    21 H    0.978
    11   6 C    3.946 --    12 O    1.669     9 N    1.282    13 N    0.914
    12   8 O    1.968 --    11 C    1.669     9 N    0.115
    13   7 N    3.463 --     5 C    1.266    14 C    0.987    11 C    0.914
    14   6 C    3.918 --    13 N    0.987    22 H    0.964    23 H    0.964
                            24 H    0.960
    15   1 H    0.985 --     1 C    0.952
    16   1 H    0.987 --     1 C    0.965
    17   1 H    0.979 --     1 C    0.955
    18   1 H    0.983 --     3 C    0.952
    19   1 H    0.980 --    10 C    0.979
    20   1 H    0.980 --    10 C    0.979
    21   1 H    0.980 --    10 C    0.978
    22   1 H    0.982 --    14 C    0.964
    23   1 H    0.982 --    14 C    0.964
    24   1 H    0.981 --    14 C    0.960
    25   1 H    0.947 --     4 N    0.919
 ---------------------------------------------------------------------------

Topologies differ in total number of bonds
Writing topology from bond orders to xtbtopo.mol

molecular dipole:
                 x           y           z       tot (Debye)
 q only:        1.806      -1.557      -0.162
   full:        2.219      -2.275      -0.178       8.091
molecular quadrupole (traceless):
                xx          xy          yy          xz          yz          zz
 q only:       25.244     -24.642       4.990       0.639      -0.283     -30.234
  q+dip:       22.295     -27.495       5.063       0.635      -0.171     -27.358
   full:       21.536     -27.767       4.433       0.758      -0.317     -25.969

           -------------------------------------------------
          |                Geometry Summary                 |
           -------------------------------------------------

      molecular mass/u    :      195.1988581
   center of mass at/Å    :        0.1550467      -0.0528981       0.0234113
  moments of inertia/u·Å² :        0.5080568E+03   0.9509589E+03   0.1447695E+04
rotational constants/cm⁻¹ :        0.3318060E-01   0.1772698E-01   0.1164446E-01

 * 23 selected distances

     #   Z          #   Z                                           value/Å
     1   6 C        2   7 N                                       1.4387702
     2   7 N        3   6 C                                       1.3238140
     3   6 C        4   7 N                                       1.3509369
     4   7 N        5   6 C                                       1.3699585
     2   7 N        6   6 C                                       1.3675217
     5   6 C        6   6 C                                       1.3894591
     7   6 C        8   8 O                                       1.2128813
     7   6 C        9   7 N                                       1.3415764
     9   7 N       11   6 C                                       1.3241597
    11   6 C       12   8 O                                       1.2035501
     5   6 C       13   7 N                                       1.3325611
    13   7 N       14   6 C                                       1.4425249 (max)
     1   6 C       15   1 H                                       1.0910508
     1   6 C       16   1 H                                       1.0879294
     1   6 C       17   1 H                                       1.0908438
     3   6 C       18   1 H                                       1.0725848
    10   6 C       19   1 H                                       1.0727636
    10   6 C       20   1 H                                       1.0728472
    10   6 C       21   1 H                                       1.0725606
    14   6 C       22   1 H                                       1.0910871
    14   6 C       23   1 H                                       1.0912614
    14   6 C       24   1 H                                       1.0902155
     4   7 N       25   1 H                                       1.0102732 (min)

 * 5 distinct bonds (by element types)

   Z      Z             #   av. dist./Å        max./Å        min./Å
   1 H    6 C          10     1.0833144     1.0912614     1.0725606
   6 C    6 C           1     1.3894591     1.3894591     1.3894591
   1 H    7 N           1     1.0102732     1.0102732     1.0102732
   6 C    7 N           9     1.3657582     1.4425249     1.3238140
   6 C    8 O           2     1.2082157     1.2128813     1.2035501


optimized geometry written to: xtbopt.xyz


           -------------------------------------------------
          | TOTAL ENERGY              -42.118786954509 Eh   |
          | GRADIENT NORM               0.003224834899 Eh/α |
          | HOMO-LUMO GAP               1.031624500395 eV   |
           -------------------------------------------------

------------------------------------------------------------------------
 * finished run on 2024/06/05 at 19:57:56.650     
------------------------------------------------------------------------
 total:
 * wall-time:     0 d,  0 h,  0 min,  1.292 sec
 *  cpu-time:     0 d,  0 h,  0 min,  1.274 sec
 * ratio c/w:     0.986 speedup
 SCF:
 * wall-time:     0 d,  0 h,  0 min,  0.035 sec
 *  cpu-time:     0 d,  0 h,  0 min,  0.035 sec
 * ratio c/w:     1.000 speedup
 ANC optimizer:
 * wall-time:     0 d,  0 h,  0 min,  1.231 sec
 *  cpu-time:     0 d,  0 h,  0 min,  1.228 sec
 * ratio c/w:     0.997 speedup

