      -----------------------------------------------------------      
     |                   =====================                   |     
     |                           x T B                           |     
     |                   =====================                   |     
     |                         S. Grimme                         |     
     |          Mulliken Center for Theoretical Chemistry        |     
     |                    University of Bonn                     |     
      -----------------------------------------------------------      

   * xtb version 6.6.1 (8d0f1dd) compiled by 'conda@1efc2f54142f' on 2023-08-01

   xtb is free software: you can redistribute it and/or modify it under
   the terms of the GNU Lesser General Public License as published by
   the Free Software Foundation, either version 3 of the License, or
   (at your option) any later version.
   
   xtb is distributed in the hope that it will be useful,
   but WITHOUT ANY WARRANTY; without even the implied warranty of
   MERCHANTABILITY or FITNESS FOR A PARTICULAR PURPOSE.  See the
   GNU Lesser General Public License for more details.
   
   Cite this work as:
   * C. Bannwarth, E. Caldeweyher, S. Ehlert, A. Hansen, P. Pracht,
     J. Seibert, S. Spicher, S. Grimme, WIREs Comput. Mol. Sci., 2020, 11,
     e01493. DOI: 10.1002/wcms.1493
   
   for GFN2-xTB:
   * C. Bannwarth, S. Ehlert and S. Grimme., J. Chem. Theory Comput., 2019,
     15, 1652-1671. DOI: 10.1021/acs.jctc.8b01176
   for GFN1-xTB:
   * S. Grimme, C. Bannwarth, P. Shushkov, J. Chem. Theory Comput., 2017,
     13, 1989-2009. DOI: 10.1021/acs.jctc.7b00118
   for GFN0-xTB:
   * P. Pracht, E. Caldeweyher, S. Ehlert, S. Grimme, ChemRxiv, 2019, preprint.
     DOI: 10.26434/chemrxiv.8326202.v1
   for GFN-FF:
   * S. Spicher and S. Grimme, Angew. Chem. Int. Ed., 2020, 59, 15665-15673.
     DOI: 10.1002/anie.202004239
   
   for ALPB and GBSA implicit solvation:
   * S. Ehlert, M. Stahn, S. Spicher, S. Grimme, J. Chem. Theory Comput.,
     2021, 17, 4250-4261. DOI: 10.1021/acs.jctc.1c00471
   
   for DFT-D4:
   * E. Caldeweyher, C. Bannwarth and S. Grimme, J. Chem. Phys., 2017,
     147, 034112. DOI: 10.1063/1.4993215
   * E. Caldeweyher, S. Ehlert, A. Hansen, H. Neugebauer, S. Spicher,
     C. Bannwarth and S. Grimme, J. Chem. Phys., 2019, 150, 154122.
     DOI: 10.1063/1.5090222
   * E. Caldeweyher, J.-M. Mewes, S. Ehlert and S. Grimme, Phys. Chem. Chem. Phys.
     2020, 22, 8499-8512. DOI: 10.1039/D0CP00502A
   
   for sTDA-xTB:
   * S. Grimme and C. Bannwarth, J. Chem. Phys., 2016, 145, 054103.
     DOI: 10.1063/1.4959605
   
   in the mass-spec context:
   * V. Asgeirsson, C. Bauer and S. Grimme, Chem. Sci., 2017, 8, 4879.
     DOI: 10.1039/c7sc00601b
   * J. Koopman and S. Grimme, ACS Omega 2019, 4, 12, 15120-15133.
     DOI: 10.1021/acsomega.9b02011
   
   for metadynamics refer to:
   * S. Grimme, J. Chem. Theory Comput., 2019, 155, 2847-2862
     DOI: 10.1021/acs.jctc.9b00143
   
   for SPH calculations refer to:
   * S. Spicher and S. Grimme, J. Chem. Theory Comput., 2021, 17, 1701-1714
     DOI: 10.1021/acs.jctc.0c01306
   
   with help from (in alphabetical order)
   P. Atkinson, C. Bannwarth, F. Bohle, G. Brandenburg, E. Caldeweyher
   M. Checinski, S. Dohm, S. Ehlert, S. Ehrlich, I. Gerasimov, C. Hölzer
   A. Katbashev, J. Koopman, C. Lavigne, S. Lehtola, F. März, M. Müller,
   F. Musil, H. Neugebauer, J. Pisarek, C. Plett, P. Pracht, F. Pultar,
   J. Seibert, P. Shushkov, S. Spicher, M. Stahn, M. Steiner, T. Strunk,
   J. Stückrath, T. Rose, and J. Unsleber
   
 * started run on 2024/04/06 at 11:13:48.494     

           -------------------------------------------------
          |                Calculation Setup                |
           -------------------------------------------------

          program call               : xtb struc.xyz --opt loose --input .xc1 --gfn2
          hostname                   : n-62-30-23
          coordinate file            : struc.xyz
          omp threads                :                     1

   ID    Z sym.   atoms
    1    7 N      1, 17
    2    6 C      2-6, 8, 9, 11-16, 18-23, 25, 26, 28-33
    3    8 O      7, 10, 24, 27
    4    1 H      34-72
constraining bond 20 49 to    5.1400000 Å, actual value:    2.7421593 Å

           -------------------------------------------------
          |                 G F N 2 - x T B                 |
           -------------------------------------------------

        Reference                      10.1021/acs.jctc.8b01176
      * Hamiltonian:
        H0-scaling (s, p, d)           1.850000    2.230000    2.230000
        zeta-weighting                 0.500000
      * Dispersion:
        s8                             2.700000
        a1                             0.520000
        a2                             5.000000
        s9                             5.000000
      * Repulsion:
        kExp                           1.500000    1.000000
        rExp                           1.000000
      * Coulomb:
        alpha                          2.000000
        third order                    shell-resolved
        anisotropic                    true
        a3                             3.000000
        a5                             4.000000
        cn-shift                       1.200000
        cn-exp                         4.000000
        max-rad                        5.000000


          ...................................................
          :                      SETUP                      :
          :.................................................:
          :  # basis functions                 171          :
          :  # atomic orbitals                 171          :
          :  # shells                          105          :
          :  # electrons                       180          :
          :  max. iterations                   250          :
          :  Hamiltonian                  GFN2-xTB          :
          :  restarted?                      false          :
          :  GBSA solvation                  false          :
          :  PC potential                    false          :
          :  electronic temp.         5000.0000000     K    :
          :  accuracy                    1.0000000          :
          :  -> integral cutoff          0.2500000E+02      :
          :  -> integral neglect         0.1000000E-07      :
          :  -> SCF convergence          0.1000000E-05 Eh   :
          :  -> wf. convergence          0.1000000E-03 e    :
          :  Broyden damping             0.4000000          :
          ...................................................

 iter      E             dE          RMSdq      gap      omega  full diag
   1   -100.5973919 -0.100597E+03  0.374E+00    3.20       0.0  T
   2   -100.7362642 -0.138872E+00  0.221E+00    1.08       1.0  T
   3   -100.7049001  0.313641E-01  0.141E+00    3.29       1.0  T
   4   -100.7721690 -0.672689E-01  0.526E-01    1.50       1.0  T
   5   -100.7894292 -0.172602E-01  0.190E-01    1.98       1.0  T
   6   -100.7911978 -0.176856E-02  0.792E-02    1.77       1.0  T
   7   -100.7914750 -0.277198E-03  0.375E-02    1.83       1.0  T
   8   -100.7914914 -0.164582E-04  0.140E-02    1.83       1.0  T
   9   -100.7914976 -0.616739E-05  0.474E-03    1.82       2.5  T
  10   -100.7914988 -0.118227E-05  0.172E-03    1.82       6.8  T
  11   -100.7914989 -0.139928E-06  0.766E-04    1.82      15.4  T
  12   -100.7914989 -0.773143E-08  0.318E-04    1.82      37.0  T

   *** convergence criteria satisfied after 12 iterations ***

         #    Occupation            Energy/Eh            Energy/eV
      -------------------------------------------------------------
         1        2.0000           -0.8078051             -21.9815
       ...           ...                  ...                  ...
        84        1.9966           -0.5157491             -14.0342
        85        1.9959           -0.5128261             -13.9547
        86        1.9840           -0.4911498             -13.3649
        87        1.9795           -0.4872543             -13.2589
        88        1.9640           -0.4782114             -13.0128
        89        1.8920           -0.4602041             -12.5228
        90        1.8557           -0.4553147             -12.3897 (HOMO)
        91        0.3166           -0.3884132             -10.5693 (LUMO)
        92        0.0218           -0.3434697              -9.3463
        93        0.0041           -0.3169887              -8.6257
        94        0.0034           -0.3139726              -8.5436
        95        0.0029           -0.3112618              -8.4699
       ...           ...                  ...                  ...
       171                          0.5822580              15.8440
      -------------------------------------------------------------
                  HL-Gap            0.0669015 Eh            1.8205 eV
             Fermi-level           -0.4148687 Eh          -11.2892 eV

 SCC (total)                   0 d,  0 h,  0 min,  0.189 sec
 SCC setup                      ...        0 min,  0.001 sec (  0.545%)
 Dispersion                     ...        0 min,  0.002 sec (  0.925%)
 classical contributions        ...        0 min,  0.000 sec (  0.227%)
 integral evaluation            ...        0 min,  0.018 sec (  9.675%)
 iterations                     ...        0 min,  0.098 sec ( 51.785%)
 molecular gradient             ...        0 min,  0.069 sec ( 36.503%)
 printout                       ...        0 min,  0.001 sec (  0.332%)

         :::::::::::::::::::::::::::::::::::::::::::::::::::::
         ::                     SUMMARY                     ::
         :::::::::::::::::::::::::::::::::::::::::::::::::::::
         :: total energy             -98.377514202734 Eh    ::
         :: gradient norm              0.641070716588 Eh/a0 ::
         :: HOMO-LUMO gap              1.820481192090 eV    ::
         ::.................................................::
         :: SCC energy              -100.791498925389 Eh    ::
         :: -> isotropic ES            0.109302908418 Eh    ::
         :: -> anisotropic ES          0.005415138735 Eh    ::
         :: -> anisotropic XC          0.042392697176 Eh    ::
         :: -> dispersion             -0.075527661009 Eh    ::
         :: repulsion energy           1.386151658689 Eh    ::
         :: add. restraining           1.026616711460 Eh    ::
         :: total charge               1.000000000108 e     ::
         :::::::::::::::::::::::::::::::::::::::::::::::::::::

      ----------------------------------------------------------- 
     |                   =====================                   |
     |                        A N C O P T                        |
     |                   =====================                   |
     |               Approximate Normal Coordinate               |
     |                Rational Function Optimizer                |
      ----------------------------------------------------------- 

          ...................................................
          :                      SETUP                      :
          :.................................................:
          :   optimization level             loose          :
          :   max. optcycles                   200          :
          :   ANC micro-cycles                  20          :
          :   degrees of freedom               210          :
          :.................................................:
          :   RF solver                   davidson          :
          :   write xtbopt.log                true          :
          :   linear?                        false          :
          :   energy convergence         0.5000000E-04 Eh   :
          :   grad. convergence          0.4000000E-02 Eh/α :
          :   maxmium RF displ.          1.0000000          :
          :   Hlow (freq-cutoff)         0.1000000E-01      :
          :   Hmax (freq-cutoff)         5.0000000          :
          :   S6 in model hess.         20.0000000          :
          ...................................................

generating ANC from model Hessian ...
Using Lindh-Hessian (1995)
 Shifting diagonal of input Hessian by    9.1037899540745523E-002
 Lowest  eigenvalues of input Hessian
    0.010000    0.062874    0.000000    0.000000    0.000000    0.000000
    0.000000    0.000000    0.091122    0.091170    0.091228    0.091360
    0.091374    0.091722    0.092090    0.092352    0.092652    0.093332
 Highest eigenvalues
    2.116935    2.126996    2.128518    2.260481    2.263266    2.268093


........................................................................
.............................. CYCLE    1 ..............................
........................................................................

 iter      E             dE          RMSdq      gap      omega  full diag
   1   -100.7914989 -0.100791E+03  0.114E-04    1.82       0.0  T
   2   -100.7914989 -0.678995E-10  0.713E-05    1.82     165.2  T
   3   -100.7914989  0.665210E-10  0.496E-05    1.82     237.5  T
     SCC iter.                  ...        0 min,  0.026 sec
     gradient                   ...        0 min,  0.069 sec
 * total energy  :   -98.3775142 Eh     change       -0.4035485E-08 Eh
   gradient norm :     0.6410708 Eh/α   predicted     0.0000000E+00 (-100.00%)
   displ. norm   :     0.7317005 α      lambda       -0.4456146E+00
   maximum displ.:     0.3932785 α      in ANC's #129, #135, #114, ...

........................................................................
.............................. CYCLE    2 ..............................
........................................................................

 iter      E             dE          RMSdq      gap      omega  full diag
   1   -100.7538737 -0.100754E+03  0.420E-01    1.75       0.0  T
   2   -100.7539681 -0.943787E-04  0.256E-01    1.91       1.0  T
   3   -100.7505943  0.337381E-02  0.187E-01    1.59       1.0  T
   4   -100.7541903 -0.359602E-02  0.393E-02    1.87       1.0  T
   5   -100.7543280 -0.137682E-03  0.897E-03    1.83       1.3  T
   6   -100.7543294 -0.138885E-05  0.433E-03    1.83       2.7  T
   7   -100.7543298 -0.374510E-06  0.135E-03    1.83       8.7  T
   8   -100.7543299 -0.102105E-06  0.507E-04    1.83      23.2  T
   9   -100.7543299 -0.728802E-08  0.212E-04    1.83      55.7  T
     SCC iter.                  ...        0 min,  0.073 sec
     gradient                   ...        0 min,  0.069 sec
 * total energy  :   -98.7489471 Eh     change       -0.3714329E+00 Eh
   gradient norm :     0.4128719 Eh/α   predicted    -0.3420977E+00 (  -7.90%)
   displ. norm   :     0.7419020 α      lambda       -0.2958916E+00
   maximum displ.:     0.3830972 α      in ANC's #129, #135, #114, ...

........................................................................
.............................. CYCLE    3 ..............................
........................................................................

 iter      E             dE          RMSdq      gap      omega  full diag
   1   -100.6676372 -0.100668E+03  0.405E-01    1.78       0.0  T
   2   -100.6678649 -0.227722E-03  0.249E-01    1.92       1.0  T
   3   -100.6661740  0.169094E-02  0.174E-01    1.71       1.0  T
   4   -100.6682144 -0.204038E-02  0.531E-02    1.91       1.0  T
   5   -100.6684839 -0.269500E-03  0.109E-02    1.85       1.1  T
   6   -100.6684892 -0.532799E-05  0.505E-03    1.85       2.3  T
   7   -100.6684896 -0.393427E-06  0.153E-03    1.85       7.7  T
   8   -100.6684897 -0.103956E-06  0.553E-04    1.85      21.3  T
   9   -100.6684897 -0.967894E-08  0.236E-04    1.85      49.8  T
     SCC iter.                  ...        0 min,  0.073 sec
     gradient                   ...        0 min,  0.069 sec
 * total energy  :   -98.9803364 Eh     change       -0.2313892E+00 Eh
   gradient norm :     0.2298278 Eh/α   predicted    -0.2293780E+00 (  -0.87%)
   displ. norm   :     0.6645934 α      lambda       -0.1476832E+00
   maximum displ.:     0.2908414 α      in ANC's #129, #83, #114, ...

........................................................................
.............................. CYCLE    4 ..............................
........................................................................

 iter      E             dE          RMSdq      gap      omega  full diag
   1   -100.5939461 -0.100594E+03  0.296E-01    1.81       0.0  T
   2   -100.5941045 -0.158437E-03  0.171E-01    1.89       1.0  T
   3   -100.5935180  0.586571E-03  0.118E-01    1.79       1.0  T
   4   -100.5943032 -0.785298E-03  0.271E-02    1.88       1.0  T
   5   -100.5943585 -0.553005E-04  0.106E-02    1.85       1.1  T
   6   -100.5943645 -0.596899E-05  0.470E-03    1.86       2.5  T
   7   -100.5943662 -0.163856E-05  0.161E-03    1.86       7.3  T
   8   -100.5943662 -0.589422E-07  0.630E-04    1.86      18.7  T
   9   -100.5943662 -0.823064E-08  0.255E-04    1.86      46.2  T
     SCC iter.                  ...        0 min,  0.073 sec
     gradient                   ...        0 min,  0.069 sec
 * total energy  :   -99.0919753 Eh     change       -0.1116390E+00 Eh
   gradient norm :     0.1190015 Eh/α   predicted    -0.1064577E+00 (  -4.64%)
   displ. norm   :     0.6008075 α      lambda       -0.6872570E-01
   maximum displ.:     0.1955906 α      in ANC's #83, #129, #79, ...

........................................................................
.............................. CYCLE    5 ..............................
........................................................................

 iter      E             dE          RMSdq      gap      omega  full diag
   1   -100.5594037 -0.100559E+03  0.262E-01    1.78       0.0  T
   2   -100.5604035 -0.999742E-03  0.142E-01    1.85       1.0  T
   3   -100.5602471  0.156320E-03  0.821E-02    1.80       1.0  T
   4   -100.5607778 -0.530662E-03  0.400E-02    1.83       1.0  T
   5   -100.5608007 -0.228530E-04  0.127E-02    1.82       1.0  T
   6   -100.5608114 -0.107035E-04  0.433E-03    1.83       2.7  T
   7   -100.5608126 -0.125990E-05  0.209E-03    1.83       5.6  T
   8   -100.5608129 -0.248092E-06  0.738E-04    1.83      16.0  T
   9   -100.5608129 -0.158905E-07  0.294E-04    1.83      40.1  T
     SCC iter.                  ...        0 min,  0.073 sec
     gradient                   ...        0 min,  0.069 sec
 * total energy  :   -99.1437987 Eh     change       -0.5182340E-01 Eh
   gradient norm :     0.0828887 Eh/α   predicted    -0.4676682E-01 (  -9.76%)
   displ. norm   :     0.5914974 α      lambda       -0.3965853E-01
   maximum displ.:     0.2103407 α      in ANC's #79, #83, #2, ...

........................................................................
.............................. CYCLE    6 ..............................
........................................................................

 iter      E             dE          RMSdq      gap      omega  full diag
   1   -100.5467909 -0.100547E+03  0.458E-01    1.32       0.0  T
   2   -100.5457557  0.103529E-02  0.327E-01    1.86       1.0  T
   3   -100.5545554 -0.879978E-02  0.171E-01    1.59       1.0  T
   4   -100.5571463 -0.259089E-02  0.673E-02    1.66       1.0  T
   5   -100.5571604 -0.140710E-04  0.232E-02    1.66       1.0  T
   6   -100.5571966 -0.362037E-04  0.765E-03    1.66       1.5  T
   7   -100.5571994 -0.275945E-05  0.334E-03    1.65       3.5  T
   8   -100.5572000 -0.636362E-06  0.213E-03    1.66       5.5  T
   9   -100.5572003 -0.319110E-06  0.831E-04    1.66      14.2  T
  10   -100.5572003 -0.233665E-07  0.313E-04    1.66      37.7  T
     SCC iter.                  ...        0 min,  0.081 sec
     gradient                   ...        0 min,  0.069 sec
 * total energy  :   -99.1763227 Eh     change       -0.3252402E-01 Eh
   gradient norm :     0.0889372 Eh/α   predicted    -0.2676715E-01 ( -17.70%)
   displ. norm   :     0.6912168 α      lambda       -0.3722207E-01
   maximum displ.:     0.2664715 α      in ANC's #79, #2, #66, ...

........................................................................
.............................. CYCLE    7 ..............................
........................................................................

 iter      E             dE          RMSdq      gap      omega  full diag
   1   -100.5544776 -0.100554E+03  0.601E-01    0.87       0.0  T
   2   -100.5342766  0.202010E-01  0.540E-01    1.71       1.0  T
   3   -100.5610273 -0.267507E-01  0.323E-01    1.13       1.0  T
   4   -100.5704196 -0.939227E-02  0.109E-01    1.23       1.0  T
   5   -100.5703973  0.222622E-04  0.390E-02    1.30       1.0  T
   6   -100.5705582 -0.160883E-03  0.157E-02    1.25       1.0  T
   7   -100.5705825 -0.242813E-04  0.644E-03    1.27       1.8  T
   8   -100.5705849 -0.235295E-05  0.287E-03    1.27       4.1  T
   9   -100.5705851 -0.272362E-06  0.120E-03    1.27       9.9  T
  10   -100.5705852 -0.657097E-07  0.399E-04    1.27      29.5  T
  11   -100.5705852 -0.675301E-08  0.215E-04    1.27      54.9  T
     SCC iter.                  ...        0 min,  0.089 sec
     gradient                   ...        0 min,  0.069 sec
 * total energy  :   -99.2076323 Eh     change       -0.3130959E-01 Eh
   gradient norm :     0.0896630 Eh/α   predicted    -0.2750304E-01 ( -12.16%)
   displ. norm   :     0.6982403 α      lambda       -0.3397388E-01
   maximum displ.:     0.2674528 α      in ANC's #79, #2, #66, ...

........................................................................
.............................. CYCLE    8 ..............................
........................................................................

 iter      E             dE          RMSdq      gap      omega  full diag
   1   -100.5834846 -0.100583E+03  0.504E-01    0.74       0.0  T
   2   -100.5746916  0.879301E-02  0.386E-01    0.99       1.0  T
   3   -100.5739810  0.710607E-03  0.387E-01    0.75       1.0  T
   4   -100.5884729 -0.144919E-01  0.133E-01    0.90       1.0  T
   5   -100.5886465 -0.173627E-03  0.484E-02    0.96       1.0  T
   6   -100.5889796 -0.333082E-03  0.127E-02    0.92       1.0  T
   7   -100.5889934 -0.138607E-04  0.483E-03    0.93       2.4  T
   8   -100.5889936 -0.159865E-06  0.301E-03    0.93       3.9  T
   9   -100.5889941 -0.496660E-06  0.933E-04    0.93      12.6  T
  10   -100.5889942 -0.665091E-07  0.333E-04    0.93      35.4  T
     SCC iter.                  ...        0 min,  0.081 sec
     gradient                   ...        0 min,  0.069 sec
 * total energy  :   -99.2331785 Eh     change       -0.2554618E-01 Eh
   gradient norm :     0.0791279 Eh/α   predicted    -0.2526875E-01 (  -1.09%)
   displ. norm   :     0.4854912 α      lambda       -0.1875046E-01
   maximum displ.:     0.2216900 α      in ANC's #2, #79, #66, ...

........................................................................
.............................. CYCLE    9 ..............................
........................................................................

 iter      E             dE          RMSdq      gap      omega  full diag
   1   -100.6046996 -0.100605E+03  0.272E-01    0.65       0.0  T
   2   -100.6046804  0.192533E-04  0.170E-01    0.65       1.0  T
   3   -100.6035565  0.112392E-02  0.162E-01    0.65       1.0  T
   4   -100.6037381 -0.181635E-03  0.130E-01    0.64       1.0  T
   5   -100.6053631 -0.162496E-02  0.303E-02    0.65       1.0  T
   6   -100.6055016 -0.138573E-03  0.883E-03    0.65       1.3  T
   7   -100.6055070 -0.535550E-05  0.360E-03    0.65       3.3  T
   8   -100.6055072 -0.216663E-06  0.176E-03    0.65       6.7  T
   9   -100.6055074 -0.196972E-06  0.576E-04    0.65      20.5  T
  10   -100.6055074 -0.252345E-07  0.232E-04    0.65      50.8  T
     SCC iter.                  ...        0 min,  0.081 sec
     gradient                   ...        0 min,  0.069 sec
 * total energy  :   -99.2465940 Eh     change       -0.1341551E-01 Eh
   gradient norm :     0.0901784 Eh/α   predicted    -0.1158531E-01 ( -13.64%)
   displ. norm   :     0.4016979 α      lambda       -0.1655354E-01
   maximum displ.:     0.1955522 α      in ANC's #2, #183, #38, ...

........................................................................
.............................. CYCLE   10 ..............................
........................................................................

 iter      E             dE          RMSdq      gap      omega  full diag
   1   -100.6223179 -0.100622E+03  0.234E-01    0.51       0.0  T
   2   -100.6147276  0.759029E-02  0.323E-01    0.50       1.0  T
   3   -100.6231466 -0.841901E-02  0.127E-01    0.49       1.0  T
   4   -100.6237337 -0.587025E-03  0.570E-02    0.49       1.0  T
   5   -100.6239905 -0.256861E-03  0.141E-02    0.49       1.0  T
   6   -100.6240076 -0.170736E-04  0.557E-03    0.49       2.1  T
   7   -100.6240099 -0.224396E-05  0.297E-03    0.49       4.0  T
   8   -100.6240103 -0.410894E-06  0.120E-03    0.49       9.8  T
   9   -100.6240103 -0.810925E-07  0.406E-04    0.49      29.0  T
  10   -100.6240104 -0.101661E-07  0.179E-04    0.49      66.0  T
     SCC iter.                  ...        0 min,  0.082 sec
     gradient                   ...        0 min,  0.070 sec
 * total energy  :   -99.2595626 Eh     change       -0.1296858E-01 Eh
   gradient norm :     0.0770957 Eh/α   predicted    -0.9612367E-02 ( -25.88%)
   displ. norm   :     0.4420317 α      lambda       -0.1601284E-01
   maximum displ.:     0.2049103 α      in ANC's #2, #54, #57, ...

........................................................................
.............................. CYCLE   11 ..............................
........................................................................

 iter      E             dE          RMSdq      gap      omega  full diag
   1   -100.6377567 -0.100638E+03  0.262E-01    0.46       0.0  T
   2   -100.6228446  0.149121E-01  0.433E-01    0.42       1.0  T
   3   -100.6402722 -0.174276E-01  0.118E-01    0.42       1.0  T
   4   -100.6404089 -0.136724E-03  0.567E-02    0.41       1.0  T
   5   -100.6406425 -0.233573E-03  0.220E-02    0.41       1.0  T
   6   -100.6407022 -0.597340E-04  0.467E-03    0.41       2.5  T
   7   -100.6407032 -0.949878E-06  0.254E-03    0.41       4.6  T
   8   -100.6407033 -0.179954E-06  0.111E-03    0.41      10.6  T
   9   -100.6407034 -0.673076E-07  0.462E-04    0.41      25.5  T
  10   -100.6407034 -0.177576E-07  0.292E-04    0.41      40.4  T
     SCC iter.                  ...        0 min,  0.081 sec
     gradient                   ...        0 min,  0.069 sec
 * total energy  :   -99.2689756 Eh     change       -0.9412965E-02 Eh
   gradient norm :     0.0403714 Eh/α   predicted    -0.9570852E-02 (   1.68%)
   displ. norm   :     0.2461553 α      lambda       -0.4140597E-02
   maximum displ.:     0.1252733 α      in ANC's #1, #2, #37, ...

........................................................................
.............................. CYCLE   12 ..............................
........................................................................

 iter      E             dE          RMSdq      gap      omega  full diag
   1   -100.6465214 -0.100647E+03  0.785E-02    0.41       0.0  T
   2   -100.6464813  0.400926E-04  0.534E-02    0.40       1.0  T
   3   -100.6460924  0.388823E-03  0.666E-02    0.42       1.0  T
   4   -100.6464654 -0.372982E-03  0.306E-02    0.40       1.0  T
   5   -100.6465745 -0.109105E-03  0.671E-03    0.41       1.8  T
   6   -100.6465781 -0.360921E-05  0.209E-03    0.41       5.6  T
   7   -100.6465783 -0.131906E-06  0.123E-03    0.41       9.6  T
   8   -100.6465783 -0.348290E-08  0.778E-04    0.41      15.1  T
   9   -100.6465783 -0.352310E-07  0.390E-04    0.41      30.2  T
     SCC iter.                  ...        0 min,  0.073 sec
     gradient                   ...        0 min,  0.069 sec
 * total energy  :   -99.2722525 Eh     change       -0.3276948E-02 Eh
   gradient norm :     0.0303531 Eh/α   predicted    -0.2195842E-02 ( -32.99%)
   displ. norm   :     0.4010894 α      lambda       -0.5663629E-02
   maximum displ.:     0.2167678 α      in ANC's #2, #37, #35, ...

........................................................................
.............................. CYCLE   13 ..............................
........................................................................

 iter      E             dE          RMSdq      gap      omega  full diag
   1   -100.6522828 -0.100652E+03  0.138E-01    0.40       0.0  T
   2   -100.6522672  0.155824E-04  0.906E-02    0.40       1.0  T
   3   -100.6516758  0.591463E-03  0.807E-02    0.40       1.0  T
   4   -100.6522494 -0.573660E-03  0.444E-02    0.39       1.0  T
   5   -100.6524244 -0.174988E-03  0.258E-02    0.40       1.0  T
   6   -100.6524794 -0.549505E-04  0.866E-03    0.40       1.4  T
   7   -100.6524819 -0.248074E-05  0.631E-03    0.40       1.9  T
   8   -100.6524825 -0.638305E-06  0.387E-03    0.40       3.0  T
   9   -100.6524832 -0.682959E-06  0.210E-03    0.40       5.6  T
  10   -100.6524834 -0.198860E-06  0.725E-04    0.40      16.3  T
  11   -100.6524834 -0.162440E-07  0.269E-04    0.40      43.7  T
     SCC iter.                  ...        0 min,  0.089 sec
     gradient                   ...        0 min,  0.069 sec
 * total energy  :   -99.2756156 Eh     change       -0.3363137E-02 Eh
   gradient norm :     0.0300715 Eh/α   predicted    -0.3287383E-02 (  -2.25%)
   displ. norm   :     0.3436322 α      lambda       -0.2416961E-02
   maximum displ.:     0.2212368 α      in ANC's #1, #2, #37, ...

........................................................................
.............................. CYCLE   14 ..............................
........................................................................

 iter      E             dE          RMSdq      gap      omega  full diag
   1   -100.6519692 -0.100652E+03  0.887E-02    0.40       0.0  T
   2   -100.6519995 -0.302734E-04  0.544E-02    0.39       1.0  T
   3   -100.6519316  0.678998E-04  0.400E-02    0.40       1.0  T
   4   -100.6519732 -0.416037E-04  0.302E-02    0.39       1.0  T
   5   -100.6520602 -0.870403E-04  0.618E-03    0.39       1.9  T
   6   -100.6520647 -0.454548E-05  0.212E-03    0.39       5.6  T
   7   -100.6520648 -0.979600E-07  0.152E-03    0.39       7.7  T
   8   -100.6520649 -0.979041E-07  0.101E-03    0.39      11.7  T
   9   -100.6520650 -0.506813E-07  0.510E-04    0.39      23.1  T
  10   -100.6520650 -0.818633E-08  0.297E-04    0.39      39.7  T
     SCC iter.                  ...        0 min,  0.081 sec
     gradient                   ...        0 min,  0.069 sec
 * total energy  :   -99.2771447 Eh     change       -0.1529015E-02 Eh
   gradient norm :     0.0274141 Eh/α   predicted    -0.1351240E-02 ( -11.63%)
   displ. norm   :     0.2775870 α      lambda       -0.2177138E-02
   maximum displ.:     0.1339705 α      in ANC's #2, #37, #35, ...

........................................................................
.............................. CYCLE   15 ..............................
........................................................................

 iter      E             dE          RMSdq      gap      omega  full diag
   1   -100.6545146 -0.100655E+03  0.756E-02    0.39       0.0  T
   2   -100.6543924  0.122168E-03  0.590E-02    0.38       1.0  T
   3   -100.6542881  0.104389E-03  0.616E-02    0.39       1.0  T
   4   -100.6545147 -0.226674E-03  0.263E-02    0.39       1.0  T
   5   -100.6545811 -0.664118E-04  0.494E-03    0.39       2.4  T
   6   -100.6545830 -0.188776E-05  0.226E-03    0.39       5.2  T
   7   -100.6545834 -0.337530E-06  0.120E-03    0.39       9.8  T
   8   -100.6545834 -0.381945E-07  0.876E-04    0.39      13.5  T
   9   -100.6545834 -0.223595E-07  0.678E-04    0.39      17.4  T
     SCC iter.                  ...        0 min,  0.073 sec
     gradient                   ...        0 min,  0.069 sec
 * total energy  :   -99.2788540 Eh     change       -0.1709379E-02 Eh
   gradient norm :     0.0181792 Eh/α   predicted    -0.1172530E-02 ( -31.41%)
   displ. norm   :     0.3708798 α      lambda       -0.2539647E-02
   maximum displ.:     0.1716168 α      in ANC's #2, #37, #35, ...

........................................................................
.............................. CYCLE   16 ..............................
........................................................................

 iter      E             dE          RMSdq      gap      omega  full diag
   1   -100.6598346 -0.100660E+03  0.104E-01    0.39       0.0  T
   2   -100.6596781  0.156437E-03  0.776E-02    0.37       1.0  T
   3   -100.6596508  0.273372E-04  0.705E-02    0.38       1.0  T
   4   -100.6597500 -0.991477E-04  0.467E-02    0.38       1.0  T
   5   -100.6599661 -0.216127E-03  0.674E-03    0.38       1.7  T
   6   -100.6599703 -0.416972E-05  0.343E-03    0.38       3.4  T
   7   -100.6599704 -0.129608E-06  0.278E-03    0.38       4.2  T
   8   -100.6599708 -0.365240E-06  0.154E-03    0.38       7.7  T
   9   -100.6599708 -0.595674E-07  0.935E-04    0.38      12.6  T
  10   -100.6599708 -0.327861E-07  0.389E-04    0.37      30.3  T
     SCC iter.                  ...        0 min,  0.081 sec
     gradient                   ...        0 min,  0.069 sec
 * total energy  :   -99.2806541 Eh     change       -0.1800103E-02 Eh
   gradient norm :     0.0181335 Eh/α   predicted    -0.1444499E-02 ( -19.75%)
   displ. norm   :     0.3798133 α      lambda       -0.1674924E-02
   maximum displ.:     0.1909441 α      in ANC's #2, #37, #10, ...

........................................................................
.............................. CYCLE   17 ..............................
........................................................................

 iter      E             dE          RMSdq      gap      omega  full diag
   1   -100.6635232 -0.100664E+03  0.986E-02    0.38       0.0  T
   2   -100.6634286  0.945542E-04  0.706E-02    0.36       1.0  T
   3   -100.6634274  0.124450E-05  0.618E-02    0.37       1.0  T
   4   -100.6634913 -0.639756E-04  0.407E-02    0.37       1.0  T
   5   -100.6636464 -0.155092E-03  0.708E-03    0.36       1.7  T
   6   -100.6636499 -0.351665E-05  0.457E-03    0.36       2.6  T
   7   -100.6636501 -0.125136E-06  0.374E-03    0.36       3.1  T
   8   -100.6636507 -0.632394E-06  0.185E-03    0.36       6.4  T
   9   -100.6636508 -0.117862E-06  0.696E-04    0.36      16.9  T
  10   -100.6636508 -0.257807E-07  0.284E-04    0.36      41.6  T
     SCC iter.                  ...        0 min,  0.081 sec
     gradient                   ...        0 min,  0.069 sec
 * total energy  :   -99.2819988 Eh     change       -0.1344684E-02 Eh
   gradient norm :     0.0207367 Eh/α   predicted    -0.9582789E-03 ( -28.74%)
   displ. norm   :     0.4833803 α      lambda       -0.2240815E-02
   maximum displ.:     0.2264934 α      in ANC's #2, #37, #10, ...

........................................................................
.............................. CYCLE   18 ..............................
........................................................................

 iter      E             dE          RMSdq      gap      omega  full diag
   1   -100.6678922 -0.100668E+03  0.131E-01    0.38       0.0  T
   2   -100.6677754  0.116770E-03  0.896E-02    0.35       1.0  T
   3   -100.6677676  0.782294E-05  0.776E-02    0.37       1.0  T
   4   -100.6679849 -0.217283E-03  0.329E-02    0.37       1.0  T
   5   -100.6680801 -0.951518E-04  0.889E-03    0.36       1.3  T
   6   -100.6680870 -0.695709E-05  0.472E-03    0.36       2.5  T
   7   -100.6680877 -0.708782E-06  0.338E-03    0.36       3.5  T
   8   -100.6680882 -0.515091E-06  0.171E-03    0.36       6.9  T
   9   -100.6680884 -0.111685E-06  0.566E-04    0.36      20.8  T
  10   -100.6680884 -0.200943E-07  0.217E-04    0.36      54.4  T
     SCC iter.                  ...        0 min,  0.081 sec
     gradient                   ...        0 min,  0.069 sec
 * total energy  :   -99.2838015 Eh     change       -0.1802632E-02 Eh
   gradient norm :     0.0212187 Eh/α   predicted    -0.1382207E-02 ( -23.32%)
   displ. norm   :     0.5027633 α      lambda       -0.2456942E-02
   maximum displ.:     0.2266481 α      in ANC's #2, #10, #41, ...

........................................................................
.............................. CYCLE   19 ..............................
........................................................................

 iter      E             dE          RMSdq      gap      omega  full diag
   1   -100.6709335 -0.100671E+03  0.139E-01    0.38       0.0  T
   2   -100.6708767  0.568320E-04  0.875E-02    0.35       1.0  T
   3   -100.6707108  0.165901E-03  0.819E-02    0.38       1.0  T
   4   -100.6710372 -0.326415E-03  0.209E-02    0.37       1.0  T
   5   -100.6710793 -0.421844E-04  0.658E-03    0.36       1.8  T
   6   -100.6710823 -0.293026E-05  0.474E-03    0.36       2.5  T
   7   -100.6710839 -0.160925E-05  0.210E-03    0.36       5.6  T
   8   -100.6710841 -0.226986E-06  0.110E-03    0.36      10.7  T
   9   -100.6710842 -0.485328E-07  0.361E-04    0.36      32.7  T
  10   -100.6710842 -0.804503E-08  0.138E-04    0.36      85.7  T
     SCC iter.                  ...        0 min,  0.081 sec
     gradient                   ...        0 min,  0.069 sec
 * total energy  :   -99.2857071 Eh     change       -0.1905668E-02 Eh
   gradient norm :     0.0185411 Eh/α   predicted    -0.1538999E-02 ( -19.24%)
   displ. norm   :     0.4474141 α      lambda       -0.2132446E-02
   maximum displ.:     0.1881096 α      in ANC's #2, #10, #41, ...

........................................................................
.............................. CYCLE   20 ..............................
........................................................................

 iter      E             dE          RMSdq      gap      omega  full diag
   1   -100.6725299 -0.100673E+03  0.122E-01    0.38       0.0  T
   2   -100.6725332 -0.331439E-05  0.711E-02    0.35       1.0  T
   3   -100.6723605  0.172760E-03  0.640E-02    0.39       1.0  T
   4   -100.6725768 -0.216297E-03  0.157E-02    0.36       1.0  T
   5   -100.6726008 -0.240361E-04  0.648E-03    0.37       1.8  T
   6   -100.6726050 -0.418283E-05  0.244E-03    0.36       4.8  T
   7   -100.6726052 -0.164820E-06  0.184E-03    0.37       6.4  T
   8   -100.6726054 -0.239727E-06  0.542E-04    0.37      21.8  T
   9   -100.6726054 -0.160116E-07  0.207E-04    0.37      56.8  T
     SCC iter.                  ...        0 min,  0.072 sec
     gradient                   ...        0 min,  0.069 sec
 * total energy  :   -99.2873306 Eh     change       -0.1623463E-02 Eh
   gradient norm :     0.0182563 Eh/α   predicted    -0.1279662E-02 ( -21.18%)
   displ. norm   :     0.4173374 α      lambda       -0.1930717E-02
   maximum displ.:     0.1814642 α      in ANC's #2, #10, #41, ...
 * RMSD in coord.:     0.6912872 α      energy gain  -0.9098164E+00 Eh

generating ANC from model Hessian ...
Using Lindh-Hessian (1995)
 Shifting diagonal of input Hessian by    9.9708517653752434E-003
 Lowest  eigenvalues of input Hessian
    0.000000    0.000000    0.000000    0.000000    0.000000    0.000000
    0.010000    0.010046    0.010116    0.010225    0.010251    0.010358
    0.010623    0.010659    0.010814    0.010968    0.011538    0.012013
 Highest eigenvalues
    2.042512    2.061895    2.121267    2.148161    2.182873    2.194123


........................................................................
.............................. CYCLE   21 ..............................
........................................................................

 iter      E             dE          RMSdq      gap      omega  full diag
   1   -100.6729088 -0.100673E+03  0.107E-01    0.38       0.0  T
   2   -100.6729247 -0.158542E-04  0.609E-02    0.35       1.0  T
   3   -100.6728131  0.111580E-03  0.494E-02    0.39       1.0  T
   4   -100.6729598 -0.146759E-03  0.154E-02    0.36       1.0  T
   5   -100.6729805 -0.206127E-04  0.729E-03    0.37       1.6  T
   6   -100.6729852 -0.478302E-05  0.168E-03    0.37       7.0  T
   7   -100.6729852 -0.698898E-08  0.119E-03    0.37       9.9  T
   8   -100.6729853 -0.438573E-07  0.637E-04    0.37      18.5  T
   9   -100.6729853 -0.391802E-07  0.180E-04    0.37      65.4  T
     SCC iter.                  ...        0 min,  0.074 sec
     gradient                   ...        0 min,  0.069 sec
 * total energy  :   -99.2888598 Eh     change       -0.1529250E-02 Eh
   gradient norm :     0.0208664 Eh/α   predicted     0.0000000E+00 (-100.00%)
   displ. norm   :     0.3439772 α      lambda       -0.2857087E-02
   maximum displ.:     0.1046337 α      in ANC's #14, #12, #4, ...

........................................................................
.............................. CYCLE   22 ..............................
........................................................................

 iter      E             dE          RMSdq      gap      omega  full diag
   1   -100.6743695 -0.100674E+03  0.986E-02    0.32       0.0  T
   2   -100.6742538  0.115684E-03  0.698E-02    0.37       1.0  T
   3   -100.6740631  0.190701E-03  0.735E-02    0.31       1.0  T
   4   -100.6744214 -0.358219E-03  0.171E-02    0.35       1.0  T
   5   -100.6744531 -0.317366E-04  0.542E-03    0.35       2.2  T
   6   -100.6744562 -0.309025E-05  0.270E-03    0.35       4.4  T
   7   -100.6744566 -0.422959E-06  0.129E-03    0.34       9.1  T
   8   -100.6744567 -0.838410E-07  0.442E-04    0.35      26.7  T
   9   -100.6744567 -0.108533E-07  0.124E-04    0.35      95.1  T
     SCC iter.                  ...        0 min,  0.074 sec
     gradient                   ...        0 min,  0.069 sec
 * total energy  :   -99.2911283 Eh     change       -0.2268442E-02 Eh
   gradient norm :     0.0113094 Eh/α   predicted    -0.1597589E-02 ( -29.57%)
   displ. norm   :     0.5690041 α      lambda       -0.3022492E-02
   maximum displ.:     0.2377663 α      in ANC's #12, #14, #11, ...

........................................................................
.............................. CYCLE   23 ..............................
........................................................................

 iter      E             dE          RMSdq      gap      omega  full diag
   1   -100.6726555 -0.100673E+03  0.138E-01    0.34       0.0  T
   2   -100.6726380  0.174452E-04  0.822E-02    0.34       1.0  T
   3   -100.6721078  0.530189E-03  0.894E-02    0.32       1.0  T
   4   -100.6726766 -0.568744E-03  0.210E-02    0.35       1.0  T
   5   -100.6727117 -0.351494E-04  0.655E-03    0.33       1.8  T
   6   -100.6727150 -0.329454E-05  0.267E-03    0.33       4.4  T
   7   -100.6727151 -0.125639E-06  0.180E-03    0.33       6.5  T
   8   -100.6727154 -0.298909E-06  0.446E-04    0.33      26.4  T
   9   -100.6727155 -0.181402E-07  0.149E-04    0.33      79.1  T
     SCC iter.                  ...        0 min,  0.073 sec
     gradient                   ...        0 min,  0.069 sec
 * total energy  :   -99.2933433 Eh     change       -0.2214980E-02 Eh
   gradient norm :     0.0096188 Eh/α   predicted    -0.2000536E-02 (  -9.68%)
   displ. norm   :     0.5734672 α      lambda       -0.1868717E-02
   maximum displ.:     0.2720639 α      in ANC's #12, #14, #11, ...

........................................................................
.............................. CYCLE   24 ..............................
........................................................................

 iter      E             dE          RMSdq      gap      omega  full diag
   1   -100.6715504 -0.100672E+03  0.131E-01    0.33       0.0  T
   2   -100.6715319  0.185002E-04  0.782E-02    0.33       1.0  T
   3   -100.6711215  0.410361E-03  0.837E-02    0.32       1.0  T
   4   -100.6715752 -0.453677E-03  0.164E-02    0.34       1.0  T
   5   -100.6715988 -0.235366E-04  0.570E-03    0.32       2.1  T
   6   -100.6716006 -0.179931E-05  0.304E-03    0.33       3.9  T
   7   -100.6716010 -0.429028E-06  0.164E-03    0.33       7.2  T
   8   -100.6716013 -0.292384E-06  0.370E-04    0.33      31.9  T
   9   -100.6716013 -0.102163E-07  0.148E-04    0.33      79.7  T
     SCC iter.                  ...        0 min,  0.073 sec
     gradient                   ...        0 min,  0.069 sec
 * total energy  :   -99.2948284 Eh     change       -0.1485097E-02 Eh
   gradient norm :     0.0142326 Eh/α   predicted    -0.1241646E-02 ( -16.39%)
   displ. norm   :     0.6239703 α      lambda       -0.1768251E-02
   maximum displ.:     0.3204594 α      in ANC's #12, #11, #14, ...

........................................................................
.............................. CYCLE   25 ..............................
........................................................................

 iter      E             dE          RMSdq      gap      omega  full diag
   1   -100.6722141 -0.100672E+03  0.131E-01    0.37       0.0  T
   2   -100.6722033  0.108147E-04  0.767E-02    0.32       1.0  T
   3   -100.6719818  0.221550E-03  0.703E-02    0.40       1.0  T
   4   -100.6722828 -0.301060E-03  0.223E-02    0.33       1.0  T
   5   -100.6723324 -0.496033E-04  0.480E-03    0.35       2.5  T
   6   -100.6723337 -0.131747E-05  0.219E-03    0.35       5.4  T
   7   -100.6723336  0.118818E-06  0.188E-03    0.35       6.3  T
   8   -100.6723339 -0.288568E-06  0.609E-04    0.35      19.3  T
   9   -100.6723339 -0.278459E-07  0.150E-04    0.35      78.6  T
     SCC iter.                  ...        0 min,  0.073 sec
     gradient                   ...        0 min,  0.069 sec
 * total energy  :   -99.2962606 Eh     change       -0.1432200E-02 Eh
   gradient norm :     0.0162417 Eh/α   predicted    -0.1228352E-02 ( -14.23%)
   displ. norm   :     0.5994469 α      lambda       -0.1669404E-02
   maximum displ.:     0.3034665 α      in ANC's #12, #9, #11, ...

........................................................................
.............................. CYCLE   26 ..............................
........................................................................

 iter      E             dE          RMSdq      gap      omega  full diag
   1   -100.6757056 -0.100676E+03  0.130E-01    0.43       0.0  T
   2   -100.6756501  0.555446E-04  0.790E-02    0.34       1.0  T
   3   -100.6755039  0.146202E-03  0.759E-02    0.45       1.0  T
   4   -100.6758131 -0.309179E-03  0.347E-02    0.37       1.0  T
   5   -100.6759261 -0.113067E-03  0.478E-03    0.39       2.5  T
   6   -100.6759277 -0.159482E-05  0.208E-03    0.39       5.7  T
   7   -100.6759278 -0.666950E-07  0.110E-03    0.39      10.7  T
   8   -100.6759278 -0.396107E-07  0.362E-04    0.39      32.5  T
   9   -100.6759278 -0.714221E-08  0.194E-04    0.39      60.7  T
     SCC iter.                  ...        0 min,  0.073 sec
     gradient                   ...        0 min,  0.069 sec
 * total energy  :   -99.2975775 Eh     change       -0.1316898E-02 Eh
   gradient norm :     0.0117239 Eh/α   predicted    -0.1134652E-02 ( -13.84%)
   displ. norm   :     0.5766079 α      lambda       -0.1286690E-02
   maximum displ.:     0.2674519 α      in ANC's #12, #9, #11, ...

........................................................................
.............................. CYCLE   27 ..............................
........................................................................

 iter      E             dE          RMSdq      gap      omega  full diag
   1   -100.6763450 -0.100676E+03  0.125E-01    0.49       0.0  T
   2   -100.6762336  0.111405E-03  0.791E-02    0.40       1.0  T
   3   -100.6761195  0.114018E-03  0.786E-02    0.50       1.0  T
   4   -100.6765020 -0.382473E-03  0.326E-02    0.44       1.0  T
   5   -100.6765945 -0.925161E-04  0.560E-03    0.44       2.1  T
   6   -100.6765974 -0.283702E-05  0.273E-03    0.44       4.3  T
   7   -100.6765977 -0.280462E-06  0.181E-03    0.44       6.5  T
   8   -100.6765978 -0.130632E-06  0.874E-04    0.44      13.5  T
   9   -100.6765978 -0.496791E-07  0.182E-04    0.44      64.6  T
     SCC iter.                  ...        0 min,  0.073 sec
     gradient                   ...        0 min,  0.068 sec
 * total energy  :   -99.2985763 Eh     change       -0.9988654E-03 Eh
   gradient norm :     0.0098821 Eh/α   predicted    -0.8572435E-03 ( -14.18%)
   displ. norm   :     0.5465604 α      lambda       -0.9459025E-03
   maximum displ.:     0.2275500 α      in ANC's #9, #12, #11, ...

........................................................................
.............................. CYCLE   28 ..............................
........................................................................

 iter      E             dE          RMSdq      gap      omega  full diag
   1   -100.6774886 -0.100677E+03  0.116E-01    0.55       0.0  T
   2   -100.6773001  0.188480E-03  0.801E-02    0.47       1.0  T
   3   -100.6773787 -0.786226E-04  0.749E-02    0.56       1.0  T
   4   -100.6776967 -0.318011E-03  0.283E-02    0.51       1.0  T
   5   -100.6777701 -0.733616E-04  0.617E-03    0.51       1.9  T
   6   -100.6777737 -0.360531E-05  0.295E-03    0.51       4.0  T
   7   -100.6777741 -0.407019E-06  0.179E-03    0.51       6.6  T
   8   -100.6777742 -0.146715E-06  0.766E-04    0.51      15.4  T
   9   -100.6777743 -0.242950E-07  0.196E-04    0.51      60.2  T
     SCC iter.                  ...        0 min,  0.073 sec
     gradient                   ...        0 min,  0.068 sec
 * total energy  :   -99.2993178 Eh     change       -0.7415272E-03 Eh
   gradient norm :     0.0087421 Eh/α   predicted    -0.6142366E-03 ( -17.17%)
   displ. norm   :     0.5909349 α      lambda       -0.8341371E-03
   maximum displ.:     0.2433646 α      in ANC's #9, #12, #11, ...

........................................................................
.............................. CYCLE   29 ..............................
........................................................................

 iter      E             dE          RMSdq      gap      omega  full diag
   1   -100.6756724 -0.100676E+03  0.126E-01    0.65       0.0  T
   2   -100.6754172  0.255178E-03  0.910E-02    0.57       1.0  T
   3   -100.6755471 -0.129825E-03  0.799E-02    0.64       1.0  T
   4   -100.6759272 -0.380086E-03  0.270E-02    0.60       1.0  T
   5   -100.6759879 -0.607958E-04  0.869E-03    0.61       1.4  T
   6   -100.6759949 -0.699587E-05  0.417E-03    0.61       2.8  T
   7   -100.6759961 -0.120023E-05  0.187E-03    0.61       6.3  T
   8   -100.6759963 -0.136221E-06  0.824E-04    0.61      14.3  T
   9   -100.6759963 -0.284380E-07  0.197E-04    0.61      59.7  T
     SCC iter.                  ...        0 min,  0.073 sec
     gradient                   ...        0 min,  0.070 sec
 * total energy  :   -99.3000127 Eh     change       -0.6948076E-03 Eh
   gradient norm :     0.0096208 Eh/α   predicted    -0.5627137E-03 ( -19.01%)
   displ. norm   :     0.6860678 α      lambda       -0.1161905E-02
   maximum displ.:     0.2854377 α      in ANC's #9, #10, #11, ...

........................................................................
.............................. CYCLE   30 ..............................
........................................................................

 iter      E             dE          RMSdq      gap      omega  full diag
   1   -100.6810753 -0.100681E+03  0.156E-01    0.82       0.0  T
   2   -100.6806087  0.466615E-03  0.121E-01    0.74       1.0  T
   3   -100.6812330 -0.624345E-03  0.925E-02    0.81       1.0  T
   4   -100.6816938 -0.460771E-03  0.382E-02    0.77       1.0  T
   5   -100.6818049 -0.111136E-03  0.131E-02    0.78       1.0  T
   6   -100.6818188 -0.138975E-04  0.576E-03    0.77       2.0  T
   7   -100.6818213 -0.244954E-05  0.239E-03    0.78       4.9  T
   8   -100.6818216 -0.260968E-06  0.117E-03    0.78      10.1  T
   9   -100.6818216 -0.449380E-07  0.294E-04    0.78      40.1  T
  10   -100.6818216 -0.251822E-08  0.116E-04    0.78     101.9  T
     SCC iter.                  ...        0 min,  0.081 sec
     gradient                   ...        0 min,  0.068 sec
 * total energy  :   -99.3010432 Eh     change       -0.1030583E-02 Eh
   gradient norm :     0.0148052 Eh/α   predicted    -0.8544080E-03 ( -17.09%)
   displ. norm   :     0.8448758 α      lambda       -0.1845002E-02
   maximum displ.:     0.3193932 α      in ANC's #9, #10, #5, ...

........................................................................
.............................. CYCLE   31 ..............................
........................................................................

 iter      E             dE          RMSdq      gap      omega  full diag
   1   -100.6869010 -0.100687E+03  0.225E-01    1.14       0.0  T
   2   -100.6868706  0.303937E-04  0.157E-01    1.11       1.0  T
   3   -100.6867116  0.159007E-03  0.114E-01    1.11       1.0  T
   4   -100.6877801 -0.106849E-02  0.535E-02    1.10       1.0  T
   5   -100.6879221 -0.141970E-03  0.214E-02    1.11       1.0  T
   6   -100.6879519 -0.297601E-04  0.768E-03    1.10       1.5  T
   7   -100.6879578 -0.591798E-05  0.259E-03    1.11       4.5  T
   8   -100.6879581 -0.352132E-06  0.125E-03    1.11       9.4  T
   9   -100.6879582 -0.480297E-07  0.391E-04    1.11      30.1  T
  10   -100.6879582 -0.517677E-08  0.126E-04    1.11      93.6  T
     SCC iter.                  ...        0 min,  0.081 sec
     gradient                   ...        0 min,  0.068 sec
 * total energy  :   -99.3037665 Eh     change       -0.2723268E-02 Eh
   gradient norm :     0.0325471 Eh/α   predicted    -0.1581003E-02 ( -41.94%)
   displ. norm   :     0.7404892 α      lambda       -0.5337663E-02
   maximum displ.:     0.3118994 α      in ANC's #16, #9, #12, ...

........................................................................
.............................. CYCLE   32 ..............................
........................................................................

 iter      E             dE          RMSdq      gap      omega  full diag
   1   -100.6981189 -0.100698E+03  0.357E-01    1.65       0.0  T
   2   -100.6973285  0.790421E-03  0.249E-01    1.50       1.0  T
   3   -100.6979495 -0.621001E-03  0.208E-01    1.65       1.0  T
   4   -100.7003620 -0.241249E-02  0.710E-02    1.57       1.0  T
   5   -100.7007891 -0.427057E-03  0.244E-02    1.57       1.0  T
   6   -100.7008102 -0.211413E-04  0.579E-03    1.58       2.0  T
   7   -100.7008125 -0.233522E-05  0.272E-03    1.58       4.3  T
   8   -100.7008128 -0.292795E-06  0.105E-03    1.58      11.3  T
   9   -100.7008129 -0.313617E-07  0.245E-04    1.58      48.1  T
  10   -100.7008129 -0.110008E-08  0.122E-04    1.58      96.9  T
     SCC iter.                  ...        0 min,  0.081 sec
     gradient                   ...        0 min,  0.069 sec
 * total energy  :   -99.3135122 Eh     change       -0.9745704E-02 Eh
   gradient norm :     0.0700783 Eh/α   predicted    -0.4132219E-02 ( -57.60%)
   displ. norm   :     0.6999288 α      lambda       -0.2141568E-01
   maximum displ.:     0.4088858 α      in ANC's #16, #13, #12, ...

........................................................................
.............................. CYCLE   33 ..............................
........................................................................

 iter      E             dE          RMSdq      gap      omega  full diag
   1   -100.7310475 -0.100731E+03  0.509E-01    1.83       0.0  T
   2   -100.7262038  0.484371E-02  0.373E-01    1.49       1.0  T
   3   -100.7305909 -0.438708E-02  0.311E-01    1.95       1.0  T
   4   -100.7368323 -0.624140E-02  0.542E-02    1.69       1.0  T
   5   -100.7369046 -0.723176E-04  0.230E-02    1.72       1.0  T
   6   -100.7369220 -0.173495E-04  0.974E-03    1.71       1.2  T
   7   -100.7369241 -0.218278E-05  0.314E-03    1.71       3.8  T
   8   -100.7369245 -0.402785E-06  0.129E-03    1.71       9.1  T
   9   -100.7369246 -0.353753E-07  0.412E-04    1.71      28.6  T
  10   -100.7369246 -0.794036E-08  0.178E-04    1.71      66.3  T
     SCC iter.                  ...        0 min,  0.081 sec
     gradient                   ...        0 min,  0.069 sec
 * total energy  :   -99.3442498 Eh     change       -0.3073764E-01 Eh
   gradient norm :     0.1261396 Eh/α   predicted    -0.1595362E-01 ( -48.10%)
   displ. norm   :     0.6551862 α      lambda       -0.3949030E-01
   maximum displ.:     0.3484256 α      in ANC's #16, #13, #12, ...

........................................................................
.............................. CYCLE   34 ..............................
........................................................................

 iter      E             dE          RMSdq      gap      omega  full diag
   1   -100.7771960 -0.100777E+03  0.396E-01    1.67       0.0  T
   2   -100.7768421  0.353909E-03  0.249E-01    1.57       1.0  T
   3   -100.7744004  0.244171E-02  0.266E-01    1.87       1.0  T
   4   -100.7788151 -0.441474E-02  0.632E-02    1.59       1.0  T
   5   -100.7790899 -0.274796E-03  0.189E-02    1.68       1.0  T
   6   -100.7791045 -0.145881E-04  0.872E-03    1.66       1.4  T
   7   -100.7791085 -0.396734E-05  0.253E-03    1.66       4.7  T
   8   -100.7791087 -0.244451E-06  0.932E-04    1.67      12.6  T
   9   -100.7791088 -0.279538E-07  0.396E-04    1.67      29.8  T
     SCC iter.                  ...        0 min,  0.073 sec
     gradient                   ...        0 min,  0.074 sec
 * total energy  :   -99.3593191 Eh     change       -0.1506928E-01 Eh
   gradient norm :     0.1740667 Eh/α   predicted    -0.2822114E-01 (  87.28%)
   displ. norm   :     0.5033276 α      lambda       -0.5678204E-01
   maximum displ.:     0.2838110 α      in ANC's #16, #14, #18, ...

........................................................................
.............................. CYCLE   35 ..............................
........................................................................

 iter      E             dE          RMSdq      gap      omega  full diag
   1   -100.7495926 -0.100750E+03  0.267E-01    1.72       0.0  T
   2   -100.7495877  0.494776E-05  0.173E-01    1.58       1.0  T
   3   -100.7478142  0.177342E-02  0.180E-01    1.84       1.0  T
   4   -100.7503269 -0.251271E-02  0.452E-02    1.66       1.0  T
   5   -100.7504184 -0.914556E-04  0.103E-02    1.67       1.1  T
   6   -100.7504195 -0.112721E-05  0.476E-03    1.67       2.5  T
   7   -100.7504203 -0.777422E-06  0.187E-03    1.67       6.3  T
   8   -100.7504205 -0.197590E-06  0.640E-04    1.67      18.4  T
   9   -100.7504205 -0.514009E-08  0.271E-04    1.67      43.5  T
     SCC iter.                  ...        0 min,  0.073 sec
     gradient                   ...        0 min,  0.068 sec
 * total energy  :   -99.3760303 Eh     change       -0.1671119E-01 Eh
   gradient norm :     0.0799041 Eh/α   predicted    -0.3558356E-01 ( 112.93%)
   displ. norm   :     0.4544237 α      lambda       -0.1376346E-01
   maximum displ.:     0.1810775 α      in ANC's #30, #33, #36, ...

........................................................................
.............................. CYCLE   36 ..............................
........................................................................

 iter      E             dE          RMSdq      gap      omega  full diag
   1   -100.7627744 -0.100763E+03  0.182E-01    1.68       0.0  T
   2   -100.7627281  0.462579E-04  0.112E-01    1.63       1.0  T
   3   -100.7615928  0.113532E-02  0.131E-01    1.78       1.0  T
   4   -100.7629673 -0.137449E-02  0.175E-02    1.65       1.0  T
   5   -100.7629914 -0.240401E-04  0.682E-03    1.67       1.7  T
   6   -100.7629937 -0.238749E-05  0.317E-03    1.66       3.7  T
   7   -100.7629941 -0.364295E-06  0.752E-04    1.66      15.7  T
   8   -100.7629941 -0.195984E-07  0.284E-04    1.66      41.5  T
     SCC iter.                  ...        0 min,  0.065 sec
     gradient                   ...        0 min,  0.068 sec
 * total energy  :   -99.3854802 Eh     change       -0.9449886E-02 Eh
   gradient norm :     0.0404954 Eh/α   predicted    -0.8302810E-02 ( -12.14%)
   displ. norm   :     0.5201021 α      lambda       -0.1119921E-01
   maximum displ.:     0.1905250 α      in ANC's #12, #16, #7, ...

........................................................................
.............................. CYCLE   37 ..............................
........................................................................

 iter      E             dE          RMSdq      gap      omega  full diag
   1   -100.7653304 -0.100765E+03  0.247E-01    1.71       0.0  T
   2   -100.7652531  0.772863E-04  0.148E-01    1.62       1.0  T
   3   -100.7628708  0.238226E-02  0.171E-01    1.85       1.0  T
   4   -100.7655024 -0.263155E-02  0.163E-02    1.68       1.0  T
   5   -100.7655115 -0.915925E-05  0.714E-03    1.68       1.7  T
   6   -100.7655133 -0.177018E-05  0.328E-03    1.67       3.6  T
   7   -100.7655136 -0.249038E-06  0.875E-04    1.67      13.5  T
   8   -100.7655136 -0.335396E-07  0.351E-04    1.67      33.5  T
     SCC iter.                  ...        0 min,  0.065 sec
     gradient                   ...        0 min,  0.068 sec
 * total energy  :   -99.3860877 Eh     change       -0.6074817E-03 Eh
   gradient norm :     0.0466103 Eh/α   predicted    -0.7114341E-02 (1071.12%)
   displ. norm   :     0.3191214 α      lambda       -0.7410697E-02
   maximum displ.:     0.1227712 α      in ANC's #12, #16, #30, ...

........................................................................
.............................. CYCLE   38 ..............................
........................................................................

 iter      E             dE          RMSdq      gap      omega  full diag
   1   -100.7634700 -0.100763E+03  0.140E-01    1.65       0.0  T
   2   -100.7634966 -0.266243E-04  0.829E-02    1.69       1.0  T
   3   -100.7631292  0.367354E-03  0.638E-02    1.60       1.0  T
   4   -100.7634997 -0.370430E-03  0.160E-02    1.68       1.0  T
   5   -100.7635210 -0.212961E-04  0.338E-03    1.67       3.5  T
   6   -100.7635214 -0.386907E-06  0.156E-03    1.67       7.6  T
   7   -100.7635214 -0.582457E-07  0.558E-04    1.67      21.1  T
   8   -100.7635214 -0.160541E-07  0.198E-04    1.67      59.4  T
     SCC iter.                  ...        0 min,  0.066 sec
     gradient                   ...        0 min,  0.068 sec
 * total energy  :   -99.3900498 Eh     change       -0.3962080E-02 Eh
   gradient norm :     0.0230662 Eh/α   predicted    -0.4082691E-02 (   3.04%)
   displ. norm   :     0.5558072 α      lambda       -0.2481284E-02
   maximum displ.:     0.2604251 α      in ANC's #10, #9, #11, ...

........................................................................
.............................. CYCLE   39 ..............................
........................................................................

 iter      E             dE          RMSdq      gap      omega  full diag
   1   -100.7697022 -0.100770E+03  0.180E-01    1.67       0.0  T
   2   -100.7697460 -0.438602E-04  0.105E-01    1.68       1.0  T
   3   -100.7695109  0.235154E-03  0.541E-02    1.63       1.0  T
   4   -100.7697191 -0.208233E-03  0.214E-02    1.70       1.0  T
   5   -100.7697643 -0.451474E-04  0.428E-03    1.67       2.8  T
   6   -100.7697647 -0.472118E-06  0.188E-03    1.67       6.3  T
   7   -100.7697648 -0.751392E-07  0.570E-04    1.67      20.7  T
   8   -100.7697648 -0.249483E-07  0.157E-04    1.67      75.2  T
     SCC iter.                  ...        0 min,  0.065 sec
     gradient                   ...        0 min,  0.074 sec
 * total energy  :   -99.3881799 Eh     change        0.1869871E-02 Eh
   gradient norm :     0.0360539 Eh/α   predicted    -0.1623910E-02 (-186.85%)
   displ. norm   :     0.4825989 α      lambda       -0.7415820E-02
   maximum displ.:     0.2216602 α      in ANC's #6, #9, #10, ...

........................................................................
.............................. CYCLE   40 ..............................
........................................................................

 iter      E             dE          RMSdq      gap      omega  full diag
   1   -100.7722708 -0.100772E+03  0.226E-01    1.68       0.0  T
   2   -100.7723470 -0.762266E-04  0.133E-01    1.67       1.0  T
   3   -100.7723202  0.268174E-04  0.216E-02    1.68       1.0  T
   4   -100.7723597 -0.395594E-04  0.673E-03    1.67       1.8  T
   5   -100.7723618 -0.210500E-05  0.325E-03    1.67       3.6  T
   6   -100.7723620 -0.205134E-06  0.118E-03    1.67      10.0  T
   7   -100.7723621 -0.314947E-07  0.590E-04    1.67      20.0  T
   8   -100.7723621 -0.103493E-07  0.397E-04    1.67      29.7  T
     SCC iter.                  ...        0 min,  0.065 sec
     gradient                   ...        0 min,  0.068 sec
 * total energy  :   -99.3867723 Eh     change        0.1407545E-02 Eh
   gradient norm :     0.0632332 Eh/α   predicted    -0.4571497E-02 (-424.79%)
   displ. norm   :     0.4188310 α      lambda       -0.1237677E-01
   maximum displ.:     0.1388437 α      in ANC's #14, #33, #37, ...

........................................................................
.............................. CYCLE   41 ..............................
........................................................................

 iter      E             dE          RMSdq      gap      omega  full diag
   1   -100.7585721 -0.100759E+03  0.224E-01    1.71       0.0  T
   2   -100.7584839  0.882315E-04  0.146E-01    1.61       1.0  T
   3   -100.7569396  0.154429E-02  0.158E-01    1.83       1.0  T
   4   -100.7589705 -0.203092E-02  0.237E-02    1.67       1.0  T
   5   -100.7590037 -0.331283E-04  0.971E-03    1.69       1.2  T
   6   -100.7590065 -0.282669E-05  0.483E-03    1.68       2.4  T
   7   -100.7590070 -0.550401E-06  0.137E-03    1.68       8.6  T
   8   -100.7590071 -0.732755E-07  0.433E-04    1.68      27.2  T
   9   -100.7590071 -0.522454E-08  0.213E-04    1.68      55.4  T
     SCC iter.                  ...        0 min,  0.073 sec
     gradient                   ...        0 min,  0.068 sec
 * total energy  :   -99.3893713 Eh     change       -0.2598911E-02 Eh
   gradient norm :     0.0434687 Eh/α   predicted    -0.7273954E-02 ( 179.88%)
   displ. norm   :     0.3802356 α      lambda       -0.6453231E-02
   maximum displ.:     0.1383413 α      in ANC's #4, #5, #9, ...

........................................................................
.............................. CYCLE   42 ..............................
........................................................................

 iter      E             dE          RMSdq      gap      omega  full diag
   1   -100.7590877 -0.100759E+03  0.179E-01    1.63       0.0  T
   2   -100.7588873  0.200450E-03  0.126E-01    1.74       1.0  T
   3   -100.7579763  0.910991E-03  0.129E-01    1.55       1.0  T
   4   -100.7593370 -0.136075E-02  0.206E-02    1.68       1.0  T
   5   -100.7593616 -0.245501E-04  0.532E-03    1.67       2.2  T
   6   -100.7593627 -0.110834E-05  0.273E-03    1.67       4.3  T
   7   -100.7593628 -0.134240E-06  0.858E-04    1.67      13.7  T
   8   -100.7593629 -0.442645E-07  0.278E-04    1.67      42.4  T
     SCC iter.                  ...        0 min,  0.065 sec
     gradient                   ...        0 min,  0.068 sec
 * total energy  :   -99.3913225 Eh     change       -0.1951215E-02 Eh
   gradient norm :     0.0221934 Eh/α   predicted    -0.3693123E-02 (  89.27%)
   displ. norm   :     0.3632118 α      lambda       -0.2285136E-02
   maximum displ.:     0.1227854 α      in ANC's #9, #12, #13, ...
 * RMSD in coord.:     0.7227397 α      energy gain  -0.1039919E+00 Eh

generating ANC from model Hessian ...
Using Lindh-Hessian (1995)
 Shifting diagonal of input Hessian by    1.0330907585004783E-002
 Lowest  eigenvalues of input Hessian
    0.010000    0.000000    0.000000    0.000000    0.000000    0.000000
    0.000000    0.010366    0.010451    0.010544    0.010593    0.010643
    0.011014    0.011151    0.011366    0.012010    0.012407    0.012768
 Highest eigenvalues
    1.994427    2.043387    2.049913    2.080527    2.183295    2.188556


........................................................................
.............................. CYCLE   43 ..............................
........................................................................

 iter      E             dE          RMSdq      gap      omega  full diag
   1   -100.7728967 -0.100773E+03  0.917E-02    1.72       0.0  T
   2   -100.7727842  0.112444E-03  0.756E-02    1.63       1.0  T
   3   -100.7728184 -0.341560E-04  0.536E-02    1.73       1.0  T
   4   -100.7730032 -0.184841E-03  0.147E-02    1.68       1.0  T
   5   -100.7730127 -0.945642E-05  0.240E-03    1.68       4.9  T
   6   -100.7730129 -0.192570E-06  0.128E-03    1.68       9.2  T
   7   -100.7730129 -0.405649E-07  0.527E-04    1.68      22.4  T
   8   -100.7730129 -0.139428E-07  0.144E-04    1.68      82.0  T
     SCC iter.                  ...        0 min,  0.065 sec
     gradient                   ...        0 min,  0.068 sec
 * total energy  :   -99.3920567 Eh     change       -0.7341777E-03 Eh
   gradient norm :     0.0193716 Eh/α   predicted     0.0000000E+00 (-100.00%)
   displ. norm   :     0.1784949 α      lambda       -0.1111653E-02
   maximum displ.:     0.0952652 α      in ANC's #1, #14, #12, ...

........................................................................
.............................. CYCLE   44 ..............................
........................................................................

 iter      E             dE          RMSdq      gap      omega  full diag
   1   -100.7700243 -0.100770E+03  0.568E-02    1.68       0.0  T
   2   -100.7700303 -0.598284E-05  0.316E-02    1.68       1.0  T
   3   -100.7700193  0.109552E-04  0.127E-02    1.69       1.0  T
   4   -100.7700300 -0.107118E-04  0.549E-03    1.68       2.1  T
   5   -100.7700322 -0.217124E-05  0.229E-03    1.68       5.1  T
   6   -100.7700324 -0.195555E-06  0.829E-04    1.68      14.2  T
   7   -100.7700324 -0.225822E-07  0.193E-04    1.68      61.0  T
     SCC iter.                  ...        0 min,  0.057 sec
     gradient                   ...        0 min,  0.068 sec
 * total energy  :   -99.3928972 Eh     change       -0.8405012E-03 Eh
   gradient norm :     0.0063899 Eh/α   predicted    -0.5735452E-03 ( -31.76%)
   displ. norm   :     0.3648210 α      lambda       -0.1052328E-02
   maximum displ.:     0.1701114 α      in ANC's #1, #14, #12, ...

........................................................................
.............................. CYCLE   45 ..............................
........................................................................

 iter      E             dE          RMSdq      gap      omega  full diag
   1   -100.7662674 -0.100766E+03  0.942E-02    1.69       0.0  T
   2   -100.7662708 -0.340531E-05  0.545E-02    1.67       1.0  T
   3   -100.7660294  0.241325E-03  0.519E-02    1.74       1.0  T
   4   -100.7662881 -0.258631E-03  0.565E-03    1.68       2.1  T
   5   -100.7662889 -0.806111E-06  0.291E-03    1.69       4.1  T
   6   -100.7662890 -0.154430E-06  0.112E-03    1.68      10.5  T
   7   -100.7662891 -0.514692E-07  0.257E-04    1.69      45.9  T
   8   -100.7662891 -0.237246E-08  0.124E-04    1.68      95.3  T
     SCC iter.                  ...        0 min,  0.065 sec
     gradient                   ...        0 min,  0.070 sec
 * total energy  :   -99.3936383 Eh     change       -0.7411409E-03 Eh
   gradient norm :     0.0105557 Eh/α   predicted    -0.5962578E-03 ( -19.55%)
   displ. norm   :     0.3899513 α      lambda       -0.7225450E-03
   maximum displ.:     0.1727445 α      in ANC's #1, #12, #14, ...

........................................................................
.............................. CYCLE   46 ..............................
........................................................................

 iter      E             dE          RMSdq      gap      omega  full diag
   1   -100.7641794 -0.100764E+03  0.934E-02    1.70       0.0  T
   2   -100.7641712  0.823295E-05  0.560E-02    1.67       1.0  T
   3   -100.7638197  0.351447E-03  0.630E-02    1.75       1.0  T
   4   -100.7642033 -0.383540E-03  0.546E-03    1.69       2.2  T
   5   -100.7642042 -0.895312E-06  0.266E-03    1.69       4.4  T
   6   -100.7642043 -0.836759E-07  0.106E-03    1.69      11.1  T
   7   -100.7642043 -0.645908E-07  0.214E-04    1.69      55.2  T
   8   -100.7642043 -0.100518E-08  0.112E-04    1.69     105.0  T
     SCC iter.                  ...        0 min,  0.065 sec
     gradient                   ...        0 min,  0.068 sec
 * total energy  :   -99.3942206 Eh     change       -0.5823076E-03 Eh
   gradient norm :     0.0169308 Eh/α   predicted    -0.4162093E-03 ( -28.52%)
   displ. norm   :     0.5301000 α      lambda       -0.1067349E-02
   maximum displ.:     0.2267923 α      in ANC's #1, #12, #14, ...

........................................................................
.............................. CYCLE   47 ..............................
........................................................................

 iter      E             dE          RMSdq      gap      omega  full diag
   1   -100.7638551 -0.100764E+03  0.122E-01    1.71       0.0  T
   2   -100.7638317  0.234577E-04  0.745E-02    1.67       1.0  T
   3   -100.7632016  0.630039E-03  0.848E-02    1.78       1.0  T
   4   -100.7638988 -0.697216E-03  0.721E-03    1.69       1.6  T
   5   -100.7639005 -0.166463E-05  0.339E-03    1.69       3.5  T
   6   -100.7639006 -0.805705E-07  0.144E-03    1.69       8.2  T
   7   -100.7639007 -0.133764E-06  0.267E-04    1.69      44.1  T
   8   -100.7639007 -0.101920E-08  0.145E-04    1.69      81.1  T
     SCC iter.                  ...        0 min,  0.066 sec
     gradient                   ...        0 min,  0.068 sec
 * total energy  :   -99.3950948 Eh     change       -0.8742260E-03 Eh
   gradient norm :     0.0172575 Eh/α   predicted    -0.6836418E-03 ( -21.80%)
   displ. norm   :     0.5306363 α      lambda       -0.1236913E-02
   maximum displ.:     0.2107272 α      in ANC's #1, #12, #14, ...

........................................................................
.............................. CYCLE   48 ..............................
........................................................................

 iter      E             dE          RMSdq      gap      omega  full diag
   1   -100.7689865 -0.100769E+03  0.110E-01    1.71       0.0  T
   2   -100.7689601  0.264108E-04  0.689E-02    1.67       1.0  T
   3   -100.7684491  0.510992E-03  0.772E-02    1.78       1.0  T
   4   -100.7690258 -0.576781E-03  0.743E-03    1.69       1.6  T
   5   -100.7690281 -0.225182E-05  0.306E-03    1.70       3.9  T
   6   -100.7690281 -0.511756E-07  0.148E-03    1.70       8.0  T
   7   -100.7690283 -0.116876E-06  0.285E-04    1.70      41.3  T
   8   -100.7690283 -0.171933E-08  0.151E-04    1.70      78.1  T
     SCC iter.                  ...        0 min,  0.065 sec
     gradient                   ...        0 min,  0.074 sec
 * total energy  :   -99.3960065 Eh     change       -0.9116981E-03 Eh
   gradient norm :     0.0079284 Eh/α   predicted    -0.7926052E-03 ( -13.06%)
   displ. norm   :     0.5690674 α      lambda       -0.7080944E-03
   maximum displ.:     0.2172740 α      in ANC's #1, #12, #14, ...

........................................................................
.............................. CYCLE   49 ..............................
........................................................................

 iter      E             dE          RMSdq      gap      omega  full diag
   1   -100.7689126 -0.100769E+03  0.127E-01    1.71       0.0  T
   2   -100.7688891  0.235621E-04  0.783E-02    1.67       1.0  T
   3   -100.7682153  0.673722E-03  0.872E-02    1.79       1.0  T
   4   -100.7689650 -0.749684E-03  0.799E-03    1.70       1.5  T
   5   -100.7689672 -0.219139E-05  0.368E-03    1.70       3.2  T
   6   -100.7689673 -0.483257E-07  0.168E-03    1.70       7.0  T
   7   -100.7689675 -0.192896E-06  0.281E-04    1.70      42.0  T
   8   -100.7689675 -0.109262E-08  0.155E-04    1.70      76.2  T
     SCC iter.                  ...        0 min,  0.065 sec
     gradient                   ...        0 min,  0.069 sec
 * total energy  :   -99.3965338 Eh     change       -0.5273067E-03 Eh
   gradient norm :     0.0113156 Eh/α   predicted    -0.4687668E-03 ( -11.10%)
   displ. norm   :     0.4776871 α      lambda       -0.6665110E-03
   maximum displ.:     0.1799016 α      in ANC's #6, #11, #1, ...

........................................................................
.............................. CYCLE   50 ..............................
........................................................................

 iter      E             dE          RMSdq      gap      omega  full diag
   1   -100.7770075 -0.100777E+03  0.823E-02    1.72       0.0  T
   2   -100.7770032  0.425294E-05  0.513E-02    1.69       1.0  T
   3   -100.7767449  0.258353E-03  0.530E-02    1.76       1.0  T
   4   -100.7770265 -0.281595E-03  0.662E-03    1.70       1.8  T
   5   -100.7770293 -0.281329E-05  0.238E-03    1.70       5.0  T
   6   -100.7770294 -0.748471E-07  0.122E-03    1.70       9.7  T
   7   -100.7770294 -0.735107E-07  0.242E-04    1.70      48.7  T
   8   -100.7770294 -0.169520E-08  0.124E-04    1.70      95.1  T
     SCC iter.                  ...        0 min,  0.065 sec
     gradient                   ...        0 min,  0.068 sec
 * total energy  :   -99.3969257 Eh     change       -0.3918210E-03 Eh
   gradient norm :     0.0077533 Eh/α   predicted    -0.4093008E-03 (   4.46%)
   displ. norm   :     0.5226074 α      lambda       -0.4835104E-03
   maximum displ.:     0.1928310 α      in ANC's #6, #27, #1, ...

........................................................................
.............................. CYCLE   51 ..............................
........................................................................

 iter      E             dE          RMSdq      gap      omega  full diag
   1   -100.7737117 -0.100774E+03  0.135E-01    1.72       0.0  T
   2   -100.7737015  0.101979E-04  0.824E-02    1.68       1.0  T
   3   -100.7730021  0.699414E-03  0.889E-02    1.79       1.0  T
   4   -100.7737819 -0.779781E-03  0.925E-03    1.70       1.3  T
   5   -100.7737859 -0.401151E-05  0.411E-03    1.71       2.9  T
   6   -100.7737860 -0.880915E-07  0.188E-03    1.70       6.3  T
   7   -100.7737863 -0.267701E-06  0.302E-04    1.71      39.0  T
   8   -100.7737863 -0.167429E-08  0.156E-04    1.71      75.4  T
     SCC iter.                  ...        0 min,  0.065 sec
     gradient                   ...        0 min,  0.068 sec
 * total energy  :   -99.3971894 Eh     change       -0.2637093E-03 Eh
   gradient norm :     0.0127239 Eh/α   predicted    -0.3077878E-03 (  16.71%)
   displ. norm   :     0.1988585 α      lambda       -0.2466161E-03
   maximum displ.:     0.1120531 α      in ANC's #6, #11, #5, ...

........................................................................
.............................. CYCLE   52 ..............................
........................................................................

 iter      E             dE          RMSdq      gap      omega  full diag
[...]
         ::.................................................::
         :: SCC energy              -100.792215611511 Eh    ::
         :: -> isotropic ES            0.111085130115 Eh    ::
         :: -> anisotropic ES          0.002754731213 Eh    ::
         :: -> anisotropic XC          0.044190159837 Eh    ::
         :: -> dispersion             -0.073812922288 Eh    ::
         :: repulsion energy           1.381073349955 Eh    ::
         :: add. restraining           0.000013176040 Eh    ::
         :: total charge               1.000000000000 e     ::
         :::::::::::::::::::::::::::::::::::::::::::::::::::::

           -------------------------------------------------
          |                Property Printout                |
           -------------------------------------------------

    * Orbital Energies and Occupations

         #    Occupation            Energy/Eh            Energy/eV
      -------------------------------------------------------------
         1        2.0000           -0.8069317             -21.9577
       ...           ...                  ...                  ...
        78        1.9989           -0.5338779             -14.5276
        79        1.9986           -0.5293053             -14.4031
        80        1.9983           -0.5266285             -14.3303
        81        1.9978           -0.5228520             -14.2275
        82        1.9976           -0.5211196             -14.1804
        83        1.9968           -0.5166626             -14.0591
        84        1.9958           -0.5123433             -13.9416
        85        1.9942           -0.5073481             -13.8056
        86        1.9830           -0.4901675             -13.3381
        87        1.9797           -0.4873762             -13.2622
        88        1.9458           -0.4715218             -12.8308
        89        1.8709           -0.4571565             -12.4399
        90        1.8681           -0.4568018             -12.4302 (HOMO)
        91        0.3589           -0.3907617             -10.6332 (LUMO)
        92        0.0113           -0.3330279              -9.0621
        93        0.0033           -0.3133970              -8.5280
        94        0.0032           -0.3131591              -8.5215
        95        0.0027           -0.3103531              -8.4451
        96        0.0027           -0.3101571              -8.4398
        97        0.0000           -0.1876810              -5.1071
        98        0.0000           -0.1871141              -5.0916
        99                         -0.1310347              -3.5656
       100                         -0.0651569              -1.7730
       101                         -0.0618061              -1.6818
       ...                                ...                  ...
       171                          0.5754637              15.6592
      -------------------------------------------------------------
                  HL-Gap            0.0660401 Eh            1.7970 eV
             Fermi-level           -0.4148281 Eh          -11.2880 eV

     #   Z          covCN         q      C6AA      α(0)
     1   7 N        1.775    -0.309    28.826     7.951
     2   6 C        2.826     0.102    25.735     8.313
     3   6 C        3.907     0.004    20.461     6.429
     4   6 C        2.972     0.004    27.920     8.667
     5   6 C        2.921    -0.078    29.954     8.975
     6   6 C        2.862     0.129    25.171     8.224
     7   8 O        1.706    -0.231    17.829     5.701
     8   6 C        3.645     0.028    20.440     6.498
     9   6 C        2.864     0.128    25.193     8.227
    10   8 O        1.706    -0.230    17.819     5.699
    11   6 C        3.645     0.028    20.441     6.498
    12   6 C        2.914    -0.074    29.842     8.958
    13   6 C        2.922    -0.053    29.329     8.881
    14   6 C        3.806    -0.072    21.865     6.657
    15   6 C        3.801    -0.064    21.735     6.638
    16   6 C        3.757    -0.035    21.249     6.572
    17   7 N        2.729     0.033    20.668     6.752
    18   6 C        2.861     0.013    27.711     8.629
    19   6 C        3.810    -0.071    21.859     6.655
    20   6 C        2.981     0.003    27.960     8.674
    21   6 C        2.921    -0.050    29.244     8.868
    22   6 C        2.914    -0.067    29.673     8.932
    23   6 C        2.865     0.133    25.087     8.210
    24   8 O        1.706    -0.223    17.703     5.681
    25   6 C        3.645     0.025    20.491     6.506
    26   6 C        2.863     0.132    25.101     8.212
    27   8 O        1.706    -0.226    17.755     5.689
    28   6 C        3.645     0.028    20.441     6.498
    29   6 C        2.918    -0.080    29.987     8.980
    30   6 C        3.701    -0.073    22.059     6.716
    31   6 C        3.857    -0.013    20.769     6.481
    32   6 C        3.754    -0.110    22.668     6.789
    33   6 C        3.755    -0.112    22.704     6.794
    34   1 H        0.926     0.053     2.278     2.360
    35   1 H        0.924     0.053     2.279     2.361
    36   1 H        0.925     0.080     1.977     2.199
    37   1 H        0.924     0.048     2.351     2.398
    38   1 H        0.924     0.054     2.272     2.357
    39   1 H        0.925     0.080     1.977     2.199
    40   1 H        0.924     0.048     2.350     2.398
    41   1 H        0.926     0.051     2.311     2.377
    42   1 H        0.926     0.036     2.506     2.476
    43   1 H        0.924     0.053     2.283     2.363
    44   1 H        0.925     0.072     2.063     2.246
    45   1 H        0.924     0.047     2.358     2.401
    46   1 H        0.924     0.049     2.328     2.386
    47   1 H        0.924     0.026     2.647     2.544
    48   1 H        0.925     0.095     1.835     2.118
    49   1 H        0.925     0.076     2.024     2.225
    50   1 H        0.926     0.080     1.981     2.201
    51   1 H        0.924     0.085     1.924     2.169
    52   1 H        0.925     0.068     2.107     2.270
    53   1 H        0.926     0.049     2.331     2.388
    54   1 H        0.926     0.060     2.197     2.318
    55   1 H        0.924     0.054     2.269     2.356
    56   1 H        0.924     0.056     2.249     2.345
    57   1 H        0.925     0.082     1.957     2.188
    58   1 H        0.925     0.082     1.962     2.190
    59   1 H        0.924     0.046     2.365     2.405
    60   1 H        0.924     0.052     2.300     2.372
    61   1 H        0.926     0.045     2.387     2.416
    62   1 H        0.924     0.082     1.959     2.189
    63   1 H        0.925     0.083     1.947     2.182
    64   1 H        0.924     0.079     1.986     2.204
    65   1 H        0.924     0.041     2.437     2.442
    66   1 H        0.925     0.043     2.410     2.427
    67   1 H        0.925     0.039     2.464     2.455
    68   1 H        0.925     0.049     2.329     2.386
    69   1 H        0.925     0.039     2.462     2.454
    70   1 H        0.925     0.043     2.410     2.427
    71   1 H        0.925     0.053     2.279     2.361
    72   1 H        0.860     0.152     1.386     1.844

 Mol. C6AA /au·bohr⁶  :      47439.581013
 Mol. C8AA /au·bohr⁸  :    1081830.262129
 Mol. α(0) /au        :        334.350381


Wiberg/Mayer (AO) data.
largest (>0.10) Wiberg bond orders for each atom

 ---------------------------------------------------------------------------
     #   Z sym  total        # sym  WBO       # sym  WBO       # sym  WBO
 ---------------------------------------------------------------------------
     1   7 N    2.999 --     2 C    1.938    72 H    0.945
     2   6 C    3.937 --     1 N    1.938     3 C    0.998    47 H    0.935
     3   6 C    3.980 --     2 C    0.998     4 C    0.973    14 C    0.968
                            31 C    0.932
     4   6 C    3.949 --    13 C    1.415     5 C    1.368     3 C    0.973
     5   6 C    3.962 --     6 C    1.402     4 C    1.368    34 H    0.958
     6   6 C    3.904 --     5 C    1.402     9 C    1.223     7 O    1.098
     7   8 O    2.252 --     6 C    1.098     8 C    0.979
     8   6 C    3.933 --     7 O    0.979    36 H    0.977    37 H    0.973
                            35 H    0.973
     9   6 C    3.900 --    12 C    1.392     6 C    1.223    10 O    1.099
    10   8 O    2.249 --     9 C    1.099    11 C    0.978
    11   6 C    3.932 --    10 O    0.978    39 H    0.977    38 H    0.974
                            40 H    0.974
    12   6 C    3.962 --    13 C    1.406     9 C    1.392    41 H    0.964
    13   6 C    3.953 --     4 C    1.415    12 C    1.406    42 H    0.962
    14   6 C    3.982 --    15 C    1.006    43 H    0.970     3 C    0.968
                            44 H    0.968
    15   6 C    3.979 --    14 C    1.006    16 C    0.984    46 H    0.974
                            45 H    0.971
    16   6 C    3.947 --    15 C    0.984    17 N    0.980    48 H    0.959
                            49 H    0.958
    17   7 N    3.514 --    18 C    1.462    30 C    0.996    16 C    0.980
    18   6 C    3.614 --    17 N    1.462    19 C    1.049    50 H    0.956
    19   6 C    3.986 --    18 C    1.049    52 H    0.966    20 C    0.964
                            51 H    0.934
    20   6 C    3.931 --    21 C    1.409    29 C    1.379    19 C    0.964
    21   6 C    3.953 --    22 C    1.417    20 C    1.409    53 H    0.968
    22   6 C    3.962 --    21 C    1.417    23 C    1.383    54 H    0.963
    23   6 C    3.900 --    22 C    1.383    26 C    1.223    24 O    1.110
    24   8 O    2.258 --    23 C    1.110    25 C    0.976
    25   6 C    3.928 --    57 H    0.977    24 O    0.976    56 H    0.973
                            55 H    0.973
    26   6 C    3.904 --    29 C    1.394    23 C    1.223    27 O    1.101
    27   8 O    2.256 --    26 C    1.101    28 C    0.979
    28   6 C    3.933 --    27 O    0.979    58 H    0.977    59 H    0.974
                            60 H    0.974
    29   6 C    3.960 --    26 C    1.394    20 C    1.379    61 H    0.962
    30   6 C    3.958 --    17 N    0.996    63 H    0.977    62 H    0.969
                            64 H    0.965
    31   6 C    3.982 --    32 C    1.009    33 C    1.009    65 H    0.960
                             3 C    0.932
    32   6 C    3.989 --    31 C    1.009    68 H    0.983    67 H    0.982
                            66 H    0.981
    33   6 C    3.989 --    31 C    1.009    70 H    0.983    69 H    0.982
                            71 H    0.982
    34   1 H    0.996 --     5 C    0.958
    35   1 H    0.993 --     8 C    0.973
    36   1 H    0.993 --     8 C    0.977
    37   1 H    0.994 --     8 C    0.973
    38   1 H    0.993 --    11 C    0.974
    39   1 H    0.993 --    11 C    0.977
    40   1 H    0.993 --    11 C    0.974
    41   1 H    0.996 --    12 C    0.964
    42   1 H    0.998 --    13 C    0.962
    43   1 H    0.996 --    14 C    0.970
    44   1 H    0.993 --    14 C    0.968
    45   1 H    0.997 --    15 C    0.971
    46   1 H    0.996 --    15 C    0.974
    47   1 H    0.986 --     2 C    0.935
    48   1 H    0.990 --    16 C    0.959
    49   1 H    0.989 --    16 C    0.958
    50   1 H    0.994 --    18 C    0.956
    51   1 H    0.974 --    19 C    0.934
    52   1 H    0.995 --    19 C    0.966
    53   1 H    0.997 --    21 C    0.968
    54   1 H    0.995 --    22 C    0.963
    55   1 H    0.992 --    25 C    0.973
    56   1 H    0.992 --    25 C    0.973
    57   1 H    0.993 --    25 C    0.977
    58   1 H    0.993 --    28 C    0.977
    59   1 H    0.994 --    28 C    0.974
    60   1 H    0.994 --    28 C    0.974
    61   1 H    0.997 --    29 C    0.962
    62   1 H    0.986 --    30 C    0.969
    63   1 H    0.993 --    30 C    0.977
    64   1 H    0.985 --    30 C    0.965
    65   1 H    0.996 --    31 C    0.960
    66   1 H    0.997 --    32 C    0.981
    67   1 H    0.998 --    32 C    0.982
    68   1 H    0.996 --    32 C    0.983
    69   1 H    0.997 --    33 C    0.982
    70   1 H    0.997 --    33 C    0.983
    71   1 H    0.995 --    33 C    0.982
    72   1 H    0.972 --     1 N    0.945
 ---------------------------------------------------------------------------

Topologies differ in total number of bonds
Writing topology from bond orders to xtbtopo.mol

molecular dipole:
                 x           y           z       tot (Debye)
 q only:        0.989      -0.275      -1.088
   full:        0.750      -0.212      -0.738       2.729
molecular quadrupole (traceless):
                xx          xy          yy          xz          yz          zz
 q only:       46.507       3.480     -15.394      -3.863      -7.423     -31.112
  q+dip:       42.154       2.950     -16.488      -7.984      -6.726     -25.665
   full:       42.153       1.304     -16.109      -9.826      -6.046     -26.044

           -------------------------------------------------
          |                Geometry Summary                 |
           -------------------------------------------------

      molecular mass/u    :      455.6105846
   center of mass at/Å    :        0.0326748      -0.0065294      -0.0150673
  moments of inertia/u·Å² :        0.2526560E+04   0.1044098E+05   0.1151568E+05
rotational constants/cm⁻¹ :        0.6672168E-02   0.1614565E-02   0.1463885E-02

 * 67 selected distances

     #   Z          #   Z                                           value/Å
     1   7 N        2   6 C                                       1.2556447
     4   6 C        5   6 C                                       1.3963304
     5   6 C        6   6 C                                       1.3846945
     6   6 C        7   8 O                                       1.3494369
     7   8 O        8   6 C                                       1.4076372
     6   6 C        9   6 C                                       1.4207369
     9   6 C       10   8 O                                       1.3493823
    10   8 O       11   6 C                                       1.4080310
     9   6 C       12   6 C                                       1.3856735
     4   6 C       13   6 C                                       1.3867340
    12   6 C       13   6 C                                       1.3888861
    14   6 C       15   6 C                                       1.5289149
    15   6 C       16   6 C                                       1.5319693 (max)
    16   6 C       17   7 N                                       1.4451130
    17   7 N       18   6 C                                       1.3150116
    18   6 C       19   6 C                                       1.4785702
    20   6 C       21   6 C                                       1.3848469
    21   6 C       22   6 C                                       1.3859646
    22   6 C       23   6 C                                       1.3875512
    23   6 C       24   8 O                                       1.3460994
    24   8 O       25   6 C                                       1.4096974
    23   6 C       26   6 C                                       1.4218076
    26   6 C       27   8 O                                       1.3482220
    27   8 O       28   6 C                                       1.4070988
    20   6 C       29   6 C                                       1.3920975
    26   6 C       29   6 C                                       1.3865243
    17   7 N       30   6 C                                       1.4440258
    31   6 C       32   6 C                                       1.5283790
    31   6 C       33   6 C                                       1.5277321
     5   6 C       34   1 H                                       1.0771177 (min)
     8   6 C       35   1 H                                       1.0941114
     8   6 C       36   1 H                                       1.0883455
     8   6 C       37   1 H                                       1.0947553
    11   6 C       38   1 H                                       1.0941312
    11   6 C       39   1 H                                       1.0880480
    11   6 C       40   1 H                                       1.0947130
    12   6 C       41   1 H                                       1.0781780
    13   6 C       42   1 H                                       1.0795484
    14   6 C       43   1 H                                       1.0904659
    14   6 C       44   1 H                                       1.0887619
    15   6 C       45   1 H                                       1.0909488
    15   6 C       46   1 H                                       1.0930006
     2   6 C       47   1 H                                       1.0934289
    16   6 C       48   1 H                                       1.0899086
    16   6 C       49   1 H                                       1.0891544
    18   6 C       50   1 H                                       1.0795817
    19   6 C       51   1 H                                       1.0944793
    19   6 C       52   1 H                                       1.0877012
    21   6 C       53   1 H                                       1.0791900
    22   6 C       54   1 H                                       1.0775357
    25   6 C       55   1 H                                       1.0944533
    25   6 C       56   1 H                                       1.0940131
    25   6 C       57   1 H                                       1.0883334
    28   6 C       58   1 H                                       1.0881733
    28   6 C       59   1 H                                       1.0949905
    28   6 C       60   1 H                                       1.0945102
    29   6 C       61   1 H                                       1.0787482
    30   6 C       62   1 H                                       1.0912706
    30   6 C       63   1 H                                       1.0871245
    30   6 C       64   1 H                                       1.0924251
    31   6 C       65   1 H                                       1.0933197
    32   6 C       66   1 H                                       1.0868011
    32   6 C       67   1 H                                       1.0870654
    32   6 C       68   1 H                                       1.0870559
    33   6 C       69   1 H                                       1.0875483
    33   6 C       70   1 H                                       1.0864709
    33   6 C       71   1 H                                       1.0876893

 * 4 distinct bonds (by element types)

   Z      Z             #   av. dist./Å        max./Å        min./Å
   1 H    6 C          38     1.0885026     1.0949905     1.0771177
   6 C    6 C          17     1.4304361     1.5319693     1.3846945
   6 C    7 N           4     1.3649488     1.4451130     1.2556447
   6 C    8 O           8     1.3782006     1.4096974     1.3460994


optimized geometry written to: xtbopt.xyz


           -------------------------------------------------
          | TOTAL ENERGY              -99.409645270901 Eh   |
          | GRADIENT NORM               0.002475936814 Eh/α |
          | HOMO-LUMO GAP               1.797042169703 eV   |
           -------------------------------------------------

------------------------------------------------------------------------
 * finished run on 2024/04/06 at 11:14:02.849     
------------------------------------------------------------------------
 total:
 * wall-time:     0 d,  0 h,  0 min, 14.356 sec
 *  cpu-time:     0 d,  0 h,  0 min, 14.336 sec
 * ratio c/w:     0.999 speedup
 SCF:
 * wall-time:     0 d,  0 h,  0 min,  0.190 sec
 *  cpu-time:     0 d,  0 h,  0 min,  0.190 sec
 * ratio c/w:     1.000 speedup
 ANC optimizer:
 * wall-time:     0 d,  0 h,  0 min, 14.125 sec
 *  cpu-time:     0 d,  0 h,  0 min, 14.121 sec
 * ratio c/w:     1.000 speedup

