25
 energy: -40.427821622063 gnorm: 8.787431032811 xtb: 6.6.1 (8d0f1dd)
C            3.24224050628902        1.21547374040251       -0.05798089927503
N            2.19296461138614        0.28805886403181       -0.05327374934587
C            3.51340666253436       -0.29320912322987       -0.15432500911227
N            1.18690540533138       -2.20251126395619       -0.10467613118739
C            0.35983963836766       -1.23837511398510       -0.05987148523715
C            0.91467604831867        0.10756672209631       -0.01491836829846
C            0.04866598967645        1.30222828670021        0.07398561765137
O            0.51554178142921        2.41736185294270        0.13895875306353
N           -1.29639117650736        1.03270222250232        0.07531428174557
C           -2.22593120694967        2.14631658210657        0.14971351688580
C           -1.87371065120273       -0.23200884684384        0.00578626449247
O           -3.06827581463210       -0.36341565662419        0.00140542936191
N           -1.01732658703160       -1.32593804443116       -0.05194666881861
C           -1.62942750516195       -2.64188524442217       -0.12060727507645
H            3.41959447721796        1.77185101960416        0.85498038783574
H            3.65231493397017       -0.48938128256282       -0.50404053024121
H            3.35207191857350        1.81528304745606       -0.95626445852268
H            3.78704364547299       -0.69271033717594        0.86198470367035
H           -1.65546250155449        3.06023702285028        0.30063937144044
H           -2.80302344990287        2.21235097676909       -0.77409704891157
H           -2.92345071173793        1.98829851993011        0.97286079288317
H           -1.32677911963041       -3.24669344699336        0.73584391196017
H           -1.34463355168032       -3.14430819629234       -1.04682639824064
H           -2.71053181490960       -2.51488399010419       -0.10261412936530
H            0.85010998643387       -3.15416976917098       -0.13885926145808
25
 energy: -42.132570723140 gnorm: 0.153983763301 xtb: 6.6.1 (8d0f1dd)
C            3.23942730549529        1.22208358653339       -0.05325764815221
N            2.18646615763133        0.29379009134221       -0.04869774043797
C            3.41959892348688       -0.16229623393888        0.08357701230833
N            1.18690163321273       -2.20251896070380       -0.10466792211348
C            0.35982904954049       -1.23841180462821       -0.05989969658535
C            0.91420046228546        0.10723068267148       -0.01481481167790
C            0.04862419233169        1.30221656879305        0.07397907779829
O            0.51553707563615        2.41737067066749        0.13895265762664
N           -1.29639300444592        1.03269321240919        0.07532388775918
C           -2.22593945685150        2.14632782624280        0.14971403582020
C           -1.87374933381385       -0.23202113942933        0.00578891011369
O           -3.06826764554894       -0.36340891885196        0.00140659267405
N           -1.01728188510407       -1.32593175505760       -0.05196432661101
C           -1.62943296261399       -2.64189721031215       -0.12060589115293
H            3.41950260499545        1.77259117915176        0.85491947007290
H            3.75793505143498       -0.63473415727802       -0.76062673190390
H            3.35234791419902        1.81470175192830       -0.95653207239006
H            3.78488267436515       -0.69038049421587        0.87162503568786
H           -1.65546520448387        3.06023398284678        0.30063437391651
H           -2.80302350776992        2.21234867706388       -0.77409597574650
H           -2.92344802558901        1.98829910935118        0.97285849729800
H           -1.32677936598856       -3.24668983209061        0.73585090492370
H           -1.34463162045408       -3.14430895775146       -1.04682207648630
H           -2.71053242509797       -2.51488185805167       -0.10261343094613
H            0.85012290724742       -3.15416747509198       -0.13886051389578
25
 energy: -42.151923342509 gnorm: 0.056182286594 xtb: 6.6.1 (8d0f1dd)
C            3.23129462830912        1.25185250229746       -0.04468112697885
N            2.17854375188265        0.30392722954070       -0.05005042251433
C            3.46216634382445       -0.20609484657936        0.05857634336642
N            1.18537176145616       -2.19715546892781       -0.10260538331878
C            0.35577196714814       -1.23483196970184       -0.05295560094364
C            0.90411358712084        0.11451384179927       -0.01434068012338
C            0.03911329286560        1.30746836530622        0.06036793524202
O            0.50637470038924        2.42195155840726        0.13386691929190
N           -1.30396998391296        1.03472340333115        0.07329294992747
C           -2.23150103668056        2.14828795998376        0.15418961672544
C           -1.87874737194899       -0.23143530630200        0.00682222623333
O           -3.07282040175944       -0.36452597676715        0.00435527389634
N           -1.02051805927080       -1.32456733256708       -0.05047169879826
C           -1.63055622227686       -2.64160749124472       -0.12131825007413
H            3.35889659842388        1.84564668184054        0.85618931599437
H            3.79940932258168       -0.67530703990613       -0.79161966957795
H            3.37741995449648        1.81530294517662       -0.95941169934054
H            3.82619020018830       -0.76027056319134        0.91669694259676
H           -1.65786143779968        3.06037698621429        0.30438337014657
H           -2.80922723526944        2.21524684648076       -0.76874162966651
H           -2.92571698653497        1.98927353284872        0.97942506401160
H           -1.32727147755840       -3.24672529489051        0.73466565022762
H           -1.34510545786395       -3.14286060769970       -1.04796416982016
H           -2.71164197442682       -2.51530640455765       -0.10332434571420
H            0.85070305071665       -3.14964500929146       -0.14417531288928
25
 energy: -42.155193442939 gnorm: 0.050138119184 xtb: 6.6.1 (8d0f1dd)
C            3.23183574687077        1.25452838207224       -0.02170451247818
N            2.18345534398819        0.30504956610554       -0.04177735738313
C            3.48349399961425       -0.21948638023902        0.02485336789009
N            1.18423294008566       -2.19592581085813       -0.09493220581103
C            0.35541813632403       -1.23349442924232       -0.04585431939752
C            0.90590463358249        0.11545059190659       -0.00985176362461
C            0.03689056158428        1.30817974712238        0.05323079914755
O            0.50245771938160        2.42417212880390        0.11899790791879
N           -1.30688374132845        1.03525687660928        0.06984065011042
C           -2.23601470648130        2.14842791476332        0.15302504155684
C           -1.88101118299871       -0.23129306102067        0.00741274327196
O           -3.07504112448558       -0.36533029775664        0.00584822202417
N           -1.02116023660247       -1.32347639130542       -0.04766577058543
C           -1.63128335301254       -2.64069426206226       -0.11882002629129
H            3.32465315331188        1.86052656839666        0.87707658189793
H            3.82024820481465       -0.68556940560969       -0.83261563649506
H            3.40641701333271        1.80713554501357       -0.93790421679683
H            3.82192584452510       -0.76263287411964        0.90735726031726
H           -1.66304782653938        3.06090776610617        0.30302956433155
H           -2.81718638755084        2.21723977893393       -0.76769148589194
H           -2.92813941238942        1.98924866135309        0.98002865979828
H           -1.32860513631423       -3.24562851134998        0.73745536304651
H           -1.34455810800223       -3.14157130851458       -1.04523307198858
H           -2.71253238315142       -2.51495833474521       -0.10221234042400
H            0.84896181554137       -3.14782391876315       -0.14072183624393
25
 energy: -42.156464282427 gnorm: 0.048169695993 xtb: 6.6.1 (8d0f1dd)
C            3.23182806549793        1.25297180670830       -0.00379857852884
N            2.18757404426975        0.30597413735828       -0.03644786551644
C            3.49654249497731       -0.22783621682671       -0.00313190982270
N            1.18372628304141       -2.19512015015718       -0.09118919250754
C            0.35609938516492       -1.23169873131489       -0.04586714641014
C            0.90917499117942        0.11626948618308       -0.00861821250578
C            0.03689691447588        1.30856003932863        0.05364084980505
O            0.49996550839106        2.42666124213409        0.10460680505057
N           -1.30767619230165        1.03568732570610        0.06887081198823
C           -2.23893450626657        2.14803065036267        0.15047453957331
C           -1.88179301001829       -0.23083002190997        0.00819232988666
O           -3.07576059077470       -0.36569238025307        0.00773970171457
N           -1.02069031610781       -1.32194060034028       -0.04692192420485
C           -1.63065762426775       -2.63956876428065       -0.11614132452046
H            3.31886488959076        1.85134550267838        0.89564717438070
H            3.83393588732942       -0.69400965971937       -0.86824744273336
H            3.41400064012599        1.81102787912786       -0.91409008439345
H            3.80411498614712       -0.75194440184895        0.90158682571503
H           -1.66812650613484        3.06193280154262        0.29989350423244
H           -2.82205403239958        2.21630918046759       -0.76916136708947
H           -2.93024177411274        1.98768167144349        0.97814929691759
H           -1.32811845489085       -3.24369446939425        0.74072922689134
H           -1.34380040415685       -3.14105690523217       -1.04216936230600
H           -2.71198106675826       -2.51415861689418       -0.09985557412430
H            0.84754190209938       -3.14666226326943       -0.13271946359239
25
 energy: -42.156990986018 gnorm: 0.042383780044 xtb: 6.6.1 (8d0f1dd)
C            3.23282934179263        1.24892901873934        0.00434968795569
N            2.18917146049893        0.30649178836920       -0.03435814183084
C            3.49805466185502       -0.23125947416371       -0.01526145877049
N            1.18381123153392       -2.19440070434513       -0.09112824870488
C            0.35679974033515       -1.23016440019074       -0.04966030802858
C            0.91108218966798        0.11715633965372       -0.01053483432957
C            0.03755307496042        1.30935412699966        0.05219732060474
O            0.49891306620350        2.42841962095472        0.09569817727685
N           -1.30728039080604        1.03610633667963        0.06841184706121
C           -2.24001570399806        2.14748837208892        0.14911401232282
C           -1.88156319662438       -0.23033499878584        0.00863627962433
O           -3.07545415968881       -0.36573609141268        0.01030931036154
N           -1.01996014470148       -1.32077552555151       -0.04814039697077
C           -1.62939825873471       -2.63886345384937       -0.11457845156816
H            3.33119506393756        1.83453232625507        0.90871246028971
H            3.83659137424014       -0.69990361174133       -0.88632640059256
H            3.40744296387632        1.82022047047364       -0.89944433825519
H            3.78947640694548       -0.73877600552036        0.90081678853729
H           -1.67111196922286        3.06283161199973        0.29660208052164
H           -2.82420856622400        2.21335672129139       -0.77004464495986
H           -2.93063346954259        1.98642667878084        0.97740764664725
H           -1.32652978254170       -3.24137541194840        0.74331494874295
H           -1.34274506215633       -3.14182056521400       -1.03985519468911
H           -2.71074722992894       -2.51368214015844       -0.09798142835399
H            0.84715887242337       -3.14598248780436       -0.12708509499222
25
 energy: -42.157461857490 gnorm: 0.030601537534 xtb: 6.6.1 (8d0f1dd)
C            3.23513578005494        1.24358232887725        0.01192156390633
N            2.18951255650903        0.30763350183996       -0.02982244708247
C            3.49359590913188       -0.23269856075190       -0.02501094463481
N            1.18446804641033       -2.19305427712746       -0.09213902609212
C            0.35754640363827       -1.22832771409711       -0.05499240324304
C            0.91201899334042        0.11865246570623       -0.01353318807048
C            0.03801055801943        1.31081752982071        0.04926899567009
O            0.49775399687771        2.43047895291731        0.08677163709449
N           -1.30670889761342        1.03661380966354        0.06778446168593
C           -2.24084668187202        2.14688694841669        0.14651151066574
C           -1.88099258674273       -0.22988776385605        0.00917161596684
O           -3.07476133239696       -0.36592910378477        0.01386479800309
N           -1.01903205427016       -1.31969655012644       -0.05038524464024
C           -1.62749975703344       -2.63843004645324       -0.11239872760825
H            3.35809248026723        1.80910739444202        0.92664384194030
H            3.83302850857435       -0.70522364011163       -0.90545021528090
H            3.39165859387952        1.83704625239776       -0.88268182732352
H            3.77588143999336       -0.72723831268944        0.89787138279555
H           -1.67386128906426        3.06390039419193        0.29035000100054
H           -2.82611998241267        2.20839938668628       -0.77231565368711
H           -2.93041734347235        1.98624083749085        0.97582781132487
H           -1.32433284469702       -3.23770643556998        0.74770382501627
H           -1.34058840181926       -3.14438131561870       -1.03590549808362
H           -2.70889219417398       -2.51365368503963       -0.09578101361826
H            0.84778161297238       -3.14489385562423       -0.12210363780544
25
 energy: -42.157713808067 gnorm: 0.020629038168 xtb: 6.6.1 (8d0f1dd)
C            3.23738360551588        1.24129425360922        0.01685000374212
N            2.18832322111684        0.30914484942042       -0.02284068370064
C            3.48741713700783       -0.23234883271822       -0.02905163179582
N            1.18539378799941       -2.19135901983872       -0.09355414629311
C            0.35776748837991       -1.22709001508356       -0.05766346939686
C            0.91106569841262        0.12017974915659       -0.01395874750652
C            0.03729303112855        1.31219944776520        0.04788533433952
O            0.49651085574362        2.43195783159132        0.08311902663927
N           -1.30705430195008        1.03698903997283        0.06735983546383
C           -2.24175226388335        2.14679919211148        0.14310791406493
C           -1.88083800620624       -0.22982320250547        0.00964992540808
O           -3.07450504656207       -0.36640895681014        0.01618363545966
N           -1.01862661368362       -1.31930658533969       -0.05186758276549
C           -1.62621000926320       -2.63853751560113       -0.11025977644077
H            3.38046572850654        1.79200428027494        0.93978321254753
H            3.82625829262301       -0.70713152775201       -0.91845256305347
H            3.37887194199504        1.85050561452277       -0.87083440434445
H            3.77600073154103       -0.72839817520385        0.89046202115108
H           -1.67534928293306        3.06465680662338        0.28351192601539
H           -2.82737648866570        2.20451279151701       -0.77576792115868
H           -2.93070647543727        1.98826587694438        0.97326052063275
H           -1.32326487526155       -3.23468614895747        0.75217328769630
H           -1.33828232690706       -3.14742633533715       -1.03176638156544
H           -2.70766706844843       -2.51427028557671       -0.09453240649557
H            0.84931275333197       -3.14348459118549       -0.12162531074390
25
 energy: -42.157915403246 gnorm: 0.011554475472 xtb: 6.6.1 (8d0f1dd)
C            3.23971350437571        1.24118456302015        0.02161690250169
N            2.18648292419248        0.31119995949313       -0.01337848475547
C            3.48155683178883       -0.23181735723138       -0.03031369636189
N            1.18660340669467       -2.18905461728222       -0.09632916517517
C            0.35779011241312       -1.22589845991545       -0.05872208183467
C            0.90919954855916        0.12201521176467       -0.01188379025558
C            0.03562850447127        1.31363964258242        0.04844316726950
O            0.49480146656356        2.43338953826639        0.08263696917951
N           -1.30831864277420        1.03740901127627        0.06729271911353
C           -2.24332564471977        2.14709425384776        0.13873705227894
C           -1.88109819790509       -0.22994142897770        0.01057559176103
O           -3.07467335683767       -0.36721752575915        0.01844222713112
N           -1.01847640247640       -1.31911102632735       -0.05258862539534
C           -1.62518689688180       -2.63880425877479       -0.10766470501886
H            3.39650477640328        1.78138298806897        0.95014668665356
H            3.81895152039391       -0.70805348538083       -0.93013029199033
H            3.37085604964336        1.86024665726171       -0.86067683170672
H            3.78497837552430       -0.73876705688487        0.87909702541137
H           -1.67682620094221        3.06550262154403        0.27519229624320
H           -2.82899797724075        2.20076181845619       -0.78034593829568
H           -2.93193966859993        1.99226640289189        0.96976972416035
H           -1.32300899521338       -3.23174172779965        0.75733880358437
H           -1.33554378187621       -3.15075982918391       -1.02686308832353
H           -2.70673787095411       -2.51521190626224       -0.09377116293154
H            0.85149812949856       -3.14147544709408       -0.12544968534366
25
 energy: -42.158036898901 gnorm: 0.005623527832 xtb: 6.6.1 (8d0f1dd)
C            3.24126067164677        1.24265771979350        0.02471000965762
N            2.18524784798515        0.31294419303889       -0.00718326481935
C            3.47927472450629       -0.23166401351114       -0.02799887738997
N            1.18755535527762       -2.18707782971983       -0.10064608980568
C            0.35778987240449       -1.22501939588839       -0.05848093811080
C            0.90779640312602        0.12344767755373       -0.00893806366931
C            0.03396596818782        1.31456870706121        0.05037300195358
O            0.49328507062837        2.43434507021077        0.08472245609850
N           -1.30982533945687        1.03778223230383        0.06765901048669
C           -2.24503560326739        2.14752200174480        0.13547106352892
C           -1.88157270567576       -0.23008258082009        0.01209688297746
O           -3.07508712495889       -0.36801727138206        0.02094569744897
N           -1.01846188339142       -1.31894463182790       -0.05203497598933
C           -1.62463810998592       -2.63890480223432       -0.10542987160997
H            3.39776535247598        1.78113402208185        0.95410076332775
H            3.81584843362855       -0.70873254941000       -0.93616096004317
H            3.37295013040190        1.86147677065801       -0.85632694133508
H            3.79470023414721       -0.75162835213698        0.87046436678694
H           -1.67818202517114        3.06629961378178        0.26835868768735
H           -2.83102398074736        2.19787122399276       -0.78356716942129
H           -2.93329204974735        1.99639726606904        0.96746009984789
H           -1.32344521474151       -3.22988767303511        0.76128675485518
H           -1.33336545042994       -3.15274977899349       -1.02301849292103
H           -2.70626923509955       -2.51585375457537       -0.09351954056261
H            0.85319017235765       -3.13964532315556       -0.13317199107952
