25
 energy: 54.755756054340 xtb: 6.6.1 (8d0f1dd)
C            3.61436721603260        0.86723957528387        0.11320110582634
N            2.60719982916448       -0.15840610887843        0.04228581589749
C            2.84651428284793       -1.46084397633959       -0.02801554738062
N            1.66722484818918       -2.13396355604630       -0.05497422814303
C            0.64471459645525       -1.20825561252205        0.00176660353840
C            1.25602749085731        0.04419323400907        0.06145256796129
C            0.43806034625593        1.27528841038728        0.09179130298177
O            0.93883919196708        2.38901706329589        0.11080281187755
N           -0.87651610974965        1.02861509723275        0.08034925475608
C           -3.91030661701141        3.11642784856974       -0.18481253802141
C           -1.53932851682274       -0.07805643374905        0.03459597160506
O           -2.71611363060204       -0.30688645987802        0.02412831365921
N           -0.65709787622704       -1.40133250030692       -0.00169723424387
C           -1.28335295970571       -2.68784448261100       -0.03347745232241
H            4.01661076838732        0.91578278558089        1.12584348541938
H            4.42480377235343        0.65013620304756       -0.58077404327520
H            3.15617507168605        1.82679341804337       -0.12567168383549
H            3.81459548710662       -1.92231481354713       -0.06666808524707
H           -3.19135437196841        3.90031729030048       -0.15967516830323
H           -4.18029889483152        2.67673072336185       -1.11994233968520
H           -4.32462106765128        2.75106339139974        0.72774805477939
H           -0.99897318557953       -3.28867001146428        0.83661664940983
H           -1.03898030705394       -3.22707062055316       -0.95355060915495
H           -2.35858107542084       -2.50149761483396       -0.00310856880088
H            1.56768124256725       -3.13588336682021       -0.11830125087087
