72
 energy: -98.692847504427 gnorm: 0.536641189856 xtb: 6.6.1 (8d0f1dd)
N           -1.76193005640000        2.68809039490000        2.16561075690000
C           -1.81392228370000        2.09859410250000        1.08133793040000
C           -2.99818303880000        1.90878052960000        0.19426551210000
C           -3.47420768020000        0.46288616610000        0.29016935460000
C           -4.43996898430000       -0.00330483290000       -0.60559694700000
C           -4.90734960440000       -1.30341158230000       -0.54901311400000
O           -5.84189486830000       -1.83205458650000       -1.36894264620000
C           -6.48435378860000       -0.99877349280000       -2.30440982770000
C           -4.39114454530000       -2.19046899320000        0.43093961430000
O           -4.89992910430000       -3.44082021600000        0.40772263020000
C           -4.51112850180000       -4.35186622960000        1.40912255350000
C           -3.43511326170000       -1.72258510870000        1.31355738540000
C           -2.98111367860000       -0.40866204850000        1.24322743660000
C           -2.47045251030000        2.18397043220000       -1.23587677620000
C           -1.47571987170000        1.11081679340000       -1.70013674360000
C           -0.19215057170000        1.12223456150000       -0.94811234320000
N            0.48695402650000        0.04747564810000       -0.62908980020000
C            1.87021822860000        0.13519251890000       -0.21605257130000
C            2.81941785860000       -0.32581183060000       -1.33941966640000
C            4.24392292760000       -0.12352493640000       -0.90195514160000
C            4.88264146450000        1.08133466660000       -1.12134495740000
C            6.18800960400000        1.27795368180000       -0.69309369340000
C            6.87185053750000        0.27280297160000       -0.03030627110000
O            8.13841043760000        0.35481793720000        0.42933565920000
C            8.86463891520000        1.54224916140000        0.21315214960000
C            6.22121044210000       -0.96639385400000        0.20340198270000
O            6.96375871210000       -1.89293228770000        0.85193771310000
C            6.41260924760000       -3.16536282220000        1.08684883300000
C            4.91989947960000       -1.14163074550000       -0.22961125380000
C           -0.10277250520000       -1.27197772050000       -0.66216947800000
C           -4.18174943190000        2.86042035090000        0.54188400490000
C           -4.77882145680000        2.52266043580000        1.90521452570000
C           -3.79996368070000        4.33696620220000        0.49436836840000
H           -4.84608442540000        0.66829209330000       -1.34343626760000
H           -6.99017034260000       -0.16054920410000       -1.81549139590000
H           -7.22467198430000       -1.62792857270000       -2.79434799360000
H           -5.78339447990000       -0.61831877160000       -3.05508840310000
H           -4.75055450390000       -3.97602886010000        2.40832690300000
H           -5.08399757130000       -5.25695202810000        1.21797550200000
H           -3.44224443500000       -4.58235700430000        1.35091501830000
H           -3.03861563620000       -2.36743958090000        2.08081299180000
H           -2.25950307550000       -0.07392022930000        1.97347578210000
H           -3.30632486840000        2.20436494440000       -1.93224077560000
H           -1.99134820780000        3.16338780600000       -1.26219189450000
H           -1.95849599210000        0.13567224620000       -1.66062781910000
H           -1.22169907090000        1.32440625770000       -2.74469301900000
H           -0.90529018360000        1.64008053400000        0.56419419610000
H            0.37392199710000        2.04746758030000       -0.98604251350000
H            2.02536557410000       -0.48713025860000        0.66815008310000
H            2.11135775340000        1.16773970750000        0.04364891770000
H            2.61746873890000        0.26380064090000       -2.23549587270000
H            2.63911137330000       -1.37668388540000       -1.56711401720000
H            4.37572704210000        1.87855248040000       -1.64463939550000
H            6.66450184750000        2.22434101050000       -0.88882542020000
H            8.39416253530000        2.39709349260000        0.70917481150000
H            8.97735914890000        1.75517488520000       -0.85432591110000
H            9.84552877080000        1.36775315300000        0.65092718820000
H            7.19385207620000       -3.73412174010000        1.58723525720000
H            5.53409704130000       -3.11039713520000        1.73879122130000
H            6.14409508610000       -3.66702745220000        0.15148993930000
H            4.41812701060000       -2.08268422800000       -0.06578100610000
H           -0.25311068840000       -1.60653207460000       -1.68978132320000
H           -1.06636384320000       -1.27297341890000       -0.14547828480000
H            0.56056938020000       -1.97400688730000       -0.16416637320000
H           -4.94857957520000        2.68185888330000       -0.21896757860000
H           -4.05248601510000        2.70315952590000        2.69098665370000
H           -5.09432861870000        1.48362296430000        1.94857507950000
H           -5.64627851960000        3.15125487400000        2.08638966200000
H           -3.01677883380000        4.55459839510000        1.21465957680000
H           -3.47279210760000        4.64306305210000       -0.49585519760000
H           -4.66891364860000        4.93538561190000        0.75379582870000
H           -0.88837560850000        2.78045544800000        2.66936551290000
72
 energy: -98.901270860208 gnorm: 0.310790957058 xtb: 6.6.1 (8d0f1dd)
N           -1.76507166408675        2.68943418763516        2.16725543308913
C           -1.81599771796385        2.09494760000082        1.07918390451347
C           -3.00523314576467        1.92055668113383        0.18141806899623
C           -3.54159231448487        0.50394113799923        0.18885532598385
C           -4.46959136921023       -0.00416206570078       -0.63951763629432
C           -4.91326538068088       -1.30626097739122       -0.55459446866087
O           -5.84495361306209       -1.83633259610981       -1.36989061059772
C           -6.48490968332073       -0.99977226031721       -2.30465501926231
C           -4.38996115480156       -2.18614228522250        0.43005952675430
O           -4.89783069618785       -3.43830582566125        0.40930178043642
C           -4.51083654957090       -4.35155415992665        1.40943276624082
C           -3.43211795959567       -1.70646152014049        1.31026925391059
C           -2.96745093720710       -0.37704809454763        1.25078688035367
C           -2.46982419003536        2.18613737620016       -1.23994522397573
C           -1.47621355827939        1.11191776201432       -1.70271112544426
C           -0.19325612001603        1.12697809800397       -0.95002871113829
N            0.49024160703455        0.04259962171419       -0.62748096323586
C            1.87138006024231        0.13404542037316       -0.21638259641029
C            2.81994089149124       -0.32582861122004       -1.33915050594616
C            4.24385048282982       -0.12453051574490       -0.90215893436915
C            4.88337992045235        1.08166236272075       -1.12170138771808
C            6.18803828632598        1.27875821264192       -0.69339160011863
C            6.87290071431133        0.27320329872132       -0.02994330687477
O            8.13800528313661        0.35533104559342        0.42882793572150
C            8.86492067855668        1.54243799005884        0.21310195737672
C            6.22176837493905       -0.96713618081232        0.20404569021006
O            6.96301885585504       -1.89253444737085        0.85155542400668
C            6.41267942837236       -3.16549820656835        1.08707774363388
C            4.91938863874535       -1.14199019482709       -0.23010783901760
C           -0.10250886861448       -1.27324908510821       -0.66199019760095
C           -4.18403570767526        2.86308174742455        0.54104526678955
C           -4.77912164883892        2.52283604082169        1.90494661222123
C           -3.80024310224585        4.33784598735436        0.49439487297867
H           -4.86117270844178        0.66881213718343       -1.36087925818955
H           -6.99007521084462       -0.16106143717238       -1.81543727107327
H           -7.22517284130640       -1.62820851132438       -2.79472595195762
H           -5.78347390471991       -0.61885110826856       -3.05478640794704
H           -4.75039489802049       -3.97595904809471        2.40858449938652
H           -5.08394984005624       -5.25671496568993        1.21804794131266
H           -3.44217156191762       -4.58225289127366        1.35120267486831
H           -3.03910267961568       -2.36202503054096        2.07758516752270
H           -2.14344341391379       -0.18352445450937        2.15799650971534
H           -3.30664792296007        2.20557410930556       -1.93404207757127
H           -1.99033383096405        3.16400882723984       -1.26270943753049
H           -1.95788006315104        0.13606158825269       -1.66078820733801
H           -1.22317965061489        1.32407677882367       -2.74712106244780
H           -0.90795789534429        1.64049810406722        0.56695156277016
H            0.37434798489958        2.04861717596178       -0.98791919685421
H            2.02586482152889       -0.48719031640530        0.66878403733432
H            2.11060937801595        1.16743389669378        0.04351228096151
H            2.61752689682883        0.26360297339877       -2.23525282074753
H            2.63911306751846       -1.37659943965437       -1.56703348710671
H            4.37587092636188        1.87842870596622       -1.64463929253151
H            6.66454312176598        2.22480875435376       -0.88897424582464
H            8.39418715660487        2.39710359036337        0.70899678700300
H            8.97736392120546        1.75520231266282       -0.85436533752994
H            9.84568888602952        1.36782709024090        0.65090121384764
H            7.19404505430999       -3.73401950910666        1.58744390517719
H            5.53426735641951       -3.11024395267328        1.73882573033620
H            6.14417804713438       -3.66690997528100        0.15171618463330
H            4.41784040047310       -2.08267616038301       -0.06578146810300
H           -0.25320680147867       -1.60706059326131       -1.69006048456263
H           -1.06599772034531       -1.27297753959942       -0.14545442876680
H            0.56047297816390       -1.97477653883827       -0.16377679655972
H           -4.95010267950174        2.68327541917801       -0.21960751881975
H           -4.05212185380467        2.70315937163357        2.69043525419412
H           -5.09430033280308        1.48351635042822        1.94848586148382
H           -5.64658132850483        3.15133349072032        2.08666014443774
H           -3.01664552240235        4.55425549005974        1.21447708612520
H           -3.47281219926264        4.64297100164917       -0.49601073612505
H           -4.66925099698318        4.93587939584973        0.75376889088837
H           -0.88892638395317        2.77983688680166        2.66834628163668
72
 energy: -99.035421090080 gnorm: 0.170953414085 xtb: 6.6.1 (8d0f1dd)
N           -1.77233789758595        2.69062923202348        2.16555852350170
C           -1.82127945962937        2.08529698490430        1.07883211100144
C           -3.01267535095411        1.93724760401386        0.16543084548713
C           -3.59553130960695        0.55553939231116        0.10314127361834
C           -4.49999186305452       -0.00353624591062       -0.67311535472976
C           -4.92284477015093       -1.31782913878970       -0.56048988334564
O           -5.85249508458221       -1.84572812271490       -1.37330200173179
C           -6.48705875105556       -1.00223415825252       -2.30591251498128
C           -4.39011172997473       -2.17783982753661        0.42632028628835
O           -4.89434137655251       -3.43396378502178        0.41162962427607
C           -4.50978279082149       -4.35008975479971        1.41033720891363
C           -3.42637539100891       -1.67749180939586        1.30570660656150
C           -2.94747663798917       -0.35052062794821        1.26558087541546
C           -2.46708353968674        2.19538276042706       -1.24781801895190
C           -1.47619110455792        1.11449477164234       -1.70600067417903
C           -0.19368121638366        1.13167896196417       -0.95278612200349
N            0.49305130238167        0.03814682575151       -0.62590969843498
C            1.87219773738738        0.13285177343579       -0.21688659171838
C            2.82093139791549       -0.32592323414496       -1.33879843908862
C            4.24417030608572       -0.12570634084096       -0.90265595432778
C            4.88441786800938        1.08188395606034       -1.12222670016448
C            6.18801941735806        1.27960622514798       -0.69380865902539
C            6.87399020002530        0.27369746548761       -0.02959102073676
O            8.13763335815578        0.35603168264657        0.42818249075646
C            8.86533646196028        1.54284460458659        0.21291436053118
C            6.22244467470612       -0.96774628047283        0.20474811611191
O            6.96222943552640       -1.89193538299603        0.85120133471559
C            6.41280908822920       -3.16560060377538        1.08752761619705
C            4.91907238955806       -1.14220282230157       -0.23079526402372
C           -0.10233468393071       -1.27434595219326       -0.66188216483866
C           -4.18706881677425        2.87070847288215        0.53875207169715
C           -4.77888855641368        2.52359262535952        1.90367261616429
C           -3.80181725060707        4.34204905854656        0.49436298478601
H           -4.88588395028569        0.67210832627469       -1.39102607399656
H           -6.99022217774578       -0.16271589519295       -1.81541120798373
H           -7.22716790886923       -1.62878513696018       -2.79645865446002
H           -5.78389155689307       -0.62053691350306       -3.05423805707312
H           -4.75006181255534       -3.97580606584595        2.40960609472038
H           -5.08358794839112       -5.25533845755329        1.21811466037448
H           -3.44166700274117       -4.58217607856294        1.35202990291125
H           -3.04105730819553       -2.35038982574777        2.06993462438420
H           -2.02034872031069       -0.34201634996620        2.37106488157322
H           -3.30648878124772        2.20896330620588       -1.93903752638956
H           -1.98623861360635        3.16938740478392       -1.26840460519502
H           -1.95607665809792        0.13731695314256       -1.66078368247141
H           -1.22574559298362        1.32350580640971       -2.75136908919219
H           -0.91374151955463        1.64039831506628        0.57150771602681
H            0.37593105553652        2.04970648364655       -0.99086143490177
H            2.02711028159028       -0.48721805802758        0.66968817109623
H            2.10943932406241        1.16689342158872        0.04327393889403
H            2.61762501783473        0.26329587397445       -2.23484644743181
H            2.63914136559258       -1.37658288668043       -1.56695086642792
H            4.37598054090965        1.87809627150092       -1.64476734641923
H            6.66465641572363        2.22551207300546       -0.88923091650163
H            8.39424912265947        2.39729929670861        0.70862210452947
H            8.97742856913641        1.75534877233217       -0.85456683906046
H            9.84595238637151        1.36805814474686        0.65078026617251
H            7.19440551502486       -3.73369896756908        1.58789620551255
H            5.53451479785547       -3.10992099807945        1.73904743254041
H            6.14433483259663       -3.66673429723948        0.15216869557807
H            4.41755551573419       -2.08264450399343       -0.06569693342110
H           -0.25332465642045       -1.60819446702551       -1.69039395185567
H           -1.06599488697317       -1.27249309156908       -0.14478665417000
H            0.56022329496243       -1.97611790647108       -0.16324556776738
H           -4.95407616681744        2.68752903788341       -0.22059215579357
H           -4.05137365078795        2.70313212997993        2.68887006139532
H           -5.09337148656500        1.48357798293887        1.94796532331732
H           -5.64686088793911        3.15142943036750        2.08683291335246
H           -3.01679424931664        4.55393715003369        1.21402988829830
H           -3.47298696593004        4.64349746365723       -0.49653999443013
H           -4.67038259978094        4.93892190422193        0.75380598512038
H           -0.89162339256056        2.77860556392207        2.66331409800330
72
 energy: -99.107690917932 gnorm: 0.102838777933 xtb: 6.6.1 (8d0f1dd)
N           -1.78326785121347        2.69170336629694        2.16052011890839
C           -1.82986241413901        2.07594142244866        1.07785457638313
C           -3.01947055735114        1.95732084929032        0.14852136254947
C           -3.62186184166274        0.60429047563961        0.05736306620041
C           -4.52530747037480       -0.00016067764778       -0.70006723091052
C           -4.93358119263122       -1.32916081766759       -0.56716555963002
O           -5.86315469702457       -1.85737805658498       -1.37920316234724
C           -6.49165830127156       -1.00663253092148       -2.30886839015779
C           -4.39222333319151       -2.16691243703119        0.42015936619553
O           -4.88945449794588       -3.42780444336012        0.41455492595931
C           -4.50767414674094       -4.34696084351049        1.41182769957094
C           -3.42247741343504       -1.65262443766400        1.30155557517477
C           -2.93017653200492       -0.35000682657418        1.28517169703217
C           -2.46225313901740        2.21073120951451       -1.25971975144391
C           -1.47517643584720        1.11910458612418       -1.71004466137927
C           -0.19253393524808        1.13465982457980       -0.95668758517824
N            0.49413295389198        0.03616551820094       -0.62527338853062
C            1.87247838440844        0.13184468511219       -0.21715397511649
C            2.82202001211757       -0.32617835030588       -1.33859287803718
C            4.24488449028973       -0.12658187685434       -0.90338552042901
C            4.88543160875374        1.08183257042462       -1.12286229573616
C            6.18814890081764        1.28022865445825       -0.69417275773600
C            6.87467105587867        0.27413495367122       -0.02941111621274
O            8.13762655021429        0.35670605092583        0.42769085426243
C            8.86582583224765        1.54338585814348        0.21266304002845
C            6.22299062833057       -0.96789066330772        0.20515376800461
O            6.96180647071801       -1.89144936671007        0.85114592016013
C            6.41297401048512       -3.16563331547837        1.08810402602192
C            4.91925172845640       -1.14232669649625       -0.23147231512057
C           -0.10240769321999       -1.27497739701484       -0.66184104922668
C           -4.19200000955287        2.88319064324653        0.53512084636605
C           -4.77826403680004        2.52539490884555        1.90131855675893
C           -3.80457142635687        4.35033228593276        0.49432139611292
H           -4.91933064531382        0.67147982132698       -1.42965690224508
H           -6.99117833129061       -0.16611549179798       -1.81571373781875
H           -7.23193679324367       -1.62988400698936       -2.80079540209559
H           -5.78514992094955       -0.62399424322864       -3.05386029362991
H           -4.74934380649539       -3.97537991433233        2.41151857977016
H           -5.08275877954728       -5.25189321810963        1.21771982910485
H           -3.44043193482853       -4.58192499199440        1.35348987857364
H           -3.04632120083033       -2.33928962981186        2.05876394405613
H           -1.89655878494047       -0.50842003023812        2.58317179982163
H           -3.30440631477281        2.21649884459208       -1.94856959775893
H           -1.97810443259000        3.18050790833634       -1.28022290793213
H           -1.95416198047139        0.14101075382357       -1.66024712735393
H           -1.22866166871757        1.32265569860341       -2.75756629969321
H           -0.92266767222176        1.63648356380254        0.57744698117624
H            0.37892948730011        2.05075883880266       -0.99440487236671
H            2.02888316598768       -0.48719638162801        0.67061409998590
H            2.10807140280584        1.16619440326514        0.04302159296779
H            2.61782471986530        0.26299232357379       -2.23442106147366
H            2.63928112705169       -1.37670716473033       -1.56694852601796
H            4.37605703397209        1.87759952083201       -1.64502514690258
H            6.66486356700253        2.22629268505001       -0.88941492495192
H            8.39440912831004        2.39766491565581        0.70820152603441
H            8.97764373979876        1.75561944270257       -0.85484891020179
H            9.84631373401750        1.36838182292268        0.65065129373085
H            7.19487130828545       -3.73323120429346        1.58851977544157
H            5.53476748386548       -3.10955871325941        1.73946320478380
H            6.14454474359801       -3.66661355790552        0.15276502836731
H            4.41741714982364       -2.08259882004440       -0.06557007531295
H           -0.25357029270128       -1.60976442209315       -1.69051199657498
H           -1.06604149221390       -1.27170784242886       -0.14367172255792
H            0.55950026868112       -1.97771578909585       -0.16269716477897
H           -4.96123738736863        2.69652211564634       -0.22189472126568
H           -4.05001646178108        2.70336257963925        2.68611720533555
H           -5.09125188141318        1.48433448251627        1.94580977342665
H           -5.64718310111722        3.15141083141045        2.08732660365658
H           -3.01731344037673        4.55456207417853        1.21360854213980
H           -3.47347503852903        4.64613793745891       -0.49730671590158
H           -4.67227856918855        4.94619582996658        0.75417477618045
H           -0.89834823404301        2.77517942464931        2.65510335638383
72
 energy: -99.147788299311 gnorm: 0.092932984184 xtb: 6.6.1 (8d0f1dd)
N           -1.79725014628296        2.69335260777665        2.15206013879048
C           -1.84218994623054        2.06850858936533        1.07457492436728
C           -3.02695501680608        1.97169228888402        0.13322935566445
C           -3.63301146802500        0.63046279646599        0.04293036227912
C           -4.53757396915584        0.00912342152024       -0.71385818382086
C           -4.94180643560025       -1.33088486881591       -0.57404700588375
O           -5.87300343325563       -1.86552733667823       -1.38588343938293
C           -6.49891884889673       -1.01275316237285       -2.31382578171738
C           -4.39593174512499       -2.15433870018988        0.41312800530207
O           -4.88365091232764       -3.41966049465819        0.41753469376358
C           -4.50456082845980       -4.34167096752596        1.41360626861482
C           -3.42026845028231       -1.63823844362214        1.30033607854705
C           -2.91867662908544       -0.36784854595787        1.30256973076831
C           -2.45697118001720        2.22853328426422       -1.27332957978494
C           -1.47334377234043        1.12611056252676       -1.71501558016934
C           -0.18989076512994        1.13608560724881       -0.96216026347108
N            0.49361924866450        0.03662329176150       -0.62622367401186
C            1.87218874462953        0.13122925468044       -0.21717329399230
C            2.82277008724966       -0.32656098610341       -1.33855160815274
C            4.24568022697700       -0.12715600576530       -0.90414161058962
C            4.88633190608225        1.08158632219513       -1.12362314778169
C            6.18852593630688        1.28069772067486       -0.69455029688104
C            6.87514937398491        0.27454569363299       -0.02941096793754
O            8.13791148516474        0.35737721188299        0.42731992044460
C            8.86638446857095        1.54402648386787        0.21236921372237
C            6.22348600358862       -0.96775317713754        0.20527682924123
O            6.96173768859969       -1.89105695381959        0.85133711093942
C            6.41319530001846       -3.16554041614905        1.08880600534567
C            4.91981243097020       -1.14253401377636       -0.23207293793034
C           -0.10289689807159       -1.27497779692194       -0.66185368050262
C           -4.19828406448989        2.89777672397111        0.52994840192741
C           -4.77750677530524        2.52888500533130        1.89754580764978
C           -3.80826258423241        4.36212295928573        0.49411480960271
H           -4.95096082958144        0.66485261888961       -1.46363910794537
H           -6.99413578736514       -0.17157650300404       -1.81712181320279
H           -7.23998340666284       -1.63208144457628       -2.80805370777905
H           -5.78821099764346       -0.62963765686770       -3.05476247482289
H           -4.74788073622805       -3.97419370738394        2.41427443943261
H           -5.08142123169659       -5.24558560812529        1.21647832246874
H           -3.43832723235141       -4.58089157476286        1.35572221966530
H           -3.05435979615836       -2.33456694829619        2.04724326440966
H           -1.77531839207541       -0.66730157794597        2.78110744195645
H           -3.29903844682737        2.22938690310050       -1.96329569267565
H           -1.96686382228603        3.19543425450467       -1.29679847006154
H           -1.95355356648387        0.14847870447396       -1.65884962097464
H           -1.23100862360345        1.32165717340785       -2.76551208121329
H           -0.93523169742476        1.62630524919069        0.58404113051584
H            0.38310992674889        2.05176616964729       -0.99783486900251
H            2.03036721477155       -0.48705156007178        0.67122993271249
H            2.10674052779880        1.16559972871292        0.04286846364990
H            2.61818465022678        0.26272160843507       -2.23413869476689
H            2.63958966843672       -1.37699242568408       -1.56704512494385
H            4.37618081779614        1.87701043926793       -1.64547238609877
H            6.66511598926063        2.22708447396470       -0.88949189396652
H            8.39474135314278        2.39820102855799        0.70776582644476
H            8.97808231626503        1.75602557349838       -0.85517596152906
H            9.84677395257931        1.36880358782489        0.65052026628650
H            7.19542200417067       -3.73261505422801        1.58931576974391
H            5.53505925141252       -3.10919034483130        1.74009334363405
H            6.14484024434954       -3.66657908904124        0.15353714902379
H            4.41748644557423       -2.08254249637830       -0.06543159069469
H           -0.25421722480930       -1.61141431038887       -1.69025441071486
H           -1.06587537635120       -1.27050292419261       -0.14207682555080
H            0.55811529176118       -1.97883876180416       -0.16210121478554
H           -4.97166372653351        2.71131880005330       -0.22357980589178
H           -4.04784138272602        2.70419241629226        2.68165675006315
H           -5.08759606140570        1.48646338886272        1.94075148200899
H           -5.64779106991479        3.15159507077529        2.08850310961073
H           -3.01853548688639        4.55715371225427        1.21327324308324
H           -3.47451770128833        4.65258669117982       -0.49807286980370
H           -4.67441420124866        4.95887657372320        0.75490948473277
H           -0.91038629143016        2.76794938762362        2.64571521462100
72
 energy: -99.174119127261 gnorm: 0.114225236462 xtb: 6.6.1 (8d0f1dd)
N           -1.81320811859820        2.69571990157007        2.13993049980428
C           -1.85813836536204        2.06184154163719        1.06944369662933
C           -3.03460756508177        1.97961520026181        0.11973424066541
C           -3.63042972260291        0.63361664375472        0.04924646486900
C           -4.54045635721614        0.02379033115475       -0.71992656161776
C           -4.94882356652780       -1.32389711438803       -0.58202746638101
O           -5.88118051185962       -1.86900835632575       -1.39256443560187
C           -6.50870302173683       -1.02018370201951       -2.32072234231210
C           -4.40239739667756       -2.14238761363290        0.40535138283027
O           -4.87818871492420       -3.41034630441427        0.41990263676879
C           -4.50077397234719       -4.33412163387126        1.41545005298374
C           -3.42067965998499       -1.63202285199358        1.29969374191378
C           -2.91415334854556       -0.38741923003019        1.30867554077739
C           -2.45236202078683        2.24536834055258       -1.28681546713720
C           -1.47098982546566        1.13478337722299       -1.72081001974137
C           -0.18634834534997        1.13620046133825       -0.96899953326349
N            0.49183063528351        0.03911252650910       -0.62940810697613
C            1.87115387791497        0.13130075705758       -0.21715795109962
C            2.82290288657541       -0.32695390602155       -1.33857432133748