      -----------------------------------------------------------      
     |                   =====================                   |     
     |                           x T B                           |     
     |                   =====================                   |     
     |                         S. Grimme                         |     
     |          Mulliken Center for Theoretical Chemistry        |     
     |                    University of Bonn                     |     
      -----------------------------------------------------------      

   * xtb version 6.6.1 (8d0f1dd) compiled by 'conda@1efc2f54142f' on 2023-08-01

   xtb is free software: you can redistribute it and/or modify it under
   the terms of the GNU Lesser General Public License as published by
   the Free Software Foundation, either version 3 of the License, or
   (at your option) any later version.
   
   xtb is distributed in the hope that it will be useful,
   but WITHOUT ANY WARRANTY; without even the implied warranty of
   MERCHANTABILITY or FITNESS FOR A PARTICULAR PURPOSE.  See the
   GNU Lesser General Public License for more details.
   
   Cite this work as:
   * C. Bannwarth, E. Caldeweyher, S. Ehlert, A. Hansen, P. Pracht,
     J. Seibert, S. Spicher, S. Grimme, WIREs Comput. Mol. Sci., 2020, 11,
     e01493. DOI: 10.1002/wcms.1493
   
   for GFN2-xTB:
   * C. Bannwarth, S. Ehlert and S. Grimme., J. Chem. Theory Comput., 2019,
     15, 1652-1671. DOI: 10.1021/acs.jctc.8b01176
   for GFN1-xTB:
   * S. Grimme, C. Bannwarth, P. Shushkov, J. Chem. Theory Comput., 2017,
     13, 1989-2009. DOI: 10.1021/acs.jctc.7b00118
   for GFN0-xTB:
   * P. Pracht, E. Caldeweyher, S. Ehlert, S. Grimme, ChemRxiv, 2019, preprint.
     DOI: 10.26434/chemrxiv.8326202.v1
   for GFN-FF:
   * S. Spicher and S. Grimme, Angew. Chem. Int. Ed., 2020, 59, 15665-15673.
     DOI: 10.1002/anie.202004239
   
   for ALPB and GBSA implicit solvation:
   * S. Ehlert, M. Stahn, S. Spicher, S. Grimme, J. Chem. Theory Comput.,
     2021, 17, 4250-4261. DOI: 10.1021/acs.jctc.1c00471
   
   for DFT-D4:
   * E. Caldeweyher, C. Bannwarth and S. Grimme, J. Chem. Phys., 2017,
     147, 034112. DOI: 10.1063/1.4993215
   * E. Caldeweyher, S. Ehlert, A. Hansen, H. Neugebauer, S. Spicher,
     C. Bannwarth and S. Grimme, J. Chem. Phys., 2019, 150, 154122.
     DOI: 10.1063/1.5090222
   * E. Caldeweyher, J.-M. Mewes, S. Ehlert and S. Grimme, Phys. Chem. Chem. Phys.
     2020, 22, 8499-8512. DOI: 10.1039/D0CP00502A
   
   for sTDA-xTB:
   * S. Grimme and C. Bannwarth, J. Chem. Phys., 2016, 145, 054103.
     DOI: 10.1063/1.4959605
   
   in the mass-spec context:
   * V. Asgeirsson, C. Bauer and S. Grimme, Chem. Sci., 2017, 8, 4879.
     DOI: 10.1039/c7sc00601b
   * J. Koopman and S. Grimme, ACS Omega 2019, 4, 12, 15120-15133.
     DOI: 10.1021/acsomega.9b02011
   
   for metadynamics refer to:
   * S. Grimme, J. Chem. Theory Comput., 2019, 155, 2847-2862
     DOI: 10.1021/acs.jctc.9b00143
   
   for SPH calculations refer to:
   * S. Spicher and S. Grimme, J. Chem. Theory Comput., 2021, 17, 1701-1714
     DOI: 10.1021/acs.jctc.0c01306
   
   with help from (in alphabetical order)
   P. Atkinson, C. Bannwarth, F. Bohle, G. Brandenburg, E. Caldeweyher
   M. Checinski, S. Dohm, S. Ehlert, S. Ehrlich, I. Gerasimov, C. Hölzer
   A. Katbashev, J. Koopman, C. Lavigne, S. Lehtola, F. März, M. Müller,
   F. Musil, H. Neugebauer, J. Pisarek, C. Plett, P. Pracht, F. Pultar,
   J. Seibert, P. Shushkov, S. Spicher, M. Stahn, M. Steiner, T. Strunk,
   J. Stückrath, T. Rose, and J. Unsleber
   
 * started run on 2024/06/05 at 19:57:53.781     

           -------------------------------------------------
          |                Calculation Setup                |
           -------------------------------------------------

          program call               : xtb struc.xyz --opt loose --input .xc1 --gfn2
          hostname                   : n-62-21-71
          coordinate file            : struc.xyz
          omp threads                :                     1

   ID    Z sym.   atoms
    1    6 C      1, 3, 5-7, 10, 11, 14
    2    7 N      2, 4, 9, 13
    3    8 O      8, 12
    4    1 H      15-25
constraining bond 3 4 to    3.9200000 Å, actual value:    1.3504249 Å

           -------------------------------------------------
          |                 G F N 2 - x T B                 |
           -------------------------------------------------

        Reference                      10.1021/acs.jctc.8b01176
      * Hamiltonian:
        H0-scaling (s, p, d)           1.850000    2.230000    2.230000
        zeta-weighting                 0.500000
      * Dispersion:
        s8                             2.700000
        a1                             0.520000
        a2                             5.000000
        s9                             5.000000
      * Repulsion:
        kExp                           1.500000    1.000000
        rExp                           1.000000
      * Coulomb:
        alpha                          2.000000
        third order                    shell-resolved
        anisotropic                    true
        a3                             3.000000
        a5                             4.000000
        cn-shift                       1.200000
        cn-exp                         4.000000
        max-rad                        5.000000


          ...................................................
          :                      SETUP                      :
          :.................................................:
          :  # basis functions                  67          :
          :  # atomic orbitals                  67          :
          :  # shells                           39          :
          :  # electrons                        74          :
          :  max. iterations                   250          :
          :  Hamiltonian                  GFN2-xTB          :
          :  restarted?                      false          :
          :  GBSA solvation                  false          :
          :  PC potential                    false          :
          :  electronic temp.         2500.0000000     K    :
          :  accuracy                    1.0000000          :
          :  -> integral cutoff          0.2500000E+02      :
          :  -> integral neglect         0.1000000E-07      :
          :  -> SCF convergence          0.1000000E-05 Eh   :
          :  -> wf. convergence          0.1000000E-03 e    :
          :  Broyden damping             0.4000000          :
          ...................................................

 iter      E             dE          RMSdq      gap      omega  full diag
   1    -42.5894761 -0.425895E+02  0.446E+00    3.52       0.0  T
   2    -42.7660496 -0.176573E+00  0.253E+00    3.37       1.0  T
   3    -42.7736311 -0.758158E-02  0.147E+00    3.27       1.0  T
   4    -42.7712089  0.242228E-02  0.522E-01    3.20       1.0  T
   5    -42.7763755 -0.516665E-02  0.115E-01    3.24       1.0  T
   6    -42.7764786 -0.103096E-03  0.599E-02    3.22       1.0  T
   7    -42.7764977 -0.190557E-04  0.265E-02    3.24       1.0  T
   8    -42.7765022 -0.458752E-05  0.826E-03    3.24       2.4  T
   9    -42.7765028 -0.511866E-06  0.435E-03    3.24       4.6  T
  10    -42.7765028 -0.741126E-07  0.110E-03    3.24      18.2  T
  11    -42.7765028 -0.615289E-08  0.514E-04    3.24      38.9  T
  12    -42.7765028 -0.131732E-08  0.162E-04    3.24     123.6  T

   *** convergence criteria satisfied after 12 iterations ***

         #    Occupation            Energy/Eh            Energy/eV
      -------------------------------------------------------------
         1        2.0000           -0.9218663             -25.0853
       ...           ...                  ...                  ...
        31        2.0000           -0.6245728             -16.9955
        32        2.0000           -0.6188521             -16.8398
        33        2.0000           -0.5946289             -16.1807
        34        1.9999           -0.5766508             -15.6915
        35        1.9996           -0.5616187             -15.2824
        36        1.9994           -0.5584494             -15.1962
        37        1.9993           -0.5575820             -15.1726 (HOMO)
        38        0.0017           -0.4385664             -11.9340 (LUMO)
        39        0.0000           -0.4059970             -11.0477
        40        0.0000           -0.3720875             -10.1250
        41                         -0.2883077              -7.8453
        42                         -0.2064013              -5.6165
       ...                                ...                  ...
        67                          0.5638960              15.3444
      -------------------------------------------------------------
                  HL-Gap            0.1190156 Eh            3.2386 eV
             Fermi-level           -0.4943591 Eh          -13.4522 eV

 SCC (total)                   0 d,  0 h,  0 min,  0.063 sec
 SCC setup                      ...        0 min,  0.000 sec (  0.381%)
 Dispersion                     ...        0 min,  0.000 sec (  0.472%)
 classical contributions        ...        0 min,  0.000 sec (  0.135%)
 integral evaluation            ...        0 min,  0.005 sec (  8.400%)
 iterations                     ...        0 min,  0.031 sec ( 49.003%)
 molecular gradient             ...        0 min,  0.026 sec ( 41.333%)
 printout                       ...        0 min,  0.000 sec (  0.254%)

         :::::::::::::::::::::::::::::::::::::::::::::::::::::
         ::                     SUMMARY                     ::
         :::::::::::::::::::::::::::::::::::::::::::::::::::::
         :: total energy             -30.455922237535 Eh    ::
         :: gradient norm              6.867212568218 Eh/a0 ::
         :: HOMO-LUMO gap              3.238579380711 eV    ::
         ::.................................................::
         :: SCC energy               -42.776502838750 Eh    ::
         :: -> isotropic ES            0.143394945287 Eh    ::
         :: -> anisotropic ES         -0.005231236584 Eh    ::
         :: -> anisotropic XC          0.012162721064 Eh    ::
         :: -> dispersion             -0.022660936007 Eh    ::
         :: repulsion energy           0.531105277918 Eh    ::
         :: add. restraining          11.789361164288 Eh    ::
         :: total charge               1.000000000000 e     ::
         :::::::::::::::::::::::::::::::::::::::::::::::::::::

      ----------------------------------------------------------- 
     |                   =====================                   |
     |                        A N C O P T                        |
     |                   =====================                   |
     |               Approximate Normal Coordinate               |
     |                Rational Function Optimizer                |
      ----------------------------------------------------------- 

          ...................................................
          :                      SETUP                      :
          :.................................................:
          :   optimization level             loose          :
          :   max. optcycles                   200          :
          :   ANC micro-cycles                  20          :
          :   degrees of freedom                69          :
          :.................................................:
          :   RF solver                   davidson          :
          :   write xtbopt.log                true          :
          :   linear?                        false          :
          :   energy convergence         0.5000000E-04 Eh   :
          :   grad. convergence          0.4000000E-02 Eh/α :
          :   maxmium RF displ.          1.0000000          :
          :   Hlow (freq-cutoff)         0.1000000E-01      :
          :   Hmax (freq-cutoff)         5.0000000          :
          :   S6 in model hess.         20.0000000          :
          ...................................................

generating ANC from model Hessian ...
Using Lindh-Hessian (1995)
 Shifting diagonal of input Hessian by    3.5545610151904135     
 Lowest  eigenvalues of input Hessian
    0.010000    1.207842    0.000000    0.000000    0.000000    0.000000
    0.000000    0.000000    3.557319    3.558961    3.560147    3.563843
    3.564626    3.566452    3.566675    3.568873    3.579328    3.579760
 Highest eigenvalues
    5.548893    5.661313    5.773407    5.960779    6.092807    7.574528


........................................................................
.............................. CYCLE    1 ..............................
........................................................................

 iter      E             dE          RMSdq      gap      omega  full diag
   1    -42.7765028 -0.427765E+02  0.540E-05    3.24       0.0  T
   2    -42.7765028 -0.643041E-11  0.289E-05    3.24     692.1  T
   3    -42.7765028  0.881073E-12  0.138E-05    3.24    1448.6  T
     SCC iter.                  ...        0 min,  0.005 sec
     gradient                   ...        0 min,  0.026 sec
 * total energy  :   -30.4559222 Eh     change       -0.6633627E-10 Eh
   gradient norm :     6.8672117 Eh/α   predicted     0.0000000E+00 (-100.00%)
   displ. norm   :     0.7008699 α      lambda       -0.4807717E+01
   maximum displ.:     0.6898212 α      in ANC's #61, #65, #48, ...

........................................................................
.............................. CYCLE    2 ..............................
........................................................................

 iter      E             dE          RMSdq      gap      omega  full diag
   1    -42.6968064 -0.426968E+02  0.139E+00    2.63       0.0  T
   2    -42.7143087 -0.175022E-01  0.659E-01    2.64       1.0  T
   3    -42.7167534 -0.244480E-02  0.354E-01    2.69       1.0  T
   4    -42.7156430  0.111048E-02  0.259E-01    2.56       1.0  T
   5    -42.7172254 -0.158241E-02  0.767E-02    2.66       1.0  T
   6    -42.7173384 -0.113028E-03  0.206E-02    2.64       1.0  T
   7    -42.7173390 -0.611537E-06  0.814E-03    2.64       2.5  T
   8    -42.7173394 -0.341602E-06  0.168E-03    2.64      11.9  T
   9    -42.7173394 -0.444238E-07  0.630E-04    2.64      31.8  T
  10    -42.7173394 -0.946159E-09  0.271E-04    2.64      73.9  T
     SCC iter.                  ...        0 min,  0.027 sec
     gradient                   ...        0 min,  0.026 sec
 * total energy  :   -34.6507652 Eh     change       -0.4194843E+01 Eh
   gradient norm :     5.2138831 Eh/α   predicted    -0.3588361E+01 ( -14.46%)
   displ. norm   :     0.8015400 α      lambda       -0.4173026E+01
   maximum displ.:     0.7819465 α      in ANC's #61, #48, #59, ...

........................................................................
.............................. CYCLE    3 ..............................
........................................................................

 iter      E             dE          RMSdq      gap      omega  full diag
   1    -42.5774994 -0.425775E+02  0.126E+00    0.94       0.0  T
   2    -42.4951418  0.823575E-01  0.203E+00    1.48       1.0  T
   3    -42.5602929 -0.651511E-01  0.130E+00    1.61       1.0  T
   4    -42.6135028 -0.532099E-01  0.384E-01    1.29       1.0  T
   5    -42.6136187 -0.115922E-03  0.169E-01    1.23       1.0  T
   6    -42.6145903 -0.971642E-03  0.582E-02    1.29       1.0  T
   7    -42.6146652 -0.748407E-04  0.305E-02    1.31       1.0  T
   8    -42.6146908 -0.256384E-04  0.924E-03    1.30       2.2  T
   9    -42.6146920 -0.121492E-05  0.249E-03    1.30       8.0  T
  10    -42.6146922 -0.140410E-06  0.113E-03    1.30      17.6  T
  11    -42.6146922 -0.299009E-07  0.261E-04    1.30      76.7  T
  12    -42.6146922 -0.670781E-09  0.189E-04    1.30     105.6  T
     SCC iter.                  ...        0 min,  0.029 sec
     gradient                   ...        0 min,  0.026 sec
 * total energy  :   -38.2370213 Eh     change       -0.3586256E+01 Eh
   gradient norm :     3.7630046 Eh/α   predicted    -0.3430214E+01 (  -4.35%)
   displ. norm   :     0.7906245 α      lambda       -0.2973622E+01
   maximum displ.:     0.7677130 α      in ANC's #61, #59, #47, ...

........................................................................
.............................. CYCLE    4 ..............................
........................................................................

 iter      E             dE          RMSdq      gap      omega  full diag
   1    -42.4944987 -0.424945E+02  0.739E-01    0.59       0.0  T
   2    -42.4289600  0.655388E-01  0.133E+00    0.94       1.0  T
   3    -42.4478227 -0.188628E-01  0.118E+00    0.47       1.0  T
   4    -42.5015669 -0.537442E-01  0.338E-01    0.67       1.0  T
   5    -42.5036943 -0.212738E-02  0.142E-01    0.59       1.0  T
   6    -42.5042370 -0.542674E-03  0.375E-02    0.61       1.0  T
   7    -42.5042553 -0.182940E-04  0.135E-02    0.61       1.5  T
   8    -42.5042531  0.213751E-05  0.889E-03    0.61       2.2  T
   9    -42.5042560 -0.285861E-05  0.197E-03    0.61      10.2  T
  10    -42.5042561 -0.639726E-07  0.105E-03    0.61      19.1  T
  11    -42.5042561  0.187140E-08  0.851E-04    0.61      23.5  T
  12    -42.5042561 -0.325967E-07  0.175E-04    0.61     114.3  T
     SCC iter.                  ...        0 min,  0.029 sec
     gradient                   ...        0 min,  0.026 sec
 * total energy  :   -40.6271627 Eh     change       -0.2390141E+01 Eh
   gradient norm :     2.2441926 Eh/α   predicted    -0.2416197E+01 (   1.09%)
   displ. norm   :     0.6604153 α      lambda       -0.1481259E+01
   maximum displ.:     0.6446809 α      in ANC's #61, #59, #48, ...

........................................................................
.............................. CYCLE    5 ..............................
........................................................................

 iter      E             dE          RMSdq      gap      omega  full diag
   1    -42.3171130 -0.423171E+02  0.131E+00    0.27       0.0  T
   2    -41.9166185  0.400495E+00  0.300E+00    1.82       1.0  T
   3    -42.3535315 -0.436913E+00  0.625E-01    0.65       1.0  T
   4    -42.3243487  0.291829E-01  0.931E-01    0.27       1.0  T
   5    -42.3657490 -0.414003E-01  0.201E-01    0.50       1.0  T
   6    -42.3665419 -0.792869E-03  0.800E-02    0.45       1.0  T
   7    -42.3666743 -0.132406E-03  0.446E-02    0.48       1.0  T
   8    -42.3666771 -0.281662E-05  0.391E-02    0.45       1.0  T
   9    -42.3667627 -0.856388E-04  0.113E-02    0.47       1.8  T
  10    -42.3667687 -0.598372E-05  0.345E-03    0.46       5.8  T
  11    -42.3667693 -0.628518E-06  0.138E-03    0.46      14.5  T
  12    -42.3667694 -0.651376E-07  0.561E-04    0.46      35.7  T
  13    -42.3667694 -0.171968E-07  0.141E-04    0.46     142.1  T
     SCC iter.                  ...        0 min,  0.044 sec
     gradient                   ...        0 min,  0.026 sec
 * total energy  :   -41.6406293 Eh     change       -0.1013467E+01 Eh
   gradient norm :     0.8293289 Eh/α   predicted    -0.1063655E+01 (   4.95%)
   displ. norm   :     0.3457705 α      lambda       -0.2851780E+00
   maximum displ.:     0.3257498 α      in ANC's #61, #2, #46, ...

........................................................................
.............................. CYCLE    6 ..............................
........................................................................

 iter      E             dE          RMSdq      gap      omega  full diag
   1    -42.2763560 -0.422764E+02  0.654E-01    0.34       0.0  T
   2    -42.1345677  0.141788E+00  0.161E+00    1.14       1.0  T
   3    -42.2727585 -0.138191E+00  0.606E-01    0.37       1.0  T
   4    -42.2832094 -0.104509E-01  0.290E-01    0.39       1.0  T
   5    -42.2855538 -0.234440E-02  0.127E-01    0.46       1.0  T
   6    -42.2852189  0.334967E-03  0.106E-01    0.42       1.0  T
   7    -42.2858548 -0.635971E-03  0.296E-02    0.46       1.0  T
   8    -42.2858984 -0.435364E-04  0.103E-02    0.45       1.9  T
   9    -42.2859043 -0.594066E-05  0.280E-03    0.45       7.1  T
  10    -42.2859044 -0.891265E-07  0.961E-04    0.45      20.8  T
  11    -42.2859044 -0.171333E-07  0.345E-04    0.45      57.9  T
     SCC iter.                  ...        0 min,  0.028 sec
     gradient                   ...        0 min,  0.026 sec
 * total energy  :   -41.8035055 Eh     change       -0.1628762E+00 Eh
   gradient norm :     0.2243534 Eh/α   predicted    -0.1596369E+00 (  -1.99%)
   displ. norm   :     0.1484470 α      lambda       -0.1956115E-01
   maximum displ.:     0.1133782 α      in ANC's #1, #61, #2, ...

........................................................................
.............................. CYCLE    7 ..............................
........................................................................

 iter      E             dE          RMSdq      gap      omega  full diag
   1    -42.2818742 -0.422819E+02  0.237E-01    0.50       0.0  T
   2    -42.2542795  0.275948E-01  0.704E-01    0.31       1.0  T
   3    -42.2825286 -0.282491E-01  0.124E-01    0.48       1.0  T
   4    -42.2825533 -0.246384E-04  0.609E-02    0.46       1.0  T
   5    -42.2825971 -0.438060E-04  0.342E-02    0.48       1.0  T
   6    -42.2826321 -0.350661E-04  0.156E-02    0.46       1.3  T
   7    -42.2826411 -0.893898E-05  0.735E-03    0.47       2.7  T
   8    -42.2826442 -0.308337E-05  0.113E-03    0.47      17.6  T
   9    -42.2826442 -0.768340E-08  0.565E-04    0.47      35.4  T
  10    -42.2826442 -0.228589E-09  0.277E-04    0.47      72.3  T
     SCC iter.                  ...        0 min,  0.027 sec
     gradient                   ...        0 min,  0.017 sec
 * total energy  :   -41.8190660 Eh     change       -0.1556052E-01 Eh
   gradient norm :     0.1986847 Eh/α   predicted    -0.9996108E-02 ( -35.76%)
   displ. norm   :     0.2813653 α      lambda       -0.3351831E-01
   maximum displ.:     0.1956864 α      in ANC's #1, #2, #46, ...

........................................................................
.............................. CYCLE    8 ..............................
........................................................................

 iter      E             dE          RMSdq      gap      omega  full diag
   1    -42.2909209 -0.422909E+02  0.411E-01    0.62       0.0  T
   2    -42.1510921  0.139829E+00  0.155E+00    0.28       1.0  T
   3    -42.2949875 -0.143895E+00  0.219E-01    0.50       1.0  T
   4    -42.2949857  0.179467E-05  0.743E-02    0.53       1.0  T
   5    -42.2951490 -0.163272E-03  0.534E-02    0.52       1.0  T
   6    -42.2952259 -0.768977E-04  0.164E-02    0.51       1.2  T
   7    -42.2952210  0.490048E-05  0.126E-02    0.52       1.6  T
   8    -42.2952295 -0.853040E-05  0.249E-03    0.51       8.0  T
   9    -42.2952296 -0.519720E-07  0.130E-03    0.51      15.4  T
  10    -42.2952296 -0.759196E-08  0.589E-04    0.51      34.0  T
  11    -42.2952296 -0.543669E-08  0.256E-04    0.51      78.0  T
     SCC iter.                  ...        0 min,  0.028 sec
     gradient                   ...        0 min,  0.023 sec
 * total energy  :   -41.8432425 Eh     change       -0.2417644E-01 Eh
   gradient norm :     0.2222492 Eh/α   predicted    -0.1808594E-01 ( -25.19%)
   displ. norm   :     0.3086341 α      lambda       -0.3354664E-01
   maximum displ.:     0.1685990 α      in ANC's #1, #46, #2, ...

........................................................................
.............................. CYCLE    9 ..............................
........................................................................

 iter      E             dE          RMSdq      gap      omega  full diag
   1    -42.3126377 -0.423126E+02  0.672E-01    0.82       0.0  T
   2    -41.8195629  0.493075E+00  0.292E+00    0.51       1.0  T
   3    -42.3281459 -0.508583E+00  0.257E-01    0.63       1.0  T
   4    -42.3280614  0.844862E-04  0.162E-01    0.53       1.0  T
   5    -42.3287505 -0.689132E-03  0.111E-01    0.60       1.0  T
   6    -42.3290605 -0.310028E-03  0.218E-02    0.58       1.0  T
   7    -42.3290612 -0.703976E-06  0.164E-02    0.58       1.2  T
   8    -42.3290604  0.878199E-06  0.888E-03    0.58       2.3  T
   9    -42.3290645 -0.409948E-05  0.343E-03    0.57       5.8  T
  10    -42.3290647 -0.196846E-06  0.167E-03    0.57      12.0  T
  11    -42.3290648 -0.130629E-06  0.342E-04    0.57      58.5  T
  12    -42.3290648 -0.694413E-09  0.162E-04    0.57     123.4  T
     SCC iter.                  ...        0 min,  0.019 sec
     gradient                   ...        0 min,  0.013 sec
 * total energy  :   -41.8663916 Eh     change       -0.2314911E-01 Eh
   gradient norm :     0.2003897 Eh/α   predicted    -0.1837103E-01 ( -20.64%)
   displ. norm   :     0.2417351 α      lambda       -0.2264784E-01
   maximum displ.:     0.1242167 α      in ANC's #1, #46, #24, ...

........................................................................
.............................. CYCLE   10 ..............................
........................................................................

 iter      E             dE          RMSdq      gap      omega  full diag
   1    -42.3552253 -0.423552E+02  0.327E-01    0.61       0.0  T
   2    -42.3527840  0.244126E-02  0.289E-01    0.71       1.0  T
   3    -42.3368312  0.159528E-01  0.579E-01    0.44       1.0  T
   4    -42.3553781 -0.185469E-01  0.130E-01    0.64       1.0  T
   5    -42.3555574 -0.179251E-03  0.951E-02    0.65       1.0  T
   6    -42.3559256 -0.368229E-03  0.285E-02    0.63       1.0  T
   7    -42.3559654 -0.397857E-04  0.865E-03    0.62       2.3  T
   8    -42.3559662 -0.826784E-06  0.216E-03    0.62       9.3  T
   9    -42.3559662 -0.284065E-07  0.115E-03    0.62      17.3  T
  10    -42.3559663 -0.409580E-07  0.403E-04    0.62      49.6  T
  11    -42.3559663 -0.184843E-08  0.139E-04    0.62     144.0  T
     SCC iter.                  ...        0 min,  0.040 sec
     gradient                   ...        0 min,  0.024 sec
 * total energy  :   -41.8836946 Eh     change       -0.1730306E-01 Eh
   gradient norm :     0.1761651 Eh/α   predicted    -0.1198626E-01 ( -30.73%)
   displ. norm   :     0.3060651 α      lambda       -0.2559792E-01
   maximum displ.:     0.1891897 α      in ANC's #1, #46, #24, ...

........................................................................
.............................. CYCLE   11 ..............................
........................................................................

 iter      E             dE          RMSdq      gap      omega  full diag
   1    -42.3697109 -0.423697E+02  0.634E-01    0.52       0.0  T
   2    -42.2467284  0.122983E+00  0.161E+00    1.14       1.0  T
   3    -42.3806497 -0.133921E+00  0.363E-01    0.70       1.0  T
   4    -42.3792243  0.142539E-02  0.284E-01    0.57       1.0  T
   5    -42.3821400 -0.291564E-02  0.152E-01    0.70       1.0  T
   6    -42.3826731 -0.533171E-03  0.320E-02    0.67       1.0  T
   7    -42.3826946 -0.214834E-04  0.139E-02    0.66       1.4  T
   8    -42.3826968 -0.213447E-05  0.447E-03    0.66       4.5  T
   9    -42.3826970 -0.227058E-06  0.254E-03    0.66       7.9  T
  10    -42.3826968  0.133519E-06  0.188E-03    0.66      10.6  T
  11    -42.3826970 -0.177099E-06  0.713E-04    0.66      28.0  T
  12    -42.3826971 -0.307500E-07  0.141E-04    0.66     141.9  T
     SCC iter.                  ...        0 min,  0.030 sec
     gradient                   ...        0 min,  0.026 sec
 * total energy  :   -41.9008722 Eh     change       -0.1717753E-01 Eh
   gradient norm :     0.1355430 Eh/α   predicted    -0.1399952E-01 ( -18.50%)
   displ. norm   :     0.5050728 α      lambda       -0.1302530E-01
   maximum displ.:     0.4845525 α      in ANC's #1, #9, #24, ...

........................................................................
.............................. CYCLE   12 ..............................
........................................................................

 iter      E             dE          RMSdq      gap      omega  full diag
   1    -42.3444945 -0.423445E+02  0.992E-01    0.55       0.0  T
   2    -42.1641820  0.180313E+00  0.196E+00    1.27       1.0  T
   3    -42.3522715 -0.188089E+00  0.651E-01    0.62       1.0  T
   4    -42.3573888 -0.511732E-02  0.391E-01    0.59       1.0  T
   5    -42.3622912 -0.490239E-02  0.229E-01    0.77       1.0  T
   6    -42.3637222 -0.143104E-02  0.693E-02    0.70       1.0  T
   7    -42.3637637 -0.414794E-04  0.396E-02    0.70       1.0  T
   8    -42.3637634  0.287148E-06  0.183E-02    0.69       1.1  T
   9    -42.3637746 -0.111943E-04  0.105E-02    0.70       1.9  T
  10    -42.3637788 -0.419130E-05  0.295E-03    0.70       6.8  T
  11    -42.3637792 -0.383495E-06  0.769E-04    0.70      26.0  T
  12    -42.3637792 -0.131467E-08  0.420E-04    0.70      47.6  T
     SCC iter.                  ...        0 min,  0.025 sec
     gradient                   ...        0 min,  0.013 sec
 * total energy  :   -41.9075586 Eh     change       -0.6686427E-02 Eh
   gradient norm :     0.1470735 Eh/α   predicted    -0.8176497E-02 (  22.28%)
   displ. norm   :     0.2407833 α      lambda       -0.1824345E-01
   maximum displ.:     0.1362864 α      in ANC's #1, #9, #19, ...

........................................................................
.............................. CYCLE   13 ..............................
........................................................................

 iter      E             dE          RMSdq      gap      omega  full diag
   1    -42.3993611 -0.423994E+02  0.317E-01    0.72       0.0  T
   2    -42.3966881  0.267299E-02  0.294E-01    0.80       1.0  T
   3    -42.3887487  0.793941E-02  0.474E-01    0.59       1.0  T
   4    -42.3998069 -0.110582E-01  0.106E-01    0.76       1.0  T
   5    -42.3999070 -0.100053E-03  0.694E-02    0.70       1.0  T
   6    -42.4000844 -0.177407E-03  0.205E-02    0.73       1.0  T
   7    -42.4000896 -0.520174E-05  0.113E-02    0.73       1.8  T
   8    -42.4000917 -0.213476E-05  0.278E-03    0.73       7.2  T
   9    -42.4000918 -0.103449E-06  0.166E-03    0.73      12.0  T
  10    -42.4000919 -0.324220E-07  0.543E-04    0.73      36.8  T
  11    -42.4000919 -0.504635E-08  0.155E-04    0.73     128.9  T
     SCC iter.                  ...        0 min,  0.015 sec
     gradient                   ...        0 min,  0.013 sec
 * total energy  :   -41.9131111 Eh     change       -0.5552501E-02 Eh
   gradient norm :     0.1851087 Eh/α   predicted    -0.9650667E-02 (  73.81%)
   displ. norm   :     0.1248063 α      lambda       -0.1133001E-01
   maximum displ.:     0.1075714 α      in ANC's #1, #2, #49, ...

........................................................................
.............................. CYCLE   14 ..............................
........................................................................

 iter      E             dE          RMSdq      gap      omega  full diag
   1    -42.3905642 -0.423906E+02  0.224E-01    0.77       0.0  T
   2    -42.3853892  0.517504E-02  0.359E-01    0.60       1.0  T
   3    -42.3893123 -0.392309E-02  0.213E-01    0.79       1.0  T
   4    -42.3907938 -0.148154E-02  0.139E-01    0.71       1.0  T
   5    -42.3913995 -0.605707E-03  0.373E-02    0.72       1.0  T
   6    -42.3914302 -0.306582E-04  0.108E-02    0.73       1.9  T
   7    -42.3914303 -0.101735E-06  0.629E-03    0.73       3.2  T
   8    -42.3914308 -0.504218E-06  0.344E-03    0.73       5.8  T
   9    -42.3914311 -0.327365E-06  0.939E-04    0.73      21.3  T
  10    -42.3914311 -0.497268E-08  0.312E-04    0.73      64.2  T
     SCC iter.                  ...        0 min,  0.014 sec
     gradient                   ...        0 min,  0.013 sec
 * total energy  :   -41.9220693 Eh     change       -0.8958178E-02 Eh
   gradient norm :     0.1179104 Eh/α   predicted    -0.5753265E-02 ( -35.78%)
   displ. norm   :     0.2569994 α      lambda       -0.1744338E-01
   maximum displ.:     0.1543302 α      in ANC's #1, #2, #9, ...

........................................................................
.............................. CYCLE   15 ..............................
........................................................................

 iter      E             dE          RMSdq      gap      omega  full diag
   1    -42.3852363 -0.423852E+02  0.413E-01    0.85       0.0  T
   2    -42.3545281  0.307082E-01  0.836E-01    0.50       1.0  T
   3    -42.3842115 -0.296834E-01  0.320E-01    0.83       1.0  T
   4    -42.3864159 -0.220440E-02  0.255E-01    0.73       1.0  T
   5    -42.3883760 -0.196006E-02  0.489E-02    0.74       1.0  T
   6    -42.3884312 -0.552189E-04  0.152E-02    0.74       1.3  T
   7    -42.3884305  0.680646E-06  0.100E-02    0.75       2.0  T
   8    -42.3884321 -0.164232E-05  0.538E-03    0.75       3.7  T
   9    -42.3884331 -0.100426E-05  0.127E-03    0.74      15.7  T
  10    -42.3884331 -0.334668E-08  0.789E-04    0.74      25.3  T
  11    -42.3884331 -0.769505E-08  0.410E-04    0.74      48.8  T
     SCC iter.                  ...        0 min,  0.017 sec
     gradient                   ...        0 min,  0.013 sec
 * total energy  :   -41.9344119 Eh     change       -0.1234264E-01 Eh
   gradient norm :     0.0842986 Eh/α   predicted    -0.9298114E-02 ( -24.67%)
   displ. norm   :     0.2248501 α      lambda       -0.1119657E-01
   maximum displ.:     0.0964517 α      in ANC's #2, #9, #19, ...

........................................................................
.............................. CYCLE   16 ..............................
........................................................................

 iter      E             dE          RMSdq      gap      omega  full diag
   1    -42.3939215 -0.423939E+02  0.375E-01    0.94       0.0  T
   2    -42.3074096  0.865119E-01  0.132E+00    0.44       1.0  T
   3    -42.3992984 -0.918889E-01  0.134E-01    0.78       1.0  T
   4    -42.3991485  0.149925E-03  0.113E-01    0.77       1.0  T
   5    -42.3993209 -0.172356E-03  0.731E-02    0.76       1.0  T
   6    -42.3994314 -0.110550E-03  0.268E-02    0.76       1.0  T
   7    -42.3994671 -0.356423E-04  0.725E-03    0.77       2.8  T
   8    -42.3994678 -0.753821E-06  0.342E-03    0.77       5.8  T
   9    -42.3994679 -0.609885E-07  0.168E-03    0.77      11.9  T
  10    -42.3994679 -0.626501E-07  0.635E-04    0.77      31.5  T
  11    -42.3994679 -0.318697E-08  0.219E-04    0.77      91.3  T
     SCC iter.                  ...        0 min,  0.015 sec
     gradient                   ...        0 min,  0.013 sec
 * total energy  :   -41.9419624 Eh     change       -0.7550476E-02 Eh
   gradient norm :     0.0996565 Eh/α   predicted    -0.5881354E-02 ( -22.11%)
   displ. norm   :     0.2209962 α      lambda       -0.6582681E-02
   maximum displ.:     0.0999880 α      in ANC's #9, #19, #24, ...

........................................................................
.............................. CYCLE   17 ..............................
........................................................................

 iter      E             dE          RMSdq      gap      omega  full diag
   1    -42.4009426 -0.424009E+02  0.223E-01    0.87       0.0  T
   2    -42.3946626  0.628009E-02  0.381E-01    0.67       1.0  T
   3    -42.4008176 -0.615504E-02  0.156E-01    0.85       1.0  T
   4    -42.4012691 -0.451521E-03  0.111E-01    0.82       1.0  T
   5    -42.4015328 -0.263653E-03  0.363E-02    0.82       1.0  T
   6    -42.4015989 -0.661702E-04  0.613E-03    0.81       3.3  T
   7    -42.4015991 -0.173307E-06  0.354E-03    0.81       5.6  T
   8    -42.4015993 -0.213167E-06  0.844E-04    0.81      23.7  T
   9    -42.4015993 -0.739664E-08  0.431E-04    0.81      46.4  T
     SCC iter.                  ...        0 min,  0.013 sec
     gradient                   ...        0 min,  0.013 sec
 * total energy  :   -41.9469506 Eh     change       -0.4988197E-02 Eh
   gradient norm :     0.1099597 Eh/α   predicted    -0.3452691E-02 ( -30.78%)
   displ. norm   :     0.2720248 α      lambda       -0.9478255E-02
   maximum displ.:     0.1249045 α      in ANC's #9, #19, #24, ...

........................................................................
.............................. CYCLE   18 ..............................
........................................................................

 iter      E             dE          RMSdq      gap      omega  full diag
   1    -42.4096646 -0.424097E+02  0.283E-01    0.95       0.0  T
   2    -42.3962626  0.134020E-01  0.540E-01    0.67       1.0  T
   3    -42.4102803 -0.140177E-01  0.176E-01    0.91       1.0  T
   4    -42.4110508 -0.770436E-03  0.644E-02    0.88       1.0  T
   5    -42.4111448 -0.940888E-04  0.275E-02    0.85       1.0  T
   6    -42.4111612 -0.163255E-04  0.138E-02    0.85       1.5  T
   7    -42.4111651 -0.392625E-05  0.867E-03    0.86       2.3  T
   8    -42.4111669 -0.181251E-05  0.237E-03    0.86       8.4  T
   9    -42.4111670 -0.521309E-07  0.101E-03    0.86      19.8  T
  10    -42.4111670 -0.212269E-08  0.322E-04    0.86      62.2  T
  11    -42.4111670 -0.131468E-08  0.128E-04    0.86     155.9  T
     SCC iter.                  ...        0 min,  0.015 sec
     gradient                   ...        0 min,  0.013 sec
 * total energy  :   -41.9542927 Eh     change       -0.7342111E-02 Eh
   gradient norm :     0.1104330 Eh/α   predicted    -0.5089855E-02 ( -30.68%)
   displ. norm   :     0.3002033 α      lambda       -0.1216550E-01
   maximum displ.:     0.1411021 α      in ANC's #9, #24, #19, ...

........................................................................
.............................. CYCLE   19 ..............................
........................................................................

 iter      E             dE          RMSdq      gap      omega  full diag
   1    -42.4173026 -0.424173E+02  0.307E-01    0.96       0.0  T
   2    -42.4166596  0.642984E-03  0.233E-01    0.89       1.0  T
   3    -42.4148815  0.177811E-02  0.279E-01    1.01       1.0  T
   4    -42.4175707 -0.268915E-02  0.140E-01    0.89       1.0  T
   5    -42.4181472 -0.576515E-03  0.526E-02    0.95       1.0  T
   6    -42.4182312 -0.840691E-04  0.173E-02    0.92       1.2  T
   7    -42.4182381 -0.689090E-05  0.553E-03    0.93       3.6  T
   8    -42.4182383 -0.127882E-06  0.237E-03    0.93       8.4  T
   9    -42.4182384 -0.135118E-06  0.841E-04    0.93      23.8  T
  10    -42.4182384 -0.196480E-08  0.280E-04    0.93      71.5  T
     SCC iter.                  ...        0 min,  0.014 sec
     gradient                   ...        0 min,  0.013 sec
 * total energy  :   -41.9629950 Eh     change       -0.8702246E-02 Eh
   gradient norm :     0.0874910 Eh/α   predicted    -0.6631044E-02 ( -23.80%)
   displ. norm   :     0.1887974 α      lambda       -0.7428840E-02
   maximum displ.:     0.0873223 α      in ANC's #1, #9, #24, ...

........................................................................
.............................. CYCLE   20 ..............................
........................................................................

 iter      E             dE          RMSdq      gap      omega  full diag
   1    -42.4247099 -0.424247E+02  0.270E-01    1.00       0.0  T
   2    -42.4237102  0.999758E-03  0.218E-01    0.94       1.0  T
   3    -42.4225022  0.120798E-02  0.270E-01    1.05       1.0  T
   4    -42.4251427 -0.264051E-02  0.102E-01    0.95       1.0  T
   5    -42.4253702 -0.227477E-03  0.375E-02    0.99       1.0  T
   6    -42.4254185 -0.483461E-04  0.143E-02    0.97       1.4  T
   7    -42.4254230 -0.444824E-05  0.470E-03    0.97       4.3  T
   8    -42.4254231 -0.177812E-06  0.202E-03    0.97       9.9  T
   9    -42.4254232 -0.930657E-07  0.773E-04    0.97      25.9  T
  10    -42.4254232 -0.207183E-08  0.276E-04    0.97      72.4  T
     SCC iter.                  ...        0 min,  0.014 sec
     gradient                   ...        0 min,  0.013 sec
 * total energy  :   -41.9680126 Eh     change       -0.5017620E-02 Eh
   gradient norm :     0.0788319 Eh/α   predicted    -0.3847483E-02 ( -23.32%)
   displ. norm   :     0.0967515 α      lambda       -0.4265908E-02
   maximum displ.:     0.0355017 α      in ANC's #46, #47, #38, ...
 * RMSD in coord.:     0.8316270 α      energy gain  -0.1151209E+02 Eh

generating ANC from model Hessian ...
Using Lindh-Hessian (1995)
 Shifting diagonal of input Hessian by    9.9275032037448255E-003
 Lowest  eigenvalues of input Hessian
    0.000000    0.000000    0.000000    0.000000    0.000000    0.000000
    0.010000    0.011730    0.013670    0.015257    0.019162    0.020614
    0.021835    0.022188    0.026391    0.028380    0.034039    0.037076
 Highest eigenvalues
    1.889922    2.022797    2.159951    2.232465    2.535819    2.758050


........................................................................
.............................. CYCLE   21 ..............................
........................................................................

 iter      E             dE          RMSdq      gap      omega  full diag
   1    -42.4302519 -0.424303E+02  0.155E-01    1.02       0.0  T
   2    -42.4298184  0.433465E-03  0.125E-01    0.97       1.0  T
   3    -42.4292763  0.542101E-03  0.175E-01    1.05       1.0  T
   4    -42.4304151 -0.113884E-02  0.497E-02    1.00       1.0  T
   5    -42.4304483 -0.331284E-04  0.163E-02    1.00       1.2  T
   6    -42.4304551 -0.685394E-05  0.849E-03    0.99       2.4  T
   7    -42.4304563 -0.117565E-05  0.337E-03    1.00       5.9  T
   8    -42.4304566 -0.316522E-06  0.883E-04    1.00      22.7  T
   9    -42.4304566 -0.100421E-07  0.431E-04    1.00      46.4  T
     SCC iter.                  ...        0 min,  0.013 sec
     gradient                   ...        0 min,  0.013 sec
 * total energy  :   -41.9712033 Eh     change       -0.3190693E-02 Eh
   gradient norm :     0.0782916 Eh/α   predicted     0.0000000E+00 (-100.00%)
   displ. norm   :     0.5808706 α      lambda       -0.2621550E-01
   maximum displ.:     0.3035593 α      in ANC's #5, #9, #7, ...

........................................................................
.............................. CYCLE   22 ..............................
........................................................................

 iter      E             dE          RMSdq      gap      omega  full diag
   1    -42.4614309 -0.424614E+02  0.507E-01    1.29       0.0  T
   2    -42.4591575  0.227346E-02  0.407E-01    1.02       1.0  T
   3    -42.4572339  0.192357E-02  0.407E-01    1.32       1.0  T
   4    -42.4604233 -0.318941E-02  0.262E-01    1.19       1.0  T
   5    -42.4626611 -0.223774E-02  0.347E-02    1.17       1.0  T
   6    -42.4626999 -0.388492E-04  0.115E-02    1.15       1.7  T
   7    -42.4627004 -0.469807E-06  0.459E-03    1.16       4.4  T
   8    -42.4627004 -0.633312E-07  0.195E-03    1.16      10.2  T
   9    -42.4627006 -0.100499E-06  0.773E-04    1.16      25.9  T
  10    -42.4627006 -0.121710E-07  0.218E-04    1.16      91.7  T
     SCC iter.                  ...        0 min,  0.014 sec
     gradient                   ...        0 min,  0.013 sec
 * total energy  :   -41.9921405 Eh     change       -0.2093724E-01 Eh
   gradient norm :     0.0505843 Eh/α   predicted    -0.1753128E-01 ( -16.27%)
   displ. norm   :     0.6877733 α      lambda       -0.2074765E-01
   maximum displ.:     0.3883850 α      in ANC's #5, #9, #12, ...

........................................................................
.............................. CYCLE   23 ..............................
........................................................................

 iter      E             dE          RMSdq      gap      omega  full diag
   1    -42.4894917 -0.424895E+02  0.510E-01    1.43       0.0  T
   2    -42.4889742  0.517512E-03  0.387E-01    1.29       1.0  T
   3    -42.4881693  0.804934E-03  0.314E-01    1.35       1.0  T
   4    -42.4888347 -0.665394E-03  0.247E-01    1.42       1.0  T
   5    -42.4907398 -0.190511E-02  0.323E-02    1.32       1.0  T
   6    -42.4907655 -0.256959E-04  0.136E-02    1.33       1.5  T
   7    -42.4907683 -0.280824E-05  0.401E-03    1.33       5.0  T
   8    -42.4907684 -0.659699E-07  0.117E-03    1.33      17.1  T
   9    -42.4907684 -0.964538E-08  0.550E-04    1.33      36.4  T
  10    -42.4907684 -0.169435E-08  0.144E-04    1.33     138.4  T
     SCC iter.                  ...        0 min,  0.014 sec
     gradient                   ...        0 min,  0.013 sec
 * total energy  :   -42.0083955 Eh     change       -0.1625504E-01 Eh
   gradient norm :     0.0558417 Eh/α   predicted    -0.1528099E-01 (  -5.99%)
   displ. norm   :     0.6714079 α      lambda       -0.1659530E-01
   maximum displ.:     0.3937235 α      in ANC's #5, #9, #13, ...

........................................................................
.............................. CYCLE   24 ..............................
........................................................................

 iter      E             dE          RMSdq      gap      omega  full diag
   1    -42.5142980 -0.425143E+02  0.557E-01    1.57       0.0  T
   2    -42.5148860 -0.587916E-03  0.359E-01    1.44       1.0  T
   3    -42.5129421  0.194390E-02  0.305E-01    1.48       1.0  T
   4    -42.5140354 -0.109332E-02  0.262E-01    1.54       1.0  T
   5    -42.5157839 -0.174851E-02  0.417E-02    1.45       1.0  T
   6    -42.5158232 -0.393051E-04  0.157E-02    1.48       1.3  T
   7    -42.5158262 -0.303408E-05  0.624E-03    1.47       3.2  T
   8    -42.5158264 -0.208342E-06  0.158E-03    1.47      12.7  T
   9    -42.5158264 -0.121426E-07  0.817E-04    1.47      24.5  T
  10    -42.5158265 -0.533876E-08  0.225E-04    1.47      88.8  T
     SCC iter.                  ...        0 min,  0.014 sec
     gradient                   ...        0 min,  0.013 sec
 * total energy  :   -42.0229678 Eh     change       -0.1457230E-01 Eh
   gradient norm :     0.0691111 Eh/α   predicted    -0.1203814E-01 ( -17.39%)
   displ. norm   :     0.7710446 α      lambda       -0.2099026E-01
   maximum displ.:     0.4164114 α      in ANC's #5, #9, #13, ...

........................................................................
.............................. CYCLE   25 ..............................
........................................................................

 iter      E             dE          RMSdq      gap      omega  full diag
   1    -42.5453549 -0.425454E+02  0.882E-01    1.72       0.0  T
   2    -42.5448593  0.495596E-03  0.481E-01    1.48       1.0  T
   3    -42.5340759  0.107834E-01  0.793E-01    1.80       1.0  T
   4    -42.5479291 -0.138532E-01  0.152E-01    1.62       1.0  T
   5    -42.5482139 -0.284810E-03  0.365E-02    1.57       1.0  T
   6    -42.5482279 -0.139942E-04  0.207E-02    1.59       1.0  T
   7    -42.5482335 -0.553711E-05  0.889E-03    1.58       2.3  T
   8    -42.5482340 -0.586837E-06  0.213E-03    1.58       9.4  T
   9    -42.5482341 -0.231321E-07  0.116E-03    1.58      17.3  T
  10    -42.5482341 -0.655253E-08  0.340E-04    1.58      58.8  T
  11    -42.5482341 -0.589068E-09  0.134E-04    1.58     148.7  T
     SCC iter.                  ...        0 min,  0.015 sec
     gradient                   ...        0 min,  0.013 sec
 * total energy  :   -42.0413570 Eh     change       -0.1838911E-01 Eh
   gradient norm :     0.0892089 Eh/α   predicted    -0.1673459E-01 (  -9.00%)
   displ. norm   :     0.7069967 α      lambda       -0.2377423E-01
   maximum displ.:     0.3909497 α      in ANC's #5, #9, #13, ...

........................................................................
.............................. CYCLE   26 ..............................
........................................................................

 iter      E             dE          RMSdq      gap      omega  full diag
   1    -42.5839371 -0.425839E+02  0.113E+00    1.78       0.0  T
   2    -42.5667077  0.172294E-01  0.918E-01    1.39       1.0  T
   3    -42.5801295 -0.134218E-01  0.833E-01    1.87       1.0  T
   4    -42.5922698 -0.121403E-01  0.181E-01    1.66       1.0  T
   5    -42.5926239 -0.354161E-03  0.337E-02    1.63       1.0  T
   6    -42.5926289 -0.501710E-05  0.186E-02    1.63       1.1  T
   7    -42.5926301 -0.116624E-05  0.747E-03    1.63       2.7  T
   8    -42.5926308 -0.715298E-06  0.254E-03    1.63       7.9  T
   9    -42.5926308 -0.999515E-08  0.134E-03    1.63      14.9  T
  10    -42.5926308 -0.184230E-07  0.374E-04    1.63      53.4  T
  11    -42.5926308 -0.160012E-08  0.118E-04    1.63     169.6  T
     SCC iter.                  ...        0 min,  0.015 sec
     gradient                   ...        0 min,  0.013 sec
 * total energy  :   -42.0554779 Eh     change       -0.1412091E-01 Eh
   gradient norm :     0.1034120 Eh/α   predicted    -0.1782882E-01 (  26.26%)
   displ. norm   :     0.3685460 α      lambda       -0.2166976E-01
   maximum displ.:     0.1580588 α      in ANC's #10, #25, #11, ...

........................................................................
.............................. CYCLE   27 ..............................
........................................................................

 iter      E             dE          RMSdq      gap      omega  full diag
   1    -42.5948893 -0.425949E+02  0.514E-01    1.75       0.0  T
   2    -42.5900985  0.479080E-02  0.523E-01    1.58       1.0  T
   3    -42.5965169 -0.641837E-02  0.282E-01    1.78       1.0  T
   4    -42.5975549 -0.103797E-02  0.583E-02    1.68       1.0  T
   5    -42.5976075 -0.526313E-04  0.171E-02    1.71       1.2  T
   6    -42.5976114 -0.385979E-05  0.655E-03    1.70       3.1  T
   7    -42.5976115 -0.104476E-06  0.319E-03    1.70       6.3  T
   8    -42.5976116 -0.871741E-07  0.116E-03    1.70      17.2  T
   9    -42.5976116 -0.649634E-08  0.558E-04    1.70      35.8  T
  10    -42.5976116 -0.223097E-08  0.153E-04    1.70     130.4  T
     SCC iter.                  ...        0 min,  0.014 sec
     gradient                   ...        0 min,  0.013 sec
 * total energy  :   -42.0688899 Eh     change       -0.1341201E-01 Eh
   gradient norm :     0.0719900 Eh/α   predicted    -0.1230654E-01 (  -8.24%)
   displ. norm   :     0.5432879 α      lambda       -0.2128376E-01
   maximum displ.:     0.2516840 α      in ANC's #5, #10, #9, ...

........................................................................
.............................. CYCLE   28 ..............................
........................................................................

 iter      E             dE          RMSdq      gap      omega  full diag
   1    -42.6009788 -0.426010E+02  0.590E-01    1.80       0.0  T
   2    -42.5983683  0.261047E-02  0.385E-01    1.63       1.0  T
   3    -42.5990434 -0.675080E-03  0.458E-01    1.87       1.0  T
   4    -42.6025170 -0.347359E-02  0.593E-02    1.73       1.0  T
   5    -42.6025734 -0.564153E-04  0.201E-02    1.74       1.0  T
   6    -42.6025755 -0.210657E-05  0.994E-03    1.73       2.0  T
   7    -42.6025761 -0.608385E-06  0.391E-03    1.73       5.1  T
   8    -42.6025763 -0.140928E-06  0.128E-03    1.73      15.6  T
   9    -42.6025763 -0.985168E-08  0.654E-04    1.73      30.6  T
  10    -42.6025763 -0.183862E-08  0.251E-04    1.73      79.7  T
     SCC iter.                  ...        0 min,  0.014 sec
     gradient                   ...        0 min,  0.013 sec
 * total energy  :   -42.0750189 Eh     change       -0.6129058E-02 Eh
   gradient norm :     0.1153506 Eh/α   predicted    -0.1378297E-01 ( 124.88%)
   displ. norm   :     0.3026010 α      lambda       -0.1879065E-01
   maximum displ.:     0.1232427 α      in ANC's #13, #25, #12, ...

........................................................................
.............................. CYCLE   29 ..............................
........................................................................

 iter      E             dE          RMSdq      gap      omega  full diag
   1    -42.5944054 -0.425944E+02  0.275E-01    1.77       0.0  T
   2    -42.5944071 -0.172397E-05  0.174E-01    1.70       1.0  T
   3    -42.5938167  0.590388E-03  0.180E-01    1.80       1.0  T
   4    -42.5945253 -0.708604E-03  0.461E-02    1.73       1.0  T
   5    -42.5945716 -0.463140E-04  0.118E-02    1.73       1.7  T
   6    -42.5945719 -0.246424E-06  0.663E-03    1.73       3.0  T
   7    -42.5945722 -0.344868E-06  0.212E-03    1.73       9.4  T
   8    -42.5945722 -0.310066E-07  0.986E-04    1.73      20.3  T
   9    -42.5945722 -0.448026E-08  0.455E-04    1.73      43.9  T
     SCC iter.                  ...        0 min,  0.012 sec
     gradient                   ...        0 min,  0.013 sec
 * total energy  :   -42.0829010 Eh     change       -0.7882049E-02 Eh
   gradient norm :     0.0768680 Eh/α   predicted    -0.1025564E-01 (  30.11%)
   displ. norm   :     0.2687355 α      lambda       -0.8855942E-02
   maximum displ.:     0.1228517 α      in ANC's #7, #1, #12, ...

........................................................................
.............................. CYCLE   30 ..............................
........................................................................

 iter      E             dE          RMSdq      gap      omega  full diag
   1    -42.6136150 -0.426136E+02  0.250E-01    1.74       0.0  T
   2    -42.6133617  0.253299E-03  0.199E-01    1.65       1.0  T
   3    -42.6135889 -0.227221E-03  0.138E-01    1.75       1.0  T
   4    -42.6139306 -0.341758E-03  0.455E-02    1.71       1.0  T
   5    -42.6139552 -0.245999E-04  0.734E-03    1.71       2.7  T
   6    -42.6139553 -0.934898E-07  0.437E-03    1.71       4.6  T
   7    -42.6139555 -0.155284E-06  0.179E-03    1.71      11.2  T
   8    -42.6139555 -0.211637E-07  0.472E-04    1.71      42.4  T
   9    -42.6139555 -0.718671E-09  0.258E-04    1.71      77.6  T
     SCC iter.                  ...        0 min,  0.012 sec
     gradient                   ...        0 min,  0.013 sec
 * total energy  :   -42.0877426 Eh     change       -0.4841612E-02 Eh
   gradient norm :     0.0526935 Eh/α   predicted    -0.4747754E-02 (  -1.94%)
   displ. norm   :     0.2991975 α      lambda       -0.6829024E-02
   maximum displ.:     0.1613390 α      in ANC's #1, #10, #12, ...

........................................................................
.............................. CYCLE   31 ..............................
........................................................................

 iter      E             dE          RMSdq      gap      omega  full diag
   1    -42.6235354 -0.426235E+02  0.245E-01    1.72       0.0  T
   2    -42.6233531  0.182263E-03  0.165E-01    1.64       1.0  T
   3    -42.6231126  0.240511E-03  0.176E-01    1.74       1.0  T
   4    -42.6237124 -0.599806E-03  0.224E-02    1.69       1.0  T
   5    -42.6237182 -0.582970E-05  0.883E-03    1.69       2.3  T
   6    -42.6237185 -0.305058E-06  0.469E-03    1.69       4.3  T
   7    -42.6237187 -0.175372E-06  0.134E-03    1.69      14.9  T
   8    -42.6237187 -0.123764E-07  0.633E-04    1.69      31.6  T
   9    -42.6237187 -0.174422E-08  0.299E-04    1.69      66.8  T
     SCC iter.                  ...        0 min,  0.012 sec
     gradient                   ...        0 min,  0.013 sec
 * total energy  :   -42.0908179 Eh     change       -0.3075292E-02 Eh
   gradient norm :     0.0436342 Eh/α   predicted    -0.3720182E-02 (  20.97%)
   displ. norm   :     0.3457878 α      lambda       -0.6309750E-02
   maximum displ.:     0.1710570 α      in ANC's #7, #10, #1, ...

........................................................................
.............................. CYCLE   32 ..............................
........................................................................

 iter      E             dE          RMSdq      gap      omega  full diag
   1    -42.6172884 -0.426173E+02  0.282E-01    1.62       0.0  T
   2    -42.6157010  0.158736E-02  0.325E-01    1.73       1.0  T
   3    -42.6179764 -0.227533E-02  0.128E-01    1.61       1.0  T
   4    -42.6180971 -0.120723E-03  0.372E-02    1.67       1.0  T
   5    -42.6181187 -0.215786E-04  0.107E-02    1.64       1.9  T
   6    -42.6181205 -0.181455E-05  0.434E-03    1.65       4.6  T
   7    -42.6181206 -0.748041E-07  0.208E-03    1.65       9.6  T
   8    -42.6181206 -0.366269E-07  0.738E-04    1.64      27.1  T
   9    -42.6181206 -0.557092E-08  0.303E-04    1.64      66.0  T
     SCC iter.                  ...        0 min,  0.012 sec
     gradient                   ...        0 min,  0.013 sec
 * total energy  :   -42.0924915 Eh     change       -0.1673650E-02 Eh
   gradient norm :     0.0429791 Eh/α   predicted    -0.3532107E-02 ( 111.04%)
   displ. norm   :     0.1299785 α      lambda       -0.2737090E-02
   maximum displ.:     0.0463849 α      in ANC's #7, #12, #11, ...

........................................................................
.............................. CYCLE   33 ..............................
........................................................................

 iter      E             dE          RMSdq      gap      omega  full diag
   1    -42.6171205 -0.426171E+02  0.127E-01    1.68       0.0  T
   2    -42.6169428  0.177751E-03  0.122E-01    1.62       1.0  T
   3    -42.6171552 -0.212408E-03  0.700E-02    1.68       1.0  T
   4    -42.6172167 -0.615149E-04  0.971E-03    1.66       2.1  T
   5    -42.6172185 -0.178209E-05  0.263E-03    1.66       7.6  T
   6    -42.6172185 -0.278746E-07  0.141E-03    1.66      14.2  T
   7    -42.6172185 -0.360333E-08  0.423E-04    1.66      47.3  T
   8    -42.6172185 -0.208805E-08  0.210E-04    1.66      95.1  T
     SCC iter.                  ...        0 min,  0.011 sec
     gradient                   ...        0 min,  0.013 sec
 * total energy  :   -42.0941570 Eh     change       -0.1665451E-02 Eh
   gradient norm :     0.0175115 Eh/α   predicted    -0.1391665E-02 ( -16.44%)
   displ. norm   :     0.1637398 α      lambda       -0.1465980E-02
   maximum displ.:     0.0788238 α      in ANC's #5, #1, #27, ...

........................................................................
.............................. CYCLE   34 ..............................
........................................................................

 iter      E             dE          RMSdq      gap      omega  full diag
   1    -42.6226914 -0.426227E+02  0.965E-02    1.67       0.0  T
   2    -42.6226720  0.194202E-04  0.709E-02    1.65       1.0  T
   3    -42.6226303  0.416884E-04  0.621E-02    1.68       1.0  T
   4    -42.6227153 -0.850118E-04  0.152E-02    1.66       1.3  T
   5    -42.6227187 -0.339251E-05  0.354E-03    1.66       5.7  T
   6    -42.6227188 -0.107896E-06  0.172E-03    1.66      11.6  T
   7    -42.6227188 -0.212783E-07  0.683E-04    1.66      29.3  T
   8    -42.6227188 -0.590310E-08  0.196E-04    1.66     102.2  T
     SCC iter.                  ...        0 min,  0.011 sec
     gradient                   ...        0 min,  0.013 sec
 * total energy  :   -42.0948915 Eh     change       -0.7344859E-03 Eh
   gradient norm :     0.0185624 Eh/α   predicted    -0.7526404E-03 (   2.47%)
   displ. norm   :     0.2399212 α      lambda       -0.1743385E-02
   maximum displ.:     0.0922052 α      in ANC's #10, #5, #27, ...

........................................................................
.............................. CYCLE   35 ..............................
........................................................................

 iter      E             dE          RMSdq      gap      omega  full diag
   1    -42.6196218 -0.426196E+02  0.162E-01    1.69       0.0  T
   2    -42.6192317  0.390116E-03  0.158E-01    1.62       1.0  T
   3    -42.6197369 -0.505143E-03  0.888E-02    1.69       1.0  T
   4    -42.6198364 -0.995915E-04  0.150E-02    1.66       1.3  T
   5    -42.6198397 -0.323728E-05  0.403E-03    1.67       5.0  T
   6    -42.6198398 -0.109149E-06  0.227E-03    1.66       8.8  T
   7    -42.6198398 -0.296113E-07  0.919E-04    1.67      21.8  T
   8    -42.6198398 -0.661867E-08  0.395E-04    1.67      50.7  T
     SCC iter.                  ...        0 min,  0.011 sec
     gradient                   ...        0 min,  0.013 sec
 * total energy  :   -42.0952326 Eh     change       -0.3410888E-03 Eh
   gradient norm :     0.0338246 Eh/α   predicted    -0.9218705E-03 ( 170.27%)
   displ. norm   :     0.1205351 α      lambda       -0.1399144E-02
   maximum displ.:     0.0504109 α      in ANC's #2, #1, #13, ...

........................................................................
.............................. CYCLE   36 ..............................
........................................................................

 iter      E             dE          RMSdq      gap      omega  full diag
   1    -42.6170748 -0.426171E+02  0.104E-01    1.64       0.0  T
   2    -42.6168255  0.249234E-03  0.125E-01    1.69       1.0  T
   3    -42.6171950 -0.369513E-03  0.436E-02    1.65       1.0  T
   4    -42.6172092 -0.141908E-04  0.120E-02    1.66       1.7  T
   5    -42.6172109 -0.166367E-05  0.360E-03    1.66       5.6  T
   6    -42.6172111 -0.195716E-06  0.165E-03    1.66      12.1  T
   7    -42.6172111 -0.135161E-07  0.607E-04    1.66      32.9  T
   8    -42.6172111 -0.275695E-08  0.218E-04    1.66      91.7  T
     SCC iter.                  ...        0 min,  0.011 sec
     gradient                   ...        0 min,  0.013 sec
 * total energy  :   -42.0958429 Eh     change       -0.6103624E-03 Eh
   gradient norm :     0.0113498 Eh/α   predicted    -0.7097367E-03 (  16.28%)
   displ. norm   :     0.0799402 α      lambda       -0.4418331E-03
   maximum displ.:     0.0332159 α      in ANC's #16, #1, #10, ...

........................................................................
.............................. CYCLE   37 ..............................
........................................................................

 iter      E             dE          RMSdq      gap      omega  full diag
   1    -42.6195904 -0.426196E+02  0.716E-02    1.67       0.0  T
   2    -42.6195739  0.164783E-04  0.505E-02    1.67       1.0  T
   3    -42.6195478  0.260710E-04  0.530E-02    1.65       1.0  T
   4    -42.6196023 -0.545262E-04  0.838E-03    1.67       2.4  T
   5    -42.6196039 -0.157742E-05  0.221E-03    1.67       9.1  T
   6    -42.6196040 -0.351369E-07  0.111E-03    1.67      18.0  T
   7    -42.6196040 -0.123802E-07  0.307E-04    1.67      65.2  T
   8    -42.6196040 -0.463636E-09  0.104E-04    1.67     192.9  T
     SCC iter.                  ...        0 min,  0.011 sec
     gradient                   ...        0 min,  0.013 sec
 * total energy  :   -42.0959416 Eh     change       -0.9865821E-04 Eh
   gradient norm :     0.0106336 Eh/α   predicted    -0.2223327E-03 ( 125.36%)
   displ. norm   :     0.0363093 α      lambda       -0.2141310E-03
   maximum displ.:     0.0136872 α      in ANC's #16, #13, #21, ...

........................................................................
.............................. CYCLE   38 ..............................
........................................................................

 iter      E             dE          RMSdq      gap      omega  full diag
   1    -42.6209818 -0.426210E+02  0.315E-02    1.67       0.0  T
   2    -42.6209715  0.102916E-04  0.300E-02    1.66       1.0  T
   3    -42.6209861 -0.145926E-04  0.170E-02    1.67       1.2  T
   4    -42.6209893 -0.318649E-05  0.570E-03    1.66       3.5  T
   5    -42.6209898 -0.534783E-06  0.126E-03    1.67      15.9  T
   6    -42.6209898 -0.111439E-07  0.707E-04    1.67      28.3  T
   7    -42.6209898 -0.262024E-08  0.306E-04    1.67      65.3  T
     SCC iter.                  ...        0 min,  0.010 sec
     gradient                   ...        0 min,  0.013 sec
 * total energy  :   -42.0960455 Eh     change       -0.1038768E-03 Eh
   gradient norm :     0.0036020 Eh/α   predicted    -0.1072094E-03 (   3.21%)
   displ. norm   :     0.0342587 α      lambda       -0.4375984E-04
   maximum displ.:     0.0184023 α      in ANC's #2, #12, #27, ...

........................................................................
.............................. CYCLE   39 ..............................
........................................................................

 iter      E             dE          RMSdq      gap      omega  full diag
   1    -42.6198498 -0.426198E+02  0.162E-02    1.67       0.0  T
   2    -42.6198492  0.677673E-06  0.106E-02    1.66       1.9  T
   3    -42.6198474  0.172420E-05  0.123E-02    1.67       1.6  T
   4    -42.6198505 -0.302971E-05  0.139E-03    1.67      14.4  T
   5    -42.6198505 -0.230872E-07  0.482E-04    1.67      41.5  T
   6    -42.6198505 -0.160952E-08  0.206E-04    1.67      96.9  T
     SCC iter.                  ...        0 min,  0.009 sec
     gradient                   ...        0 min,  0.013 sec
 * total energy  :   -42.0960721 Eh     change       -0.2666070E-04 Eh
   gradient norm :     0.0024287 Eh/α   predicted    -0.2190852E-04 ( -17.82%)
   displ. norm   :     0.0449136 α      lambda       -0.3256912E-04
   maximum displ.:     0.0277205 α      in ANC's #2, #1, #26, ...

   *** GEOMETRY OPTIMIZATION CONVERGED AFTER 39 ITERATIONS ***

------------------------------------------------------------------------
 total energy gain   :       -11.6401499 Eh    -7304.3043 kcal/mol
 total RMSD          :         1.1166290 a0        0.5909 Å
 total power (kW/mol):      -783.6207520 (step)********** (real)
------------------------------------------------------------------------

 ANCopt (total)                0 d,  0 h,  0 min,  1.599 sec
 optimizer setup                ...        0 min,  0.000 sec (  0.027%)
 model hessian                  ...        0 min,  0.013 sec (  0.794%)
 ANC generation                 ...        0 min,  0.002 sec (  0.111%)
 coordinate transformation      ...        0 min,  0.000 sec (  0.021%)
 single point calculation       ...        0 min,  1.572 sec ( 98.336%)
 optimization log               ...        0 min,  0.004 sec (  0.235%)
 hessian update                 ...        0 min,  0.001 sec (  0.031%)
 rational function              ...        0 min,  0.005 sec (  0.328%)

================
 final structure:
================
25
 xtb: 6.6.1 (8d0f1dd)
C            3.32140588594388        1.06828497231166        0.06223936021235
N            2.36227031083511       -0.07361512352644        0.06059671073797
C            3.62391254013775       -0.34965064416381        0.15742978036343
N            0.56954459731452       -2.75563520380186       -0.23285648961463
C            0.23528554488792       -1.54287434456834       -0.07814777636560
C            1.01500661058225       -0.24429033227508        0.00007865973685
C            0.24806713893743        0.95200204351916       -0.01176212377507
O            0.76130314087685        2.17472105201529       -0.00959356448510
N           -1.08288185714367        0.94518235374012       -0.01888880025667
C           -1.86914033326702        2.16823391663797       -0.05027325503527
C           -1.86019785406678       -0.23951336579365        0.04656430616923
O           -3.05341735750978       -0.16341842366086        0.11058419366602
N           -1.14461159045479       -1.39110834835677        0.02440363574411
C           -1.91458093369212       -2.62937208307779        0.03202972934382
H            3.40149165489481        1.67388991445340        0.96397100159279
H            3.51072983119770        1.58224734767331       -0.87777168477344
H            1.72764755703561        2.21220626324479       -0.00660112724324
H            4.29724379634596       -1.16589566882618        0.24173668676095
H           -1.22296608986243        3.03824343048433       -0.03981167733509
H           -2.48615887962757        2.16551814646852       -0.94870837537683
H           -2.53582692040249        2.17916857708615        0.81154826850551
H           -1.58881560171218       -3.25302207638756        0.86179884061812
H           -1.74176587635168       -3.17342807100539       -0.89487928602608
H           -2.96634290622127       -2.37566767370682        0.13322870968623
H            1.55322910542201       -2.98396811688390       -0.30574410495045

 Bond Distances (Angstroems)
 ---------------------------
C1-N2=1.4913         C1-C3=1.4530         C1-H15=1.0892        C1-H16=1.0879        N2-C1=1.4913         N2-C3=1.2951         
N2-C6=1.3594         C3-C1=1.4530         C3-N2=1.2951         C3-H18=1.0615        N4-C5=1.2675         N4-H25=1.0125        
C5-N4=1.2675         C5-C6=1.5167         C5-N13=1.3920        C6-N2=1.3594         C6-C5=1.5167         C6-C7=1.4211         
C7-C6=1.4211         C7-O8=1.3261         C7-N9=1.3310         O8-C7=1.3261         O8-H17=0.9671        N9-C7=1.3310         
N9-C10=1.4543        N9-C11=1.4185        C10-N9=1.4543        C10-H19=1.0838       C10-H20=1.0899       C10-H21=1.0896       
C11-N9=1.4185        C11-O12=1.1974       C11-N13=1.3560       O12-C11=1.1974       N13-C5=1.3920        N13-C11=1.3560       
N13-C14=1.4582       C14-N13=1.4582       C14-H22=1.0879       C14-H23=1.0886       C14-H24=1.0867       H15-C1=1.0892        
H16-C1=1.0879        H17-O8=0.9671        H18-C3=1.0615        H19-C10=1.0838       H20-C10=1.0899       H21-C10=1.0896       
H22-C14=1.0879       H23-C14=1.0886       H24-C14=1.0867       H25-N4=1.0125        
 C  H  Rav=1.0850 sigma=0.0085  Rmin=1.0615  Rmax=1.0899     9
 C  C  Rav=1.4636 sigma=0.0398  Rmin=1.4211  Rmax=1.5167     3
 N  H  Rav=1.0125 sigma=0.0000  Rmin=1.0125  Rmax=1.0125     1
 N  C  Rav=1.3823 sigma=0.0699  Rmin=1.2675  Rmax=1.4913    10
 O  H  Rav=0.9671 sigma=0.0000  Rmin=0.9671  Rmax=0.9671     1
 O  C  Rav=1.2617 sigma=0.0644  Rmin=1.1974  Rmax=1.3261     2

 selected bond angles (degree)
 --------------------
C3-C1-N2= 52.17                H15-C1-N2=118.29               H15-C1-C3=118.23               H16-C1-N2=118.21               
H16-C1-C3=118.78               H16-C1-H15=116.10              C3-N2-C1= 62.39                C6-N2-C1=137.19                
C6-N2-C3=160.40                N2-C3-C1= 65.44                H18-C3-C1=152.59               H18-C3-N2=141.98               
H25-N4-C5=118.74               C6-C5-N4=133.63                N13-C5-N4=112.01               N13-C5-C6=114.36               
C5-C6-N2=128.26                C7-C6-N2=115.44                C7-C6-C5=116.29                O8-C7-C6=124.56                
N9-C7-C6=122.37                N9-C7-O8=113.06                H17-O8-C7=114.99               C10-N9-C7=122.44               
C11-N9-C7=123.51               C11-N9-C10=114.02              H19-C10-N9=110.64              H20-C10-N9=108.77              
H20-C10-H19=110.33             H21-C10-N9=108.79              H21-C10-H19=110.43             H21-C10-H20=107.80             

 selected dihedral angles (degree)
 ---------------------------------
C3-N2-C1-H15=254.80           C3-N2-C1-H16=105.97           C6-N2-C1-C3=178.88            C6-N2-C1-H15= 73.68           
C6-N2-C1-H16=284.85           N2-C3-C1-H15=105.32           N2-C3-C1-H16=255.15           H18-C3-C1-N2=179.65           
H18-C3-C1-H15=284.97          H18-C3-C1-H16= 74.80          C1-C3-N2-C6=182.27            H18-C3-N2-C1=180.26           
H18-C3-N2-C6=  2.53           C6-C5-N4-H25=  1.73           N13-C5-N4-H25=180.86          C5-C6-N2-C1=175.58            
C5-C6-N2-C3=352.62            C7-C6-N2-C1=356.65            C7-C6-N2-C3=173.69            N2-C6-C5-N4=352.21            
N2-C6-C5-N13=173.09           C7-C6-C5-N4=171.13            C7-C6-C5-N13=352.01           O8-C7-C6-N2=  2.16            
O8-C7-C6-C5=183.09            N9-C7-C6-N2=182.54            N9-C7-C6-C5=  3.47            H17-O8-C7-C6=  0.49           
H17-O8-C7-N9=180.14           C10-N9-C7-C6=180.90           C10-N9-C7-O8=  1.24           C11-N9-C7-C6=  3.01           
C11-N9-C7-O8=183.35           H19-C10-N9-C7=358.52          H19-C10-N9-C11=176.60         H20-C10-N9-C7=119.87          
H20-C10-N9-C11=297.95         H21-C10-N9-C7=237.04          H21-C10-N9-C11= 55.11         
           -------------------------------------------------
          |                Final Singlepoint                |
           -------------------------------------------------

          ...................................................
          :                      SETUP                      :
          :.................................................:
          :  # basis functions                  67          :
          :  # atomic orbitals                  67          :
          :  # shells                           39          :
          :  # electrons                        74          :
          :  max. iterations                   250          :
          :  Hamiltonian                  GFN2-xTB          :
          :  restarted?                      false          :
          :  GBSA solvation                  false          :
          :  PC potential                    false          :
          :  electronic temp.         2500.0000000     K    :
          :  accuracy                    1.0000000          :
          :  -> integral cutoff          0.2500000E+02      :
          :  -> integral neglect         0.1000000E-07      :
          :  -> SCF convergence          0.1000000E-05 Eh   :
          :  -> wf. convergence          0.1000000E-03 e    :
          :  Broyden damping             0.4000000          :
          ...................................................

 iter      E             dE          RMSdq      gap      omega  full diag
   1    -42.6198505 -0.426199E+02  0.673E-05    1.67       0.0  T
   2    -42.6198505 -0.184883E-10  0.461E-05    1.67     433.6  T
   3    -42.6198505 -0.264961E-10  0.287E-05    1.67     696.1  T

   *** convergence criteria satisfied after 3 iterations ***

         #    Occupation            Energy/Eh            Energy/eV
      -------------------------------------------------------------
         1        2.0000           -0.9233575             -25.1258
       ...           ...                  ...                  ...
        31        2.0000           -0.6091946             -16.5770
        32        2.0000           -0.5964421             -16.2300
        33        2.0000           -0.5927898             -16.1306
        34        1.9996           -0.5700072             -15.5107
        35        1.9975           -0.5548847             -15.0992
        36        1.9894           -0.5433013             -14.7840
        37        1.9653           -0.5337742             -14.5247 (HOMO)
        38        0.0482           -0.4725181             -12.8579 (LUMO)
        39        0.0000           -0.4019465             -10.9375
        40        0.0000           -0.3691100             -10.0440
        41                         -0.3211896              -8.7400
        42                         -0.2905985              -7.9076
       ...                                ...                  ...
        67                          0.5719858              15.5645
      -------------------------------------------------------------
                  HL-Gap            0.0612561 Eh            1.6669 eV
             Fermi-level           -0.5018273 Eh          -13.6554 eV

 SCC (total)                   0 d,  0 h,  0 min,  0.036 sec
 SCC setup                      ...        0 min,  0.000 sec (  0.562%)
 Dispersion                     ...        0 min,  0.000 sec (  0.506%)
 classical contributions        ...        0 min,  0.000 sec (  0.198%)
 integral evaluation            ...        0 min,  0.005 sec ( 13.675%)
 iterations                     ...        0 min,  0.005 sec ( 12.772%)
 molecular gradient             ...        0 min,  0.026 sec ( 71.891%)
 printout                       ...        0 min,  0.000 sec (  0.356%)

         :::::::::::::::::::::::::::::::::::::::::::::::::::::
         ::                     SUMMARY                     ::
         :::::::::::::::::::::::::::::::::::::::::::::::::::::
         :: total energy             -42.096072119559 Eh    ::
         :: gradient norm              0.002429185342 Eh/a0 ::
         :: HOMO-LUMO gap              1.666863829315 eV    ::
         ::.................................................::
         :: SCC energy               -42.619850501352 Eh    ::
         :: -> isotropic ES            0.136451866673 Eh    ::
         :: -> anisotropic ES         -0.002245670368 Eh    ::
         :: -> anisotropic XC          0.018503652438 Eh    ::
         :: -> dispersion             -0.021954916452 Eh    ::
         :: repulsion energy           0.523396629590 Eh    ::
         :: add. restraining           0.000269390967 Eh    ::
         :: total charge               1.000000001902 e     ::
         :::::::::::::::::::::::::::::::::::::::::::::::::::::

           -------------------------------------------------
          |                Property Printout                |
           -------------------------------------------------

    * Orbital Energies and Occupations

         #    Occupation            Energy/Eh            Energy/eV
      -------------------------------------------------------------
         1        2.0000           -0.9233575             -25.1258
       ...           ...                  ...                  ...
        25        2.0000           -0.6624264             -18.0255
        26        2.0000           -0.6611564             -17.9910
        27        2.0000           -0.6479691             -17.6321
        28        2.0000           -0.6433801             -17.5073
        29        2.0000           -0.6395537             -17.4031
        30        2.0000           -0.6160348             -16.7632
        31        2.0000           -0.6091946             -16.5770
        32        2.0000           -0.5964421             -16.2300
        33        2.0000           -0.5927898             -16.1306
        34        1.9996           -0.5700072             -15.5107
        35        1.9975           -0.5548847             -15.0992
        36        1.9894           -0.5433013             -14.7840
        37        1.9653           -0.5337742             -14.5247 (HOMO)
        38        0.0482           -0.4725181             -12.8579 (LUMO)
        39        0.0000           -0.4019465             -10.9375
        40        0.0000           -0.3691100             -10.0440
        41                         -0.3211896              -8.7400
        42                         -0.2905985              -7.9076
        43                         -0.2174111              -5.9161
        44                         -0.1585294              -4.3138
        45                         -0.1557063              -4.2370
        46                         -0.1228599              -3.3432
        47                         -0.1114914              -3.0338
        48                         -0.0639873              -1.7412
       ...                                ...                  ...
        67                          0.5719858              15.5645
      -------------------------------------------------------------
                  HL-Gap            0.0612561 Eh            1.6669 eV
             Fermi-level           -0.5018273 Eh          -13.6554 eV

     #   Z          covCN         q      C6AA      α(0)
     1   6 C        3.733    -0.026    21.130     6.561
     2   7 N        2.738     0.082    19.829     6.614
     3   6 C        2.817     0.030    27.316     8.563
     4   7 N        1.811    -0.301    28.647     7.930
     5   6 C        2.820     0.156    24.618     8.130
     6   6 C        2.875    -0.046    29.133     8.848
     7   6 C        2.783     0.222    23.329     7.911
     8   8 O        1.664    -0.333    19.597     5.976
     9   7 N        2.744    -0.036    21.935     6.956
    10   6 C        3.705    -0.072    22.025     6.709
    11   6 C        2.726     0.316    21.634     7.615
    12   8 O        0.859    -0.357    20.832     6.119
    13   7 N        2.777    -0.054    22.280     7.011
    14   6 C        3.716    -0.076    22.087     6.714
    15   1 H        0.925     0.095     1.830     2.115
    16   1 H        0.925     0.096     1.825     2.112
    17   1 H        0.805     0.344     0.602     1.219
    18   1 H        0.927     0.144     1.435     1.873
    19   1 H        0.925     0.108     1.716     2.049
    20   1 H        0.925     0.111     1.692     2.034
    21   1 H        0.925     0.114     1.662     2.016
    22   1 H        0.925     0.101     1.772     2.082
    23   1 H        0.925     0.104     1.745     2.066
    24   1 H        0.925     0.113     1.671     2.021
    25   1 H        0.860     0.166     1.299     1.785

 Mol. C6AA /au·bohr⁶  :       6519.958192
 Mol. C8AA /au·bohr⁸  :     150057.271296
 Mol. α(0) /au        :        123.029652


Wiberg/Mayer (AO) data.
largest (>0.10) Wiberg bond orders for each atom

 ---------------------------------------------------------------------------
     #   Z sym  total        # sym  WBO       # sym  WBO       # sym  WBO
 ---------------------------------------------------------------------------
     1   6 C    3.879 --     3 C    0.987    16 H    0.961    15 H    0.959
                             2 N    0.873
     2   7 N    3.669 --     3 C    1.492     6 C    1.206     1 C    0.873
     3   6 C    3.842 --     2 N    1.492     1 C    0.987    18 H    0.949
                             6 C    0.199
     4   7 N    3.028 --     5 C    1.760    25 H    0.943
     5   6 C    3.964 --     4 N    1.760    13 N    1.105     6 C    1.000
     6   6 C    3.893 --     7 C    1.255     2 N    1.206     5 C    1.000
                             3 C    0.199
     7   6 C    3.931 --     9 N    1.322     6 C    1.255     8 O    1.170
     8   8 O    2.225 --     7 C    1.170    17 H    0.822
     9   7 N    3.621 --     7 C    1.322    11 C    0.990    10 C    0.969
    10   6 C    3.913 --    19 H    0.971     9 N    0.969    21 H    0.959
                            20 H    0.959
    11   6 C    3.957 --    12 O    1.707    13 N    1.175     9 N    0.990
    12   8 O    2.063 --    11 C    1.707    13 N    0.158
    13   7 N    3.583 --    11 C    1.175     5 C    1.105    14 C    0.964
                            12 O    0.158
    14   6 C    3.915 --    24 H    0.968    22 H    0.966    13 N    0.964
                            23 H    0.964
    15   1 H    0.989 --     1 C    0.959
    16   1 H    0.990 --     1 C    0.961
    17   1 H    0.880 --     8 O    0.822
    18   1 H    0.979 --     3 C    0.949
    19   1 H    0.988 --    10 C    0.971
    20   1 H    0.981 --    10 C    0.959
    21   1 H    0.981 --    10 C    0.959
    22   1 H    0.988 --    14 C    0.966
    23   1 H    0.987 --    14 C    0.964
    24   1 H    0.986 --    14 C    0.968
    25   1 H    0.970 --     4 N    0.943
 ---------------------------------------------------------------------------

Topologies differ in total number of bonds
Writing topology from bond orders to xtbtopo.mol

molecular dipole:
                 x           y           z       tot (Debye)
 q only:        2.781       0.770       0.046
   full:        3.584       1.025       0.049       9.476
molecular quadrupole (traceless):
                xx          xy          yy          xz          yz          zz
 q only:       15.866       4.158       2.413       1.329      -0.481     -18.279
  q+dip:       16.362       1.247      -2.129       1.426      -0.681     -14.234
   full:       15.384       1.964      -2.696       1.422      -0.763     -12.688

           -------------------------------------------------
          |                Geometry Summary                 |
           -------------------------------------------------

      molecular mass/u    :      195.1988581
   center of mass at/Å    :        0.0449995      -0.1209598       0.0057281
  moments of inertia/u·Å² :        0.4728395E+03   0.8048006E+03   0.1264828E+04
rotational constants/cm⁻¹ :        0.3565191E-01   0.2094635E-01   0.1332800E-01

 * 23 selected distances

     #   Z          #   Z                                           value/Å
     1   6 C        3   6 C                                       1.4529671
     2   7 N        3   6 C                                       1.2951115
     4   7 N        5   6 C                                       1.2674593
     2   7 N        6   6 C                                       1.3593794
     6   6 C        7   6 C                                       1.4210743
     7   6 C        8   8 O                                       1.3260686
     7   6 C        9   7 N                                       1.3309857
     9   7 N       10   6 C                                       1.4543187
     9   7 N       11   6 C                                       1.4184529
    11   6 C       12   8 O                                       1.1973563
     5   6 C       13   7 N                                       1.3920008
    11   6 C       13   7 N                                       1.3559964
    13   7 N       14   6 C                                       1.4581524 (max)
     1   6 C       15   1 H                                       1.0891700
     1   6 C       16   1 H                                       1.0879439
     8   8 O       17   1 H                                       0.9670759 (min)
     3   6 C       18   1 H                                       1.0614795
    10   6 C       19   1 H                                       1.0837746
    10   6 C       20   1 H                                       1.0899106
    10   6 C       21   1 H                                       1.0896454
    14   6 C       22   1 H                                       1.0879243
    14   6 C       23   1 H                                       1.0885874
    14   6 C       24   1 H                                       1.0866511

 * 5 distinct bonds (by element types)

   Z      Z             #   av. dist./Å        max./Å        min./Å
   1 H    6 C           9     1.0850096     1.0899106     1.0614795
   6 C    6 C           2     1.4370207     1.4529671     1.4210743
   6 C    7 N           9     1.3702063     1.4581524     1.2674593
   1 H    8 O           1     0.9670759     0.9670759     0.9670759
   6 C    8 O           2     1.2617124     1.3260686     1.1973563


optimized geometry written to: xtbopt.xyz


           -------------------------------------------------
          | TOTAL ENERGY              -42.096072119559 Eh   |
          | GRADIENT NORM               0.002429185342 Eh/α |
          | HOMO-LUMO GAP               1.666863829315 eV   |
           -------------------------------------------------

------------------------------------------------------------------------
 * finished run on 2024/06/05 at 19:57:55.548     
------------------------------------------------------------------------
 total:
 * wall-time:     0 d,  0 h,  0 min,  1.767 sec
 *  cpu-time:     0 d,  0 h,  0 min,  1.339 sec
 * ratio c/w:     0.758 speedup
 SCF:
 * wall-time:     0 d,  0 h,  0 min,  0.063 sec
 *  cpu-time:     0 d,  0 h,  0 min,  0.037 sec
 * ratio c/w:     0.586 speedup
 ANC optimizer:
 * wall-time:     0 d,  0 h,  0 min,  1.674 sec
 *  cpu-time:     0 d,  0 h,  0 min,  1.290 sec
 * ratio c/w:     0.770 speedup

