25
 energy: -42.096341510531 gnorm: 0.032401783706 xtb: 6.6.1 (8d0f1dd)
C            3.32140588594388        1.06828497231166        0.06223936021235
N            2.36227031083511       -0.07361512352644        0.06059671073797
C            3.62391254013775       -0.34965064416381        0.15742978036343
N            0.56954459731452       -2.75563520380186       -0.23285648961463
C            0.23528554488792       -1.54287434456834       -0.07814777636560
C            1.01500661058225       -0.24429033227508        0.00007865973685
C            0.24806713893743        0.95200204351916       -0.01176212377507
O            0.76130314087685        2.17472105201529       -0.00959356448510
N           -1.08288185714367        0.94518235374012       -0.01888880025667
C           -1.86914033326702        2.16823391663797       -0.05027325503527
C           -1.86019785406678       -0.23951336579365        0.04656430616923
O           -3.05341735750978       -0.16341842366086        0.11058419366602
N           -1.14461159045479       -1.39110834835677        0.02440363574411
C           -1.91458093369212       -2.62937208307779        0.03202972934382
H            3.40149165489481        1.67388991445340        0.96397100159279
H            3.51072983119770        1.58224734767331       -0.87777168477344
H            1.72764755703561        2.21220626324479       -0.00660112724324
H            4.29724379634596       -1.16589566882618        0.24173668676095
H           -1.22296608986243        3.03824343048433       -0.03981167733509
H           -2.48615887962757        2.16551814646852       -0.94870837537683
H           -2.53582692040249        2.17916857708615        0.81154826850551
H           -1.58881560171218       -3.25302207638756        0.86179884061812
H           -1.74176587635168       -3.17342807100539       -0.89487928602608
H           -2.96634290622127       -2.37566767370682        0.13322870968623
H            1.55322910542201       -2.98396811688390       -0.30574410495045
25
 energy: -42.102590820960 gnorm: 0.019303074626 xtb: 6.6.1 (8d0f1dd)
C            3.32742874617091        1.02610586741607        0.06605393666492
N            2.33209456728416       -0.08091028631611        0.05931767871205
C            3.57358836694879       -0.41119939964255        0.14440540916713
N            0.64992723647727       -2.70451859296495       -0.21533524757921
C            0.24967141706516       -1.51355021028517       -0.07169090957580
C            0.99308717999219       -0.21582999873079       -0.00030727712205
C            0.23262721431585        0.97581902396130       -0.01396995549195
O            0.74859432117023        2.19627701228513       -0.01617333538166
N           -1.09645959934420        0.95611172003815       -0.01930486716613
C           -1.88595693304774        2.17478561357942       -0.04991865783103
C           -1.86113575205204       -0.23990758857887        0.04477290037271
O           -3.05503105180911       -0.17451425179817        0.10817462647871
N           -1.13431059803236       -1.38750897147129        0.02460555549426
C           -1.89685300242242       -2.63068727006542        0.03210562307661
H            3.42116358355531        1.62634311267257        0.96996927433770
H            3.52146664020350        1.54611064451880       -0.87038070506464
H            1.71606657407882        2.22884360307674       -0.01901086481030
H            4.22280167232447       -1.24717992329414        0.22361067401061
H           -1.23902064433016        3.04442225710795       -0.03952746817916
H           -2.50116720106348        2.16999914918744       -0.94913952781557
H           -2.55033652200446        2.18320922332106        0.81328046218248
H           -1.57207539845878       -3.25353103402687        0.86242777833428
H           -1.72527903988833       -3.17423612528431       -0.89493041244985
H           -2.94983418438676       -2.38042314773196        0.13328628170113
H            1.63937392135323       -2.89579188537376       -0.29114935416532
25
 energy: -42.107126984898 gnorm: 0.016300467566 xtb: 6.6.1 (8d0f1dd)
C            3.34338187855066        0.96729542490272        0.07037768502482
N            2.29601919663256       -0.08457455122195        0.05238329681084
C            3.51097256084204       -0.49327319426540        0.12611733740184
N            0.73865030033181       -2.63700739825177       -0.18980405654573
C            0.25952425239691       -1.47316634765322       -0.06378508271760
C            0.96327518611850       -0.17465582820583       -0.00331987867093
C            0.21162454563754        1.01370384501365       -0.01645387474683
O            0.73625423760669        2.23006295751741       -0.02426980049890
N           -1.11648356810721        0.97404954428570       -0.01876681918531
C           -1.91652265577803        2.18444330778264       -0.04888679375741
C           -1.86335749335065       -0.23874894867799        0.04245848945959
O           -3.05741240530062       -0.18617489371157        0.10340033246344
N           -1.12545508705925       -1.38260394292118        0.02325005654731
C           -1.86857624075157       -2.63705754667810        0.03109024051184
H            3.46061337399235        1.55504045904547        0.97841951872247
H            3.55351772394790        1.49181693161858       -0.85933264997399
H            1.70487718532579        2.25192246489662       -0.03523867510858
H            4.12767360247258       -1.35520975903287        0.19993256249212
H           -1.27232651374699        3.05638051458944       -0.03825679775861
H           -2.53098950131296        2.17835186368390       -0.94829759978956
H           -2.57954324491797        2.19018422022091        0.81500514792780
H           -1.53586515158245       -3.25407536520745        0.86246993696309
H           -1.68977479528737       -3.17711080026114       -0.89643491043385
H           -2.92559184835160       -2.40255736609915        0.13234277541080
H            1.73594597579143       -2.77879704976919       -0.26322882264873
25
 energy: -42.108883011608 gnorm: 0.016937497932 xtb: 6.6.1 (8d0f1dd)
C            3.36686604581387        0.92035860737445        0.07366327550220
N            2.27773677061086       -0.08025705457451        0.04557980580413
C            3.47001657052455       -0.55271622320365        0.11149553725132
N            0.78737522028244       -2.58882210692637       -0.16570479695519
C            0.26202197850789       -1.44393813977894       -0.05715838402936
C            0.94479633276847       -0.14026244284269       -0.00655506111948
C            0.19507554289960        1.04631347446075       -0.01960764725706
O            0.72379312723984        2.26085665544323       -0.03132774518307
N           -1.13337017564556        0.98932462182686       -0.01876438079759
C           -1.94722123758674        2.19094257571138       -0.04717634615881
C           -1.86588562125362       -0.23675390134859        0.03915126636989
O           -3.06029545202683       -0.19509830032419        0.09700812891251
N           -1.12062723973009       -1.37749827176787        0.02064720437461
C           -1.84401533227118       -2.64259074998858        0.02914359305381
H            3.50911636144256        1.49210153981740        0.98756109701895
H            3.59715574286047        1.44467066308449       -0.85037985706642
H            1.69285295090003        2.27519483122899       -0.04761873777248
H            4.05506480431659       -1.43800475032457        0.17774129758244
H           -1.30934596803334        3.06805192654427       -0.03568319622962
H           -2.56258915712911        2.18295898641935       -0.94612168198970
H           -2.61048967021616        2.19219197608441        0.81673811081819
H           -1.49914790696885       -3.25244853316296        0.86125547083748
H           -1.65338607015909       -3.17958169886342       -0.89805100429833
H           -2.90532141267454       -2.42713288504408        0.12961524461618
H            1.79025530962807       -2.68962225824494       -0.23427957538468
25
 energy: -42.109710285218 gnorm: 0.011824180783 xtb: 6.6.1 (8d0f1dd)
C            3.39010556548021        0.88690937004443        0.07473947069428
N            2.27159832174697       -0.07047713774284        0.03869953963806
C            3.44363525885649       -0.58915667879624        0.10128204867828
N            0.80795914690699       -2.55977205135915       -0.14346193908695
C            0.26209113464452       -1.42548596053575       -0.05177641694452
C            0.93679171602496       -0.11521297619261       -0.01006416809934
C            0.18425626776854        1.06919300730917       -0.02261392454353
O            0.71220905829919        2.28426319079405       -0.03660251560537
N           -1.14483143025592        0.99984597978805       -0.01890845757052
C           -1.97163156902479        2.19366704691712       -0.04444517076289
C           -1.86773593112551       -0.23429466423257        0.03510847775164
O           -3.06258233880306       -0.20116013908769        0.08912388339148
N           -1.11736051494621       -1.37195518994281        0.01729567756938
C           -1.82453393885144       -2.64515156959902        0.02629009230086
H            3.55255208637533        1.44349627644538        0.99375429501815
H            3.64066365252015        1.40855015268850       -0.84469498166859
H            1.68095098055207        2.29590980268837       -0.05533540210654
H            3.99946141854364       -1.49359321207419        0.15958456741161
H           -1.34182654788938        3.07705050775494       -0.03132789764164
H           -2.58865519864096        2.18324676376867       -0.94256225868303
H           -2.63547513040535        2.18817585261887        0.81941828807953
H           -1.46876243654301       -3.24858502571101        0.85894235887367
H           -1.62238857270388       -3.18007874693284       -0.90001711169208
H           -2.88891563436892       -2.44638672058278        0.12520404048709
H            1.81285614993951       -2.63075933642784       -0.20646087758912
25
 energy: -42.110123002866 gnorm: 0.006818600340 xtb: 6.6.1 (8d0f1dd)
C            3.41252031347902        0.86478357292486        0.07440590432083
N            2.27135994259635       -0.05711820202153        0.03230883537273
C            3.42646551164022       -0.60955815997891        0.09255014935506
N            0.81379884895326       -2.54581073737478       -0.12196109449089
C            0.26210905600365       -1.41400143274373       -0.04761948478000
C            0.93495621581139       -0.09784284155174       -0.01342515544167
C            0.17685773666696        1.08302610298040       -0.02536600512868
O            0.70039810103340        2.30044881742769       -0.04027092683155
N           -1.15256714530103        1.00612088338638       -0.01934252595447
C           -1.98921239042075        2.19372816218640       -0.04071245341364
C           -1.87004757110192       -0.23158735729491        0.02968205595045
O           -3.06530426970186       -0.20501879702801        0.07929465272722
N           -1.11524670631495       -1.36582219641176        0.01280491242892
C           -1.80986955765843       -2.64502502464437        0.02267324591486
H            3.59107657808405        1.40886542764203        0.99725815281659
H            3.67982731570555        1.38437130931628       -0.84094022939160
H            1.66851802087320        2.31406239597080       -0.05915443306180
H            3.95529906684913       -1.52990172553422        0.14305095943033
H           -1.36737636078021        3.08282955654943       -0.02512694235252
H           -2.60775994208530        2.18093054657153       -0.93799051429116
H           -2.65312817775175        2.17970195866264        0.82335419533101
H           -1.44659436617372       -3.24296638733148        0.85621848149346
H           -1.59832239447275       -3.17917342733955       -0.90217206107859
H           -2.87610451958215       -2.45907380758911        0.11928202445000
H            1.81877820774878       -2.59773009517413       -0.17763012547498
