25
 energy: -42.110123002998 gnorm: 0.006818329601 xtb: 6.6.1 (8d0f1dd)
C            3.41252031347902        0.86478357292486        0.07440590432083
N            2.27135994259635       -0.05711820202153        0.03230883537273
C            3.42646551164022       -0.60955815997891        0.09255014935506
N            0.81379884895326       -2.54581073737478       -0.12196109449089
C            0.26210905600365       -1.41400143274373       -0.04761948478000
C            0.93495621581139       -0.09784284155174       -0.01342515544167
C            0.17685773666696        1.08302610298040       -0.02536600512868
O            0.70039810103340        2.30044881742769       -0.04027092683155
N           -1.15256714530103        1.00612088338638       -0.01934252595447
C           -1.98921239042075        2.19372816218640       -0.04071245341364
C           -1.87004757110192       -0.23158735729491        0.02968205595045
O           -3.06530426970186       -0.20501879702801        0.07929465272722
N           -1.11524670631495       -1.36582219641176        0.01280491242892
C           -1.80986955765843       -2.64502502464437        0.02267324591486
H            3.59107657808405        1.40886542764203        0.99725815281659
H            3.67982731570555        1.38437130931628       -0.84094022939160
H            1.66851802087320        2.31406239597080       -0.05915443306180
H            3.95529906684913       -1.52990172553422        0.14305095943033
H           -1.36737636078021        3.08282955654943       -0.02512694235252
H           -2.60775994208530        2.18093054657153       -0.93799051429116
H           -2.65312817775175        2.17970195866264        0.82335419533101
H           -1.44659436617372       -3.24296638733148        0.85621848149346
H           -1.59832239447275       -3.17917342733955       -0.90217206107859
H           -2.87610451958215       -2.45907380758911        0.11928202445000
H            1.81877820774878       -2.59773009517413       -0.17763012547498
