25
 energy: -43.832379009779 gnorm: 0.117304760609 xtb: 6.6.1 (8d0f1dd)
C            3.25126882500947        1.16301745239305        0.08270913771540
N            2.30784540958610        0.08004073168963        0.03731546053195
C            2.58681313808346       -1.22014616472355        0.03032609911774
N            1.43639790846698       -1.94058049759540        0.00183626901696
C            0.39656266640998       -1.05668356773466       -0.00953294255279
C            0.94134848252204        0.21920202913228        0.01184413663419
C            0.11151463560783        1.40393965376968       -0.01020932384416
O            0.51179659431993        2.55355467077591       -0.01015036904964
N           -1.25592963186008        1.07042823631349       -0.01137677732118
C           -2.24670423644252        2.14981511160342       -0.01622014450034
C           -1.81316124606300       -0.19294967461358       -0.05057773295184
O           -3.00437975893211       -0.36772439353689       -0.07701953352568
N           -0.92391900771715       -1.29485448358214       -0.04033853273804
C           -1.46780297076677       -2.64073126522872       -0.06019397988916
H            3.72614050220603        1.20896449583993        1.06429005607130
H            4.02139786688390        1.02510739352333       -0.67589407911454
H            2.71814187936105        2.09316386597082       -0.09538079907801
H            3.57120499218326       -1.64516928656841        0.04398894057539
H           -1.69469782507639        3.08880308183126       -0.00006313385049
H           -2.84963306420420        2.08717656483567       -0.90180515450899
H           -2.98854159184749        2.07619154988993        0.77552637842641
H           -1.16703420484392       -3.18916011183473        0.83323137951654
H           -1.14222949926263       -3.17091427591753       -0.95558749136848
H           -2.55333814692720       -2.55035014237617       -0.07411747451220
H            1.37504292893472       -2.94473049650752       -0.01134169117341
25
 energy: -43.837338452151 gnorm: 0.041624994810 xtb: 6.6.1 (8d0f1dd)
C            3.25482598295055        1.17314141305922        0.08443510909774
N            2.31182248120051        0.09813952294168        0.03491078997366
C            2.60021846111546       -1.23403864478033        0.02979051754389
N            1.42492081501615       -1.93955572214926        0.00178750518996
C            0.39818636939770       -1.05211728723080       -0.00842340391354
C            0.93128067112334        0.22877030865535        0.01311336038583
C            0.10712303662564        1.39777910507848       -0.00371784947664
O            0.49796142265316        2.56784645827356       -0.01157438932236
N           -1.26883105861410        1.05706876322982       -0.00971286700000
C           -2.24173338015411        2.14335812237943       -0.03071722824098
C           -1.82200963357127       -0.19598666170332       -0.04418054874981
O           -3.01981442123158       -0.37885365668927       -0.07773755699782
N           -0.93381721229304       -1.29420097416106       -0.03845424751561
C           -1.47024265643881       -2.63736557596680       -0.06055274986935
H            3.73389410260905        1.21693860120128        1.06661311552929
H            4.02333214502034        1.03355542472560       -0.67798500419615
H            2.71462509836922        2.10036119470528       -0.09234055015782
H            3.57732336143971       -1.66307586806574        0.04316085075756
H           -1.68347857958266        3.07609459724052        0.00721299774042
H           -2.83920847753631        2.08914580203373       -0.93777804878673
H           -2.94239340325145        2.06246955850189        0.80237153403416
H           -1.16509374040046       -3.18688194128004        0.83218477092124
H           -1.14069828829298       -3.16859546508799       -0.95561367324700
H           -2.55541928046513       -2.54646320768832       -0.07434164092191
H            1.35533082994236       -2.94212338987381       -0.01119209515111
25
 energy: -43.838172772213 gnorm: 0.017279454697 xtb: 6.6.1 (8d0f1dd)
C            3.25713881607311        1.16715608321334        0.08334554315504
N            2.31256238914348        0.10356010704474        0.03086082331058
C            2.60978966539625       -1.24151073738266        0.03135706355227
N            1.42580237661011       -1.94164631774831        0.00118883499439
C            0.40512669357155       -1.05532404543744       -0.01165585636072
C            0.92677146140882        0.22954173249805        0.00859804383185
C            0.11565846448449        1.39254134599694       -0.00531991996290
O            0.51041777961788        2.56673855698813       -0.00983502139843
N           -1.27172841678086        1.06162997170405       -0.00424892952282
C           -2.25179461172835        2.14778062394064       -0.02264654022417
C           -1.81326958517775       -0.18820915689143       -0.04695032304780
O           -3.01285255645997       -0.37405801935637       -0.07708792364202
N           -0.93349826250725       -1.29273006586446       -0.04209777788429
C           -1.46771778808912       -2.63518668218981       -0.06059286598725
H            3.73018163263566        1.20753453039395        1.06881312113131
H            4.02787028588159        1.01893270417265       -0.67579249101962
H            2.71970541081089        2.09434367772338       -0.09915805871734
H            3.58439386011739       -1.65862530944920        0.04667625888823
H           -1.71184644296295        3.09164807466093        0.00914372690543
H           -2.84988974781167        2.08726332891618       -0.92949040147385
H           -2.97344277513982        2.07471166217492        0.79327151444450
H           -1.16431267281047       -3.18680566357142        0.83272813493187
H           -1.13950002212318       -3.17198355688921       -0.95395323796390
H           -2.55260252499054       -2.54736805834611       -0.07471801090456
H            1.36514121646202       -2.94452430895242       -0.01117700940887
25
 energy: -43.838334442617 gnorm: 0.011891285789 xtb: 6.6.1 (8d0f1dd)
C            3.24892072137512        1.17031104956992        0.08504641730738
N            2.30692119863518        0.10436942535561        0.03355690759346
C            2.60522211433929       -1.23992782753953        0.03179868541288
N            1.42336683217271       -1.94122726351146        0.00346394476028
C            0.40316959654096       -1.05954397131700       -0.00782704012979
C            0.92219051718487        0.22671064199920        0.01157530534566
C            0.11764316606906        1.38784739088840       -0.00829398516641
O            0.50756440198089        2.56115079401096       -0.01318254707773
N           -1.27041495657874        1.05768509124974       -0.00747762710914
C           -2.23964669296938        2.14858034637979       -0.02212579797302
C           -1.81172092835635       -0.19037237280600       -0.04791755781583
O           -3.01102623092069       -0.37586734035399       -0.07844645809986
N           -0.93578673283493       -1.29647763084928       -0.03962284339777
C           -1.47056979221276       -2.63811221647813       -0.06014521413854
H            3.72915768714409        1.21365209382746        1.06640767621515
H            4.01644256221397        1.03412553594838       -0.67904825458571
H            2.70958334873597        2.09803878809506       -0.08909391973114
H            3.58000008062519       -1.65019474366009        0.04090620026570
H           -1.68072378897368        3.08207309896065        0.00173353528697
H           -2.84264335047528        2.09187282167011       -0.92255007631135
H           -2.96319475588183        2.07992015539807        0.79138730855105
H           -1.16805728257010       -3.19195876322533        0.83228574764849
H           -1.14317855812233       -3.17183910110340       -0.95570999532049
H           -2.55569203341349       -2.55068764375714       -0.07413578451340
H            1.37057752192353       -2.94471788140292       -0.01132592938994
25
 energy: -43.838458317587 gnorm: 0.007039374935 xtb: 6.6.1 (8d0f1dd)
C            3.25649962601470        1.16593483755472        0.08366489677361
N            2.30832642516496        0.10301582353213        0.03349399369908
C            2.60048493427468       -1.23949284041609        0.03307752559800
N            1.41935600202067       -1.93747971153661        0.00276734721779
C            0.40154437623527       -1.05498384892719       -0.00847356350318
C            0.92385998516282        0.23087366987340        0.01199485035024
C            0.11626656770999        1.39310398998772       -0.00650505991079
O            0.49980811624016        2.56607599442239       -0.01002085598355
N           -1.27190612557920        1.05962558132510       -0.00967164780830
C           -2.24474648980893        2.14394024363541       -0.02433009560865
C           -1.81354910146758       -0.18911082375580       -0.04782988672361
O           -3.01240255724401       -0.37640192228251       -0.07861704580503
N           -0.93583616234281       -1.29245276396994       -0.03985152255348
C           -1.46885340873062       -2.63437609340572       -0.06027936163830
H            3.73505696568628        1.21266368951336        1.06567806413999
H            4.02725797705973        1.02543571610481       -0.67651664519725
H            2.72447464531721        2.09717219085304       -0.09589218304504
H            3.57493193134071       -1.65414694296454        0.04366498536862
H           -1.69008217712226        3.07938123521614        0.00601815989854
H           -2.84640396127342        2.08625381872881       -0.92534818926070
H           -2.96237634267122        2.06113135552145        0.79276929705608
H           -1.16439960736414       -3.18528861568135        0.83295760115616
H           -1.14002000589548       -3.16716321226391       -0.95570011316182
H           -2.55422766509891       -2.54708822395032       -0.07411634034231
H            1.36504069800269       -2.94121266976543       -0.01167551308921
25
 energy: -43.838539238328 gnorm: 0.004309005672 xtb: 6.6.1 (8d0f1dd)
C            3.25351604446614        1.16691592773594        0.08424731766188
N            2.31050248148429        0.10058303418171        0.03160133622397
C            2.60408512431013       -1.24197282247053        0.03107432799506
N            1.42231556482028       -1.93977970422795        0.00056759266126
C            0.40342886881810       -1.05720074328272       -0.01028405244045
C            0.92567763467712        0.22885278390207        0.01084983545298
C            0.11847545052768        1.39252151819857       -0.00488962104018
O            0.50387562480153        2.56508530213524       -0.01036892481723
N           -1.27191719051685        1.06105828470565       -0.00689159982108
C           -2.24561089952517        2.14748794035111       -0.02562276444988
C           -1.81321326099767       -0.18888852341572       -0.04454259873187
O           -3.01245897052266       -0.37627144518421       -0.07512947515595
N           -0.93477622388692       -1.29331706879458       -0.04001017951583
C           -1.46833957138047       -2.63577441791860       -0.06041231252402
H            3.72895112593767        1.21247351265534        1.06813399148976
H            4.02455438007853        1.02872051431532       -0.67621964318122
H            2.71467714238903        2.09507494025091       -0.09488964282687
H            3.58014905485807       -1.65706099448339        0.04362817724874
H           -1.69699063332440        3.08609515244807        0.00551526767347
H           -2.84514667106850        2.08928823314352       -0.92947824341291
H           -2.96286391147787        2.07177002675999        0.79302806587886
H           -1.16472515780082       -3.18747400274117        0.83256155686365
H           -1.14036220620486       -3.17098923656966       -0.95473629154568
H           -2.55365589486126       -2.54796322150382       -0.07433546625993
H            1.36795674003017       -2.94382451284200       -0.01213795579962
25
 energy: -43.838552670887 gnorm: 0.002865857395 xtb: 6.6.1 (8d0f1dd)
C            3.25390507034344        1.16770763679329        0.08358069082261
N            2.30999642671466        0.10230133851819        0.03272302308498
C            2.60413206365582       -1.24069496326259        0.03317494595780
N            1.42231136780605       -1.93898728303726        0.00364050257706
C            0.40317239464722       -1.05747304893809       -0.00911033531159
C            0.92459646610581        0.22923921171042        0.01113058359963
C            0.11870030522541        1.39171125966654       -0.00698049189722
O            0.50346975749097        2.56472596728733       -0.01191808064158
N           -1.27257216502219        1.05970698127258       -0.00818714089423
C           -2.24513172218557        2.14674396664443       -0.02275913196509
C           -1.81342752487539       -0.18955003811507       -0.04874072186637
O           -3.01271411795371       -0.37686962640957       -0.08064645969463
N           -0.93544034464615       -1.29404985498086       -0.04092009820551
C           -1.46946044981783       -2.63634499269387       -0.06084689058143
H            3.73289451000186        1.21174110093268        1.06583844924847
H            4.02247035937028        1.02684284083188       -0.67885419903216
H            2.71761981248151        2.09753186094694       -0.09417774863343
H            3.58042084745859       -1.65368725217255        0.04462810039086
H           -1.69283305558535        3.08343776231985        0.00717440455372
H           -2.84617805214572        2.09003559598470       -0.92531826623401
H           -2.96391017575465        2.07298996696177        0.79498458483588
H           -1.16693911678831       -3.18865076314114        0.83227349071082
H           -1.14134010270109       -3.17121503578118       -0.95530954650659
H           -2.55479851435879       -2.54864873051571       -0.07531411856989
H            1.36916060616439       -2.94313342347364       -0.00880684812120
25
 energy: -43.838558321496 gnorm: 0.002379804659 xtb: 6.6.1 (8d0f1dd)
C            3.25385780296133        1.16741566381840        0.08502552109737
N            2.30952089664669        0.10226950497680        0.03276348666435
C            2.60282357967833       -1.24077405413628        0.03148986234563
N            1.42109050891165       -1.93863207172649        0.00102035712383
C            0.40256813614171       -1.05710763646926       -0.00910393397280
C            0.92413658914950        0.22959602666114        0.01148427384188
C            0.11934089579072        1.39193350765529       -0.00621569225939
O            0.50340828987139        2.56494062805866       -0.01091659942560
N           -1.27223659681873        1.05954981338884       -0.00743661245247
C           -2.24443186270537        2.14584663593750       -0.02447699955843
C           -1.81331230282751       -0.18916573354404       -0.04636719940690
O           -3.01253188313526       -0.37618794616607       -0.07667396707944
N           -0.93579745082368       -1.29356079824535       -0.03953817346094
C           -1.46919234081406       -2.63576957198230       -0.05959720566522
H            3.73146636297677        1.21189036934950        1.06782789115039
H            4.02398078497366        1.02758331757991       -0.67599187651428
H            2.71825071776274        2.09729352814897       -0.09330868738608
H            3.57867710873487       -1.65368504019418        0.04139949147331
H           -1.69102176735276        3.08214580264763        0.00383781073528
H           -2.84480393851046        2.08722077370177       -0.92696349676941
H           -2.96475279759106        2.07099287051799        0.79154244693412
H           -1.16481789131032       -3.18796903767048        0.83298519082770
H           -1.14140057909241       -3.16911532814893       -0.95507652833309
H           -2.55456445646434       -2.54851969128836       -0.07274104491335
H            1.36784683947789       -2.94278105552158       -0.01370961736954
25
 energy: -43.838565264128 gnorm: 0.001498837604 xtb: 6.6.1 (8d0f1dd)
C            3.25346557913029        1.16714007552879        0.08354084406424
N            2.30992274998793        0.10114821512847        0.03218016815679
C            2.60281924729313       -1.24158444479268        0.03266035277021
N            1.42127768868917       -1.93918285608996        0.00226207093674
C            0.40278536835200       -1.05731011145979       -0.00943446029229
C            0.92465936360589        0.22926770386464        0.01107235884271
C            0.11962614650551        1.39225036121421       -0.00610839142865
O            0.50348767489342        2.56505288968763       -0.01058282660444
N           -1.27207386118331        1.06014642654912       -0.00774323487927
C           -2.24449592497577        2.14650354753994       -0.02416153541337
C           -1.81309805873889       -0.18894491999074       -0.04640785118905
O           -3.01223082307639       -0.37612658624112       -0.07667755837670
N           -0.93533896545880       -1.29338195774223       -0.04027266458912
C           -1.46864722430558       -2.63569050093980       -0.06085948649842
H            3.73006229592307        1.21350400425098        1.06671631215697
H            4.02422462188929        1.02838733504339       -0.67709071688681
H            2.71591270748139        2.09567708800805       -0.09590467244210
H            3.57869431784028       -1.65537566905289        0.04450520528442
H           -1.69308727963383        3.08389776067725        0.00608107273046
H           -2.84538293351511        2.08923548320732       -0.92659609595209
H           -2.96296568305736        2.06942438615640        0.79323549852296
H           -1.16530041203813       -3.18723391558793        0.83236429408751
H           -1.13987827459175       -3.16996093554819       -0.95545854079076
H           -2.55394706144604       -2.54805522023405       -0.07544286705682
H            1.36761338606085       -2.94337768182774       -0.01061857752621
25
 energy: -43.838557145689 gnorm: 0.002213699538 xtb: 6.6.1 (8d0f1dd)
C            3.25464964318271        1.16716214379925        0.08468219331832
N            2.31047790302435        0.10175179148417        0.03238239403060
C            2.60386371599307       -1.24077646726506        0.03148859870343
N            1.42252072509645       -1.93875966875444        0.00179738452758
C            0.40321422306099       -1.05735252362499       -0.00954222114556
C            0.92477062288345        0.22958957084241        0.01134198247217
C            0.11883933692813        1.39228050972933       -0.00596951171783
O            0.50212379400994        2.56534196325154       -0.01138740875108
N           -1.27320846362712        1.05994716590251       -0.00797999022988
C           -2.24573368960780        2.14688792113223       -0.02457830654483
C           -1.81361541568065       -0.18958072220472       -0.04728718254969
O           -3.01271936457061       -0.37741125667811       -0.07945551329033
N           -0.93515955735643       -1.29382792241252       -0.04036009629398
C           -1.46924321267699       -2.63623233617079       -0.05991304031062
H            3.73358189142511        1.20988671076007        1.06701548896901
H            4.02342027188170        1.02774728105045       -0.67785660541856
H            2.71841914868327        2.09719105587237       -0.09155473491021
H            3.58032859370409       -1.65421967096545        0.04243848483318
H           -1.69464159472480        3.08427316484232        0.00550006811002
H           -2.84648919009700        2.08976467917340       -0.92743880829949
H           -2.96375880198060        2.07281721438936        0.79372264098021
H           -1.16606437388269       -3.18824348735050        0.83307848029790
H           -1.14218512273672       -3.17168542520351       -0.95439239228695
H           -2.55456280650398       -2.54817170833325       -0.07332916555140
H            1.36927636920342       -2.94296950591699       -0.01114404131509
25
 energy: -43.828652397372 gnorm: 0.101515717940 xtb: 6.6.1 (8d0f1dd)
C            3.26515719539749        1.15937460511569        0.08103638430046
N            2.31692841824193        0.08423007612797        0.03459508251095
C            2.59330707255489       -1.22606822460383        0.03061477431001
N            1.43318206622360       -1.94261057508275        0.00372077538675
C            0.40268051183575       -1.05435875142936       -0.01117795475436
C            0.94720188562776        0.22508492620492        0.00641885818144
C            0.12907168196844        1.40442764000130       -0.01613674705742
O            0.52587404300264        2.56359312646890       -0.01832940062947
N           -1.26279917021399        1.08005706404513        0.00683573600733
C           -2.27803757391235        2.14741635459654        0.01440649441857
C           -1.80864653514257       -0.18579542965098       -0.05216345354312
O           -2.99759617463157       -0.35895154573951       -0.08540303651891
N           -0.92149183817225       -1.28756378612750       -0.04359211639603
C           -1.46571790347098       -2.63506272187060       -0.06011413700565
H            3.73969217961059        1.20302539635834        1.06360442919590
H            4.03481329424825        1.01578994947018       -0.67799109407710
H            2.73723479797293        2.08872574610148       -0.09929335951684
H            3.57575749827120       -1.65352174546621        0.04572554226369
H           -1.71859158686406        3.08595724090220        0.02593687482372
H           -2.88032644895443        2.07779293705523       -0.85419585125509
H           -3.10055618710187        2.07422257395078        0.73655926669756
H           -1.16348910944180       -3.18244829871975        0.83399883747643
H           -1.13889114347050       -3.16666826010712       -0.95438663252672
H           -2.55110811958745       -2.54413130947537       -0.07370547354325
H            1.36899262138733       -2.94583984226711       -0.00852125677025
25
 energy: -43.833472792637 gnorm: 0.039530285602 xtb: 6.6.1 (8d0f1dd)
C            3.26583426351980        1.16809087112220        0.08204356721510
N            2.31591757165024        0.10025620099107        0.03197806326374
C            2.60159074990041       -1.23566585188967        0.02981841532470
N            1.42293344640328       -1.93743907867323        0.00369688773415
C            0.40071759681182       -1.04874240762263       -0.00862700476228
C            0.93240309014015        0.23492632028097        0.01072067479003
C            0.11446850900834        1.40111239744299       -0.00267033086965
O            0.50064564712997        2.57384141653011       -0.01905233806245
N           -1.27760689235042        1.06492259234663        0.00978111707920
C           -2.26677125378165        2.14166818004433       -0.01496588628976
C           -1.82029670221711       -0.19097284184491       -0.04164513856767
O           -3.01701469272647       -0.37539991024331       -0.08631593051046
N           -0.93252347217835       -1.28760479101049       -0.03997085846473
C           -1.46817280575138       -2.63189630044020       -0.06076172103446
H            3.74520529082047        1.20971303552643        1.06456084093509
H            4.03498686256121        1.02331813685875       -0.67941201485502
H            2.73261691287744        2.09796907790551       -0.09636567001370
H            3.57769860054078       -1.66636991026962        0.04418620008984
H           -1.71234142332283        3.07612961766455        0.03907527828352
H           -2.85754968312499        2.08402069092271       -0.92374976355847
H           -3.01009198530007        2.04984616399025        0.79127896494995
H           -1.16193599541161       -3.17980971286793        0.83271697463990
H           -1.13788588107892       -3.16393183351847       -0.95502972761993
H           -2.55321820695531       -2.54122315615983       -0.07425389382095
H            1.35303192821421       -2.94008176122763       -0.00859416389707
25
 energy: -43.834991520323 gnorm: 0.014999630029 xtb: 6.6.1 (8d0f1dd)
C            3.27085812005570        1.16165065533813        0.08138081745127
N            2.31951719770628        0.10051492159164        0.02794747448351
C            2.60959264702216       -1.24301578548938        0.03080561013088
N            1.42556302089366       -1.93973869929717        0.00236460386874
C            0.40728743191593       -1.05062108087635       -0.01327638949477
C            0.93245767495431        0.23460310664320        0.00437537869962
C            0.12072057161821        1.39966630553740       -0.00661462151241
O            0.51433368260124        2.57160650864758       -0.01866147861281
N           -1.27815586804389        1.07083477307304        0.01811662822059
C           -2.27954059268589        2.14351562887785        0.00004207711862
C           -1.81187872366548       -0.18297693273195       -0.04510549525718
O           -3.01011645005624       -0.37014929233486       -0.08416441420261
N           -0.93004891650478       -1.28490015332133       -0.04469505106619
C           -1.46533293587320       -2.62831102294805       -0.06073637252559
H            3.74529684081434        1.20282555518931        1.06652317673494
H            4.04196043152418        1.01274625763096       -0.67751718786911
H            2.73885972038355        2.09167807207100       -0.10140475941237
H            3.58409006515522       -1.66741057932868        0.04823759869794
H           -1.74177434852694        3.08740234433240        0.04147020273620
H           -2.86904659474906        2.07764655225410       -0.90892430666672
H           -3.05329802665760        2.06530930392047        0.77052939628289
H           -1.16084893428178       -3.17764614958693        0.83340504118651
H           -1.13691885834849       -3.16594174652724       -0.95306625738085
H           -2.55026746534429       -2.53952535096596       -0.07424616225621
H            1.35933178547184       -2.94308604584063       -0.00834296737625
25
 energy: -43.834874535866 gnorm: 0.012765455098 xtb: 6.6.1 (8d0f1dd)
C            3.26032919090522        1.16625121338520        0.08333634678920
N            2.31402590030135        0.10222301074032        0.03136028123585
C            2.60735184667573       -1.24224871827978        0.03278032718055
N            1.42421557103416       -1.94085146223334        0.00623578776425
C            0.40625784570956       -1.05622688510751       -0.00897252721002
C            0.92766913342433        0.23060073420316        0.00635297820136
C            0.12416057171942        1.39477980398266       -0.01275494846902
O            0.51784485640374        2.56564904526110       -0.02241919783268
N           -1.27520322915761        1.06704712941747        0.01318814874961
C           -2.26605324568443        2.14620485964637        0.00576164648983
C           -1.80864479701597       -0.18422499734145       -0.04916522643985
O           -3.00717725578752       -0.37006778041627       -0.08911957750611
N           -0.93249912476634       -1.29016670077180       -0.04295522090409
C           -1.46808163941585       -2.63312941441225       -0.06054102932879
H            3.73991573178240        1.21003960741257        1.06542943435743
H            4.02751804941622        1.02664731236236       -0.68072509902826
H            2.72460075668417        2.09542472827402       -0.09333318935033
H            3.58241793639905       -1.65737836702930        0.04265268330105
H           -1.70706264278968        3.07938271555799        0.02845391450841
H           -2.86807185924014        2.08542543596964       -0.89038506618685
H           -3.04774395651968        2.07756860719649        0.76765039028149
H           -1.16524249071069       -3.18628636376585        0.83240389805141
H           -1.13978278547531       -3.16854005776772       -0.95461331317021
H           -2.55342239082063       -2.54660327522908       -0.07471871389538
H            1.36531950230748       -2.94484303519643       -0.00746018561020
25
 energy: -43.835243413407 gnorm: 0.005423051567 xtb: 6.6.1 (8d0f1dd)
C            3.26839986547728        1.16177889832024        0.08185706693443
N            2.31536598659122        0.10309780466112        0.03066770866158
C            2.60478726477259       -1.24177931875799        0.03275018511306
N            1.42095008295789       -1.93743529160674        0.00443018891751
C            0.40547807517853       -1.05163490701406       -0.00932032951288
C            0.92838376422032        0.23517702021832        0.00779622583299
C            0.12253386143606        1.39926756648985       -0.00794509018787
O            0.51154942391744        2.57126112229207       -0.01749736902561
N           -1.27727629524215        1.06888428342811        0.01238566504852
C           -2.27238936269790        2.14187194604890        0.00041804422066
C           -1.81007821092085       -0.18256169784284       -0.04691842644226
O           -3.00845836797074       -0.37035494070255       -0.08713359037795
N           -0.93271377604628       -1.28631007948186       -0.04213693166341
C           -1.46673318423490       -2.62903574691530       -0.05995582998475
H            3.74649357625637        1.20482337977756        1.06468804864673
H            4.03797689448624        1.01554510661811       -0.67881601124514
H            2.74058167617388        2.09453278284544       -0.09891567520345
H            3.57901544933394       -1.65968746655707        0.04377462878209
H           -1.72118619884065        3.07960128091592        0.03473496328463
H           -2.86976039816652        2.07998603833972       -0.89979598487596