      -----------------------------------------------------------      
     |                   =====================                   |     
     |                           x T B                           |     
     |                   =====================                   |     
     |                         S. Grimme                         |     
     |          Mulliken Center for Theoretical Chemistry        |     
     |                    University of Bonn                     |     
      -----------------------------------------------------------      

   * xtb version 6.6.1 (8d0f1dd) compiled by 'conda@1efc2f54142f' on 2023-08-01

   xtb is free software: you can redistribute it and/or modify it under
   the terms of the GNU Lesser General Public License as published by
   the Free Software Foundation, either version 3 of the License, or
   (at your option) any later version.
   
   xtb is distributed in the hope that it will be useful,
   but WITHOUT ANY WARRANTY; without even the implied warranty of
   MERCHANTABILITY or FITNESS FOR A PARTICULAR PURPOSE.  See the
   GNU Lesser General Public License for more details.
   
   Cite this work as:
   * C. Bannwarth, E. Caldeweyher, S. Ehlert, A. Hansen, P. Pracht,
     J. Seibert, S. Spicher, S. Grimme, WIREs Comput. Mol. Sci., 2020, 11,
     e01493. DOI: 10.1002/wcms.1493
   
   for GFN2-xTB:
   * C. Bannwarth, S. Ehlert and S. Grimme., J. Chem. Theory Comput., 2019,
     15, 1652-1671. DOI: 10.1021/acs.jctc.8b01176
   for GFN1-xTB:
   * S. Grimme, C. Bannwarth, P. Shushkov, J. Chem. Theory Comput., 2017,
     13, 1989-2009. DOI: 10.1021/acs.jctc.7b00118
   for GFN0-xTB:
   * P. Pracht, E. Caldeweyher, S. Ehlert, S. Grimme, ChemRxiv, 2019, preprint.
     DOI: 10.26434/chemrxiv.8326202.v1
   for GFN-FF:
   * S. Spicher and S. Grimme, Angew. Chem. Int. Ed., 2020, 59, 15665-15673.
     DOI: 10.1002/anie.202004239
   
   for ALPB and GBSA implicit solvation:
   * S. Ehlert, M. Stahn, S. Spicher, S. Grimme, J. Chem. Theory Comput.,
     2021, 17, 4250-4261. DOI: 10.1021/acs.jctc.1c00471
   
   for DFT-D4:
   * E. Caldeweyher, C. Bannwarth and S. Grimme, J. Chem. Phys., 2017,
     147, 034112. DOI: 10.1063/1.4993215
   * E. Caldeweyher, S. Ehlert, A. Hansen, H. Neugebauer, S. Spicher,
     C. Bannwarth and S. Grimme, J. Chem. Phys., 2019, 150, 154122.
     DOI: 10.1063/1.5090222
   * E. Caldeweyher, J.-M. Mewes, S. Ehlert and S. Grimme, Phys. Chem. Chem. Phys.
     2020, 22, 8499-8512. DOI: 10.1039/D0CP00502A
   
   for sTDA-xTB:
   * S. Grimme and C. Bannwarth, J. Chem. Phys., 2016, 145, 054103.
     DOI: 10.1063/1.4959605
   
   in the mass-spec context:
   * V. Asgeirsson, C. Bauer and S. Grimme, Chem. Sci., 2017, 8, 4879.
     DOI: 10.1039/c7sc00601b
   * J. Koopman and S. Grimme, ACS Omega 2019, 4, 12, 15120-15133.
     DOI: 10.1021/acsomega.9b02011
   
   for metadynamics refer to:
   * S. Grimme, J. Chem. Theory Comput., 2019, 155, 2847-2862
     DOI: 10.1021/acs.jctc.9b00143
   
   for SPH calculations refer to:
   * S. Spicher and S. Grimme, J. Chem. Theory Comput., 2021, 17, 1701-1714
     DOI: 10.1021/acs.jctc.0c01306
   
   with help from (in alphabetical order)
   P. Atkinson, C. Bannwarth, F. Bohle, G. Brandenburg, E. Caldeweyher
   M. Checinski, S. Dohm, S. Ehlert, S. Ehrlich, I. Gerasimov, C. Hölzer
   A. Katbashev, J. Koopman, C. Lavigne, S. Lehtola, F. März, M. Müller,
   F. Musil, H. Neugebauer, J. Pisarek, C. Plett, P. Pracht, F. Pultar,
   J. Seibert, P. Shushkov, S. Spicher, M. Stahn, M. Steiner, T. Strunk,
   J. Stückrath, T. Rose, and J. Unsleber
   
 * started run on 2024/06/05 at 20:00:18.594     

           -------------------------------------------------
          |                Calculation Setup                |
           -------------------------------------------------

          program call               : xtb xtbopt.xyz --opt crude --input .xc2 --gfn2
          hostname                   : n-62-11-66
          coordinate file            : xtbopt.xyz
          omp threads                :                     1

   ID    Z sym.   atoms
    1    6 C      1, 3, 5-7, 10, 11, 14
    2    7 N      2, 4, 9, 13
    3    8 O      8, 12
    4    1 H      15-25

molecular fragmentation (1/2 indicates fragments):
1111111111111111111111121
# atoms in fragment 1/2:    24     1
 fragment masses (1/2) :      194.19        1.01
CMA distance (Bohr)    :  11.974
constraining FC (au)   :  0.0500
########################################################################
[WARNING] Please study the warnings concerning your input carefully
-1- readin_getIntValue: could not parse ''
########################################################################

           -------------------------------------------------
          |                 G F N 2 - x T B                 |
           -------------------------------------------------

        Reference                      10.1021/acs.jctc.8b01176
      * Hamiltonian:
        H0-scaling (s, p, d)           1.850000    2.230000    2.230000
        zeta-weighting                 0.500000
      * Dispersion:
        s8                             2.700000
        a1                             0.520000
        a2                             5.000000
        s9                             5.000000
      * Repulsion:
        kExp                           1.500000    1.000000
        rExp                           1.000000
      * Coulomb:
        alpha                          2.000000
        third order                    shell-resolved
        anisotropic                    true
        a3                             3.000000
        a5                             4.000000
        cn-shift                       1.200000
        cn-exp                         4.000000
        max-rad                        5.000000

q/qsh data taken from xtbrestart
CAMM data taken from xtbrestart

          ...................................................
          :                      SETUP                      :
          :.................................................:
          :  # basis functions                  67          :
          :  # atomic orbitals                  67          :
          :  # shells                           39          :
          :  # electrons                        74          :
          :  max. iterations                   250          :
          :  Hamiltonian                  GFN2-xTB          :
          :  restarted?                       true          :
          :  GBSA solvation                  false          :
          :  PC potential                    false          :
          :  electronic temp.         5000.0000000     K    :
          :  accuracy                    1.0000000          :
          :  -> integral cutoff          0.2500000E+02      :
          :  -> integral neglect         0.1000000E-07      :
          :  -> SCF convergence          0.1000000E-05 Eh   :
          :  -> wf. convergence          0.1000000E-03 e    :
          :  Broyden damping             0.4000000          :
          ...................................................

 iter      E             dE          RMSdq      gap      omega  full diag
   1    -42.6261980 -0.426262E+02  0.441E-05    0.04       0.0  T
   2    -42.6261980 -0.918732E-11  0.355E-05    0.04     563.6  T
   3    -42.6261980 -0.263611E-10  0.148E-05    0.04    1348.3  T

   *** convergence criteria satisfied after 3 iterations ***

         #    Occupation            Energy/Eh            Energy/eV
      -------------------------------------------------------------
         1        2.0000           -0.9167859             -24.9470
       ...           ...                  ...                  ...
        31        1.9997           -0.6195687             -16.8593
        32        1.9987           -0.5987418             -16.2926
        33        1.9976           -0.5891260             -16.0309
        34        1.9969           -0.5847791             -15.9126
        35        1.9882           -0.5636895             -15.3388
        36        1.9874           -0.5626752             -15.3112
        37        0.9838           -0.4820047             -13.1160 (HOMO)
        38        0.9351           -0.4804600             -13.0740 (LUMO)
        39        0.1008           -0.4360230             -11.8648
        40        0.0104           -0.3993036             -10.8656
        41        0.0020           -0.3731437             -10.1538
        42        0.0000           -0.2882734              -7.8443
       ...           ...                  ...                  ...
        67                          0.5558268              15.1248
      -------------------------------------------------------------
                  HL-Gap            0.0015447 Eh            0.0420 eV
             Fermi-level           -0.4825172 Eh          -13.1300 eV

 SCC (total)                   0 d,  0 h,  0 min,  0.022 sec
 SCC setup                      ...        0 min,  0.000 sec (  0.984%)
 Dispersion                     ...        0 min,  0.000 sec (  1.108%)
 classical contributions        ...        0 min,  0.000 sec (  0.310%)
 integral evaluation            ...        0 min,  0.004 sec ( 19.750%)
 iterations                     ...        0 min,  0.006 sec ( 25.501%)
 molecular gradient             ...        0 min,  0.011 sec ( 51.646%)
 printout                       ...        0 min,  0.000 sec (  0.669%)

         :::::::::::::::::::::::::::::::::::::::::::::::::::::
         ::                     SUMMARY                     ::
         :::::::::::::::::::::::::::::::::::::::::::::::::::::
         :: total energy             -42.102837226824 Eh    ::
         :: gradient norm              0.001541999211 Eh/a0 ::
         :: HOMO-LUMO gap              0.042033027164 eV    ::
         ::.................................................::
         :: SCC energy               -42.626197963473 Eh    ::
         :: -> isotropic ES            0.138810517578 Eh    ::
         :: -> anisotropic ES         -0.004911492113 Eh    ::
         :: -> anisotropic XC          0.012766120701 Eh    ::
         :: -> dispersion             -0.022579708946 Eh    ::
         :: repulsion energy           0.523291878613 Eh    ::
         :: add. restraining           0.000000000000 Eh    ::
         :: total charge               1.000000000000 e     ::
         :::::::::::::::::::::::::::::::::::::::::::::::::::::

      ----------------------------------------------------------- 
     |                   =====================                   |
     |                        A N C O P T                        |
     |                   =====================                   |
     |               Approximate Normal Coordinate               |
     |                Rational Function Optimizer                |
      ----------------------------------------------------------- 

          ...................................................
          :                      SETUP                      :
          :.................................................:
          :   optimization level             crude          :
          :   max. optcycles                   200          :
          :   ANC micro-cycles                  20          :
          :   degrees of freedom                69          :
          :.................................................:
          :   RF solver                   davidson          :
          :   write xtbopt.log                true          :
          :   linear?                        false          :
          :   energy convergence         0.5000000E-03 Eh   :
          :   grad. convergence          0.1000000E-01 Eh/α :
          :   maxmium RF displ.          1.0000000          :
          :   Hlow (freq-cutoff)         0.1000000E-01      :
          :   Hmax (freq-cutoff)         5.0000000          :
          :   S6 in model hess.         20.0000000          :
          ...................................................

generating ANC from model Hessian ...
Using Lindh-Hessian (1995)
 Shifting diagonal of input Hessian by    1.0045081544662568E-002
 Lowest  eigenvalues of input Hessian
    0.010000    0.010005    0.000000    0.000000    0.000000    0.000000
    0.000000    0.000000    0.010530    0.012832    0.014145    0.016127
    0.018573    0.020610    0.022879    0.024678    0.025327    0.028353
 Highest eigenvalues
    2.131377    2.148326    2.209016    2.292796    2.404317    2.544496


........................................................................
.............................. CYCLE    1 ..............................
........................................................................

 iter      E             dE          RMSdq      gap      omega  full diag
   1    -42.6261980 -0.426262E+02  0.266E-05    0.04       0.0  T
   2    -42.6261980  0.157769E-09  0.777E-05    0.04     257.4  T
   3    -42.6261980 -0.179469E-09  0.283E-06    0.04    7071.3  T
     SCC iter.                  ...        0 min,  0.004 sec
     gradient                   ...        0 min,  0.011 sec
 * total energy  :   -42.1028372 Eh     change       -0.8810730E-12 Eh
   gradient norm :     0.0015420 Eh/α   predicted     0.0000000E+00 (-100.00%)
   displ. norm   :     0.0333955 α      lambda       -0.1650125E-04
   maximum displ.:     0.0182595 α      in ANC's #2, #3, #6, ...

   *** GEOMETRY OPTIMIZATION CONVERGED AFTER 1 ITERATIONS ***

------------------------------------------------------------------------
 total energy gain   :        -0.0000000 Eh       -0.0000 kcal/mol
 total RMSD          :         0.0000000 a0        0.0000 Å
 total power (kW/mol):        -0.0000000 (step)   -0.0000 (real)
------------------------------------------------------------------------

 ANCopt (total)                0 d,  0 h,  0 min,  0.028 sec
 optimizer setup                ...        0 min,  0.000 sec (  1.393%)
 model hessian                  ...        0 min,  0.005 sec ( 17.625%)
 ANC generation                 ...        0 min,  0.001 sec (  2.546%)
 coordinate transformation      ...        0 min,  0.000 sec (  0.030%)
 single point calculation       ...        0 min,  0.021 sec ( 72.677%)
 optimization log               ...        0 min,  0.001 sec (  4.583%)
 hessian update                 ...        0 min,  0.000 sec (  0.002%)
 rational function              ...        0 min,  0.000 sec (  0.849%)

================
 final structure:
================
25
 xtb: 6.6.1 (8d0f1dd)
C            3.29882100401726        1.25918537213207        0.05404625616252
N            2.36796145103859        0.16177439861846        0.03763006475073
C            2.66871749675329       -1.13220559389534        0.04649184279443
N            1.53941727599369       -1.87028641611807        0.03180739808579
C            0.47222768514324       -1.00594842608073        0.01152677399144
C            0.99956291416146        0.28038255741554        0.01474989222649
C            0.16401260641346        1.46033943808100       -0.00051883620239
O            0.55405700829936        2.60583116570539        0.01100578570344
N           -1.19244558411285        1.11756137227653       -0.03326517263481
C           -2.15410425793077        2.21536474509149       -0.06754289281966
C           -1.75630044323665       -0.12877715822768       -0.05650278047177
O           -2.93514280418352       -0.32843524193071       -0.11108602875080
N           -0.85421173641274       -1.27368158454709       -0.00890906274538
C           -1.40171707562232       -2.49846282639432        0.01611969127251
H            3.86860013710285        1.25745592830759        0.98373096150655
H            3.99219146752208        1.17939086308159       -0.78289889659273
H            2.74087744990632        2.19213120933271       -0.02123309875338
H            3.66164637598708       -1.53704909657509        0.06271865616516
H           -1.59706380987585        3.14873609154998       -0.05204188758871
H           -2.75708120993606        2.14940267664786       -0.97195892349716
H           -2.81459835751805        2.15481678265693        0.79595057958120
H           -0.78708759991614       -3.37477329193314        0.03754252122893
H           -2.47258713034135       -2.55935000437805       -0.00521041688293
H           -3.95133445695714       -4.77594999293485        0.00887860002688
H            1.50601310780423       -2.87921442628183        0.03014059134379

 Bond Distances (Angstroems)
 ---------------------------
C1-N2=1.4391         C1-H15=1.0904        C1-H16=1.0898        C1-H17=1.0897        N2-C1=1.4391         N2-C3=1.3285         
N2-C6=1.3737         C3-N2=1.3285         C3-N4=1.3492         C3-H18=1.0724        N4-C3=1.3492         N4-C5=1.3735         
N4-H25=1.0095        C5-N4=1.3735         C5-C6=1.3902         C5-N13=1.3533        C6-N2=1.3737         C6-C5=1.3902         
C6-C7=1.4459         C7-C6=1.4459         C7-O8=1.2101         C7-N9=1.3995         O8-C7=1.2101         N9-C7=1.3995         
N9-C10=1.4598        N9-C11=1.3681        C10-N9=1.4598        C10-H19=1.0871       C10-H20=1.0890       C10-H21=1.0888       
C11-N9=1.3681        C11-O12=1.1969       C11-N13=1.4584       O12-C11=1.1969       N13-C5=1.3533        N13-C11=1.4584       
N13-C14=1.3418       C14-N13=1.3418       C14-H22=1.0706       C14-H23=1.0728       H15-C1=1.0904        H16-C1=1.0898        
H17-C1=1.0897        H18-C3=1.0724        H19-C10=1.0871       H20-C10=1.0890       H21-C10=1.0888       H22-C14=1.0706       
H23-C14=1.0728       H25-N4=1.0095        
 C  H  Rav=1.0834 sigma=0.0082  Rmin=1.0706  Rmax=1.0904     9
 C  C  Rav=1.4181 sigma=0.0278  Rmin=1.3902  Rmax=1.4459     2
 N  H  Rav=1.0095 sigma=0.0000  Rmin=1.0095  Rmax=1.0095     1
 N  C  Rav=1.3859 sigma=0.0447  Rmin=1.3285  Rmax=1.4598    11
 O  C  Rav=1.2035 sigma=0.0066  Rmin=1.1969  Rmax=1.2101     2

 selected bond angles (degree)
 --------------------
H15-C1-N2=110.27               H16-C1-N2=110.30               H16-C1-H15=108.80              H17-C1-N2=108.72               
H17-C1-H15=109.14              H17-C1-H16=109.60              C3-N2-C1=126.60                C6-N2-C1=125.36                
C6-N2-C3=108.04                N4-C3-N2=110.08                H18-C3-N2=125.27               H18-C3-N4=124.65               
C5-N4-C3=107.83                H25-N4-C3=125.06               H25-N4-C5=127.10               C6-C5-N4=106.71                
N13-C5-N4=129.59               N13-C5-C6=123.70               C5-C6-N2=107.34                C7-C6-N2=130.26                
C7-C6-C5=122.40                O8-C7-C6=125.88                N9-C7-C6=111.13                N9-C7-O8=122.99                
C10-N9-C7=117.06               C11-N9-C7=128.53               C11-N9-C10=114.40              H19-C10-N9=107.93              
H20-C10-N9=109.80              H20-C10-H19=110.34             H21-C10-N9=109.83              H21-C10-H19=110.32             
H21-C10-H20=108.63             

 selected dihedral angles (degree)
 ---------------------------------
C3-N2-C1-H15=296.17           C3-N2-C1-H16= 56.36           C3-N2-C1-H17=176.56           C6-N2-C1-H15=115.91           
C6-N2-C1-H16=236.11           C6-N2-C1-H17=356.30           N4-C3-N2-C1=179.71            N4-C3-N2-C6=359.92            
H18-C3-N2-C1=359.69           H18-C3-N2-C6=179.91           C5-N4-C3-N2=  0.05            C5-N4-C3-H18=180.07           
H25-N4-C3-N2=179.69           H25-N4-C3-H18=359.70          C6-C5-N4-C3=  0.00            C6-C5-N4-H25=180.37           
N13-C5-N4-C3=179.96           N13-C5-N4-H25=  0.34          C5-C6-N2-C1=180.28            C5-C6-N2-C3=  0.07            
C7-C6-N2-C1=  0.11            C7-C6-N2-C3=179.89            N2-C6-C5-N4=359.96            N2-C6-C5-N13=179.99           
C7-C6-C5-N4=180.12            C7-C6-C5-N13=  0.15           O8-C7-C6-N2=359.63            O8-C7-C6-C5=179.43            
N9-C7-C6-N2=179.53            N9-C7-C6-C5=359.34            C10-N9-C7-C6=180.70           C10-N9-C7-O8=  0.61           
C11-N9-C7-C6=359.69           C11-N9-C7-O8=179.60           H19-C10-N9-C7=359.52          H19-C10-N9-C11=180.39         
H20-C10-N9-C7=119.84          H20-C10-N9-C11=300.70         H21-C10-N9-C7=239.22          H21-C10-N9-C11= 60.08         

 CMA Distance (Angstroems)
 ---------------------------
R(CMA):  6.3365
           -------------------------------------------------
          |                Final Singlepoint                |
           -------------------------------------------------

          ...................................................
          :                      SETUP                      :
          :.................................................:
          :  # basis functions                  67          :
          :  # atomic orbitals                  67          :
          :  # shells                           39          :
          :  # electrons                        74          :
          :  max. iterations                   250          :
          :  Hamiltonian                  GFN2-xTB          :
          :  restarted?                      false          :
          :  GBSA solvation                  false          :
          :  PC potential                    false          :
          :  electronic temp.         5000.0000000     K    :
          :  accuracy                    1.0000000          :
          :  -> integral cutoff          0.2500000E+02      :
          :  -> integral neglect         0.1000000E-07      :
          :  -> SCF convergence          0.1000000E-05 Eh   :
          :  -> wf. convergence          0.1000000E-03 e    :
          :  Broyden damping             0.4000000          :
          ...................................................

 iter      E             dE          RMSdq      gap      omega  full diag
   1    -42.6261980 -0.426262E+02  0.211E-06    0.04       0.0  T
   2    -42.6261980  0.213163E-13  0.198E-06    0.04   10086.0  T
   3    -42.6261980  0.781597E-13  0.139E-06    0.04   14401.2  T

   *** convergence criteria satisfied after 3 iterations ***

         #    Occupation            Energy/Eh            Energy/eV
      -------------------------------------------------------------
         1        2.0000           -0.9167859             -24.9470
       ...           ...                  ...                  ...
        31        1.9997           -0.6195687             -16.8593
        32        1.9987           -0.5987419             -16.2926
        33        1.9976           -0.5891260             -16.0309
        34        1.9969           -0.5847791             -15.9126
        35        1.9882           -0.5636895             -15.3388
        36        1.9874           -0.5626753             -15.3112
        37        0.9838           -0.4820048             -13.1160 (HOMO)
        38        0.9351           -0.4804600             -13.0740 (LUMO)
        39        0.1008           -0.4360230             -11.8648
        40        0.0104           -0.3993036             -10.8656
        41        0.0020           -0.3731437             -10.1538
        42        0.0000           -0.2882734              -7.8443
       ...           ...                  ...                  ...
        67                          0.5558267              15.1248
      -------------------------------------------------------------
                  HL-Gap            0.0015448 Eh            0.0420 eV
             Fermi-level           -0.4825172 Eh          -13.1300 eV

 SCC (total)                   0 d,  0 h,  0 min,  0.021 sec
 SCC setup                      ...        0 min,  0.000 sec (  0.875%)
 Dispersion                     ...        0 min,  0.000 sec (  0.788%)
 classical contributions        ...        0 min,  0.000 sec (  0.314%)
 integral evaluation            ...        0 min,  0.004 sec ( 20.268%)
 iterations                     ...        0 min,  0.005 sec ( 21.934%)
 molecular gradient             ...        0 min,  0.011 sec ( 55.239%)
 printout                       ...        0 min,  0.000 sec (  0.553%)

         :::::::::::::::::::::::::::::::::::::::::::::::::::::
         ::                     SUMMARY                     ::
         :::::::::::::::::::::::::::::::::::::::::::::::::::::
         :: total energy             -42.102837226825 Eh    ::
         :: gradient norm              0.001542045395 Eh/a0 ::
         :: HOMO-LUMO gap              0.042035934200 eV    ::
         ::.................................................::
         :: SCC energy               -42.626197963473 Eh    ::
         :: -> isotropic ES            0.138810682014 Eh    ::
         :: -> anisotropic ES         -0.004911496786 Eh    ::
         :: -> anisotropic XC          0.012766121912 Eh    ::
         :: -> dispersion             -0.022579708834 Eh    ::
         :: repulsion energy           0.523291878613 Eh    ::
         :: add. restraining           0.000000000000 Eh    ::
         :: total charge               1.000000000000 e     ::
         :::::::::::::::::::::::::::::::::::::::::::::::::::::

           -------------------------------------------------
          |                Property Printout                |
           -------------------------------------------------

    * Orbital Energies and Occupations

         #    Occupation            Energy/Eh            Energy/eV
      -------------------------------------------------------------
         1        2.0000           -0.9167859             -24.9470
       ...           ...                  ...                  ...
        25        2.0000           -0.6685873             -18.1932
        26        2.0000           -0.6682280             -18.1834
        27        2.0000           -0.6594726             -17.9452
        28        1.9999           -0.6353971             -17.2900
        29        1.9998           -0.6320393             -17.1987
        30        1.9998           -0.6280880             -17.0911
        31        1.9997           -0.6195687             -16.8593
        32        1.9987           -0.5987419             -16.2926
        33        1.9976           -0.5891260             -16.0309
        34        1.9969           -0.5847791             -15.9126
        35        1.9882           -0.5636895             -15.3388
        36        1.9874           -0.5626753             -15.3112
        37        0.9838           -0.4820048             -13.1160 (HOMO)
        38        0.9351           -0.4804600             -13.0740 (LUMO)
        39        0.1008           -0.4360230             -11.8648
        40        0.0104           -0.3993036             -10.8656
        41        0.0020           -0.3731437             -10.1538
        42        0.0000           -0.2882734              -7.8443
        43                         -0.2129462              -5.7946
        44                         -0.2006814              -5.4608
        45                         -0.1506647              -4.0998
        46                         -0.1342023              -3.6518
        47                         -0.0670936              -1.8257
        48                         -0.0397651              -1.0821
       ...                                ...                  ...
        67                          0.5558267              15.1248
      -------------------------------------------------------------
                  HL-Gap            0.0015448 Eh            0.0420 eV
             Fermi-level           -0.4825172 Eh          -13.1300 eV

     #   Z          covCN         q      C6AA      α(0)
     1   6 C        3.691    -0.097    22.538     6.793
     2   7 N        2.831     0.085    19.773     6.604
     3   6 C        3.051     0.054    26.749     8.482
     4   7 N        2.789    -0.057    22.341     7.020
     5   6 C        3.039     0.092    25.912     8.349
     6   6 C        3.114    -0.016    28.258     8.708
     7   6 C        2.763     0.267    22.502     7.768
     8   8 O        0.858    -0.367    21.024     6.148
     9   7 N        2.744    -0.079    22.770     7.087
    10   6 C        3.713    -0.064    21.865     6.681
    11   6 C        2.734     0.310    21.726     7.631
    12   8 O        0.859    -0.339    20.489     6.069
    13   7 N        2.735     0.009    21.100     6.822
    14   6 C        2.798    -0.060    29.465     8.892
    15   1 H        0.924     0.109     1.704     2.041
    16   1 H        0.925     0.108     1.718     2.050
    17   1 H        0.925     0.139     1.465     1.893
    18   1 H        0.926     0.127     1.555     1.950
    19   1 H        0.925     0.116     1.645     2.006
    20   1 H        0.925     0.099     1.798     2.097
    21   1 H        0.925     0.098     1.800     2.098
    22   1 H        0.926     0.087     1.910     2.161
    23   1 H        0.926     0.132     1.521     1.928
    24   1 H        0.000     0.016     6.954     4.822
    25   1 H        0.860     0.229     0.969     1.542

 Mol. C6AA /au·bohr⁶  :       6810.847962
 Mol. C8AA /au·bohr⁸  :     155503.888212
 Mol. α(0) /au        :        127.644064


Wiberg/Mayer (AO) data.
largest (>0.10) Wiberg bond orders for each atom

 ---------------------------------------------------------------------------
     #   Z sym  total        # sym  WBO       # sym  WBO       # sym  WBO
 ---------------------------------------------------------------------------
     1   6 C    3.912 --     2 N    0.984    16 H    0.960    17 H    0.959
                            15 H    0.957
     2   7 N    3.671 --     3 C    1.384     6 C    1.165     1 C    0.984
     3   6 C    3.840 --     2 N    1.384     4 N    1.287    18 H    0.952
     4   7 N    3.553 --     3 C    1.287     5 C    1.165    25 H    0.918
     5   6 C    3.885 --     6 C    1.337    13 N    1.165     4 N    1.165
     6   6 C    3.857 --     5 C    1.337     2 N    1.165     7 C    1.075
     7   6 C    3.916 --     8 O    1.673     9 N    1.081     6 C    1.075
     8   8 O    1.986 --     7 C    1.673     9 N    0.138
     9   7 N    3.569 --    11 C    1.169     7 C    1.081    10 C    0.963
                            12 O    0.151     8 O    0.138
    10   6 C    3.912 --    19 H    0.968    21 H    0.966    20 H    0.966
                             9 N    0.963
    11   6 C    3.924 --    12 O    1.726     9 N    1.169    13 N    0.934
    12   8 O    2.054 --    11 C    1.726     9 N    0.151
    13   7 N    3.623 --    14 C    1.300     5 C    1.165    11 C    0.934
    14   6 C    3.337 --    13 N    1.300    22 H    0.970    23 H    0.957
    15   1 H    0.985 --     1 C    0.957
    16   1 H    0.985 --     1 C    0.960
    17   1 H    0.980 --     1 C    0.959
    18   1 H    0.983 --     3 C    0.952
    19   1 H    0.985 --    10 C    0.968
    20   1 H    0.986 --    10 C    0.966
    21   1 H    0.987 --    10 C    0.966
    22   1 H    0.992 --    14 C    0.970
    23   1 H    0.982 --    14 C    0.957
    24   1 H    0.003
    25   1 H    0.947 --     4 N    0.918
 ---------------------------------------------------------------------------

Topologies differ in total number of bonds
Writing topology from bond orders to xtbtopo.mol

molecular dipole:
                 x           y           z       tot (Debye)
 q only:        2.671      -1.799       0.067
   full:        2.952      -2.381       0.076       9.641
molecular quadrupole (traceless):
                xx          xy          yy          xz          yz          zz
 q only:       15.017      -6.172       3.860       0.346      -0.437     -18.877
  q+dip:       13.086      -9.316       3.694       0.209      -0.446     -16.781
   full:       11.962      -9.197       2.698       0.128      -0.438     -14.660

           -------------------------------------------------
          |                Geometry Summary                 |
           -------------------------------------------------

      molecular mass/u    :      195.1988581
   center of mass at/Å    :        0.0865090       0.0648283      -0.0046743
  moments of inertia/u·Å² :        0.4874121E+03   0.7308398E+03   0.1211791E+04
rotational constants/cm⁻¹ :        0.3458600E-01   0.2306611E-01   0.1391134E-01

 * 24 selected distances

     #   Z          #   Z                                           value/Å
     1   6 C        2   7 N                                       1.4391248
     2   7 N        3   6 C                                       1.3285019
     3   6 C        4   7 N                                       1.3491843
     4   7 N        5   6 C                                       1.3734575
     2   7 N        6   6 C                                       1.3737199
     5   6 C        6   6 C                                       1.3902304
     6   6 C        7   6 C                                       1.4459170
     7   6 C        8   8 O                                       1.2101318
     7   6 C        9   7 N                                       1.3994814
     9   7 N       10   6 C                                       1.4598407 (max)
     9   7 N       11   6 C                                       1.3681492
    11   6 C       12   8 O                                       1.1968760
     5   6 C       13   7 N                                       1.3533442
    13   7 N       14   6 C                                       1.3418189
     1   6 C       15   1 H                                       1.0903968
     1   6 C       16   1 H                                       1.0897739
     1   6 C       17   1 H                                       1.0896587
     3   6 C       18   1 H                                       1.0724130
    10   6 C       19   1 H                                       1.0870679
    10   6 C       20   1 H                                       1.0889907
    10   6 C       21   1 H                                       1.0888249
    14   6 C       22   1 H                                       1.0705833
    14   6 C       23   1 H                                       1.0728118
     4   7 N       25   1 H                                       1.0094823 (min)

 * 5 distinct bonds (by element types)

   Z      Z             #   av. dist./Å        max./Å        min./Å
   1 H    6 C           9     1.0833912     1.0903968     1.0705833
   6 C    6 C           2     1.4180737     1.4459170     1.3902304
   1 H    7 N           1     1.0094823     1.0094823     1.0094823
   6 C    7 N          10     1.3786623     1.4598407     1.3285019
   6 C    8 O           2     1.2035039     1.2101318     1.1968760


optimized geometry written to: xtbopt.xyz


           -------------------------------------------------
          | TOTAL ENERGY              -42.102837226825 Eh   |
          | GRADIENT NORM               0.001542045395 Eh/α |
          | HOMO-LUMO GAP               0.042035934200 eV   |
           -------------------------------------------------

------------------------------------------------------------------------
 * finished run on 2024/06/05 at 20:00:18.702     
------------------------------------------------------------------------
 total:
 * wall-time:     0 d,  0 h,  0 min,  0.108 sec
 *  cpu-time:     0 d,  0 h,  0 min,  0.082 sec
 * ratio c/w:     0.759 speedup
 SCF:
 * wall-time:     0 d,  0 h,  0 min,  0.022 sec
 *  cpu-time:     0 d,  0 h,  0 min,  0.022 sec
 * ratio c/w:     1.000 speedup
 ANC optimizer:
 * wall-time:     0 d,  0 h,  0 min,  0.055 sec
 *  cpu-time:     0 d,  0 h,  0 min,  0.049 sec
 * ratio c/w:     0.891 speedup

