72
 energy: -99.252013375005 gnorm: 0.779047996974 xtb: 6.6.1 (8d0f1dd)
N           -2.27106602877485        3.24819557328184        2.08919837336739
C           -2.06222360346604        2.36539496962368        1.23030148520098
C           -3.00740615355611        2.01960661335016        0.11242163245727
C           -3.51275699773073        0.59766694588376        0.29649949251995
C           -4.21123222701400       -0.03015802716275       -0.73715064554480
C           -4.70255147558388       -1.31738995798362       -0.60125648441044
O           -5.38846386116851       -1.99374893319632       -1.54784651277571
C           -5.74329801617150       -1.33648679354212       -2.74154252209725
C           -4.48784804769868       -2.02409032953547        0.61193810255452
O           -4.98665889187583       -3.27734721797145        0.65050439684242
C           -4.87717819773710       -4.01936309032335        1.84242667475863
C           -3.80496654235583       -1.39162578170872        1.63793633680884
C           -3.32635376795909       -0.09610141655392        1.48141144137635
C           -2.17369320017889        2.13206525455846       -1.19227576434111
C           -1.20322897167720        0.96231201495830       -1.44820925616013
C           -0.03978945836691        0.93989168569542       -0.53425633819204
N            0.41237706149322       -0.12956268886662        0.10644936893239
C            1.62951479986451       -0.06272234437153        0.89541201252897
C            2.74078515342068       -0.85692303288362        0.27337919510849
C            4.04218356968095       -0.49387364689845        0.18743513785175
C            4.57775925410656        0.74930709500998        0.63005672049356
C            5.88037920017387        1.09760744152327        0.44225171330740
C            6.80524074917375        0.24832748004626       -0.21919264325848
O            8.09990309416227        0.56938010331401       -0.47085482123655
C            8.57713604920943        1.84614224756369       -0.11871084949435
C            6.39091993890767       -0.99311574061283       -0.65480735108743
O            7.29898738745162       -1.76004164896658       -1.28117686214231
C            6.95106895836865       -3.04977116640659       -1.73097463941929
C            4.99931713793583       -1.52207598562363       -0.40597740409361
C           -0.28507735074985       -1.39295812024941        0.07959308823257
C           -4.24351146980789        2.96417300678487        0.03202472502032
C           -5.12519186252862        2.83845435080087        1.27257326710211
C           -3.86988306704131        4.42761923557432       -0.18760901496526
H           -4.38395923085293        0.50342589159836       -1.65700600162859
H           -6.34876630526771       -0.44632065499916       -2.54510274448264
H           -6.33414682615542       -2.05555132714634       -3.30608594857164
H           -4.86023262675249       -1.05811962654164       -3.32693298447392
H           -5.37307261260612       -3.51442539518242        2.67659715177700
H           -5.37782315328813       -4.96507035285101        1.64457144331062
H           -3.83074429391661       -4.21129982652884        2.10129553203737
H           -3.64711807788373       -1.89437946781299        2.57820677031078
H           -2.82503353328579        0.37369397053436        2.31342599007431
H           -2.85708394403041        2.18870836899110       -2.03918545174368
H           -1.60729679192474        3.06384679162274       -1.16460594755360
H           -1.75067411153293        0.02213686766585       -1.42166429561431
H           -0.81672073500655        1.09824658931887       -2.46651662286814
H           -1.13036698608208        1.77071378040009        1.17275335785834
H            0.56946901395960        1.83017494173633       -0.48130085657668
H            1.40527319781168       -0.46569399602227        1.89354835380576
H            1.91791014279127        0.98135583589358        1.00917036803708
H            4.69399513452656       -1.85647532966076       -1.04925024335158
H            2.45135531811690       -1.83312223755381       -0.08988162425337
H            3.92756453190352        1.45231993970266        1.12120414497222
H            6.21930260176930        2.05842602778859        0.79193054722907
H            8.53042444086196        2.01343196457561        0.96158441838374
H            8.02834598345114        2.63799521543278       -0.63652193726324
H            9.61838763155390        1.86159902246533       -0.43575057080082
H            7.85800058050238       -3.45914527525295       -2.17282550400324
H            6.63318811083418       -3.69611130769000       -0.90610889101228
H            6.16599391109491       -3.01458087523551       -2.49315328858039
H            5.13355954157471       -2.28133324276740        0.39531370914067
H           -0.27728769973215       -1.82461298063802       -0.92317754653463
H           -1.32268045730803       -1.26506769118034        0.39902238342816
H            0.20252969073094       -2.08595967561689        0.76017483915767
H           -4.83056634676451        2.63068380129278       -0.83163427957061
H           -4.58596979443932        3.18316877866222        2.14899231631450
H           -5.43712878037723        1.80897479461729        1.43105173557004
H           -6.01505209987122        3.45034445625883        1.15018551926245
H           -3.25544535989386        4.78620423202923        0.63225799763158
H           -3.34079277518752        4.57615471602908       -1.12528473044246
H           -4.77705471430278        5.02550082591732       -0.21901390858034
H           -1.54696014055571        3.41551387754023        2.78100958695584
72
 energy: -99.360877307335 gnorm: 0.047462436854 xtb: 6.6.1 (8d0f1dd)
N           -2.27106078913263        3.24814338227139        2.08919105416355
C           -2.06224681586736        2.36530571919878        1.23030476233250
C           -3.00735309266671        2.01963458931901        0.11237766449628
C           -3.51274017123422        0.59770351496314        0.29646860371557
C           -4.21122375249761       -0.03014718344599       -0.73718637420097
C           -4.70256529877911       -1.31738519435607       -0.60131472109339
O           -5.38849049469505       -1.99373729080559       -1.54794200483039
C           -5.74326606093882       -1.33651798122432       -2.74157594147528
C           -4.48784569457575       -2.02409455734058        0.61194804213019
O           -4.98666337330542       -3.27734592213136        0.65053012931536
C           -4.87723305535603       -4.01935957100771        1.84245310590779
C           -3.80496512534497       -1.39163053823345        1.63796261233921
C           -3.32635278654423       -0.09610430958254        1.48141716084206
C           -2.17367716203307        2.13202813364535       -1.19228472347683
C           -1.20328149303945        0.96234296994209       -1.44819999156737
C           -0.03976731822814        0.93998210741740       -0.53426332726496
N            0.41240109369669       -0.12960555702315        0.10617525762499
C            1.62913573540740       -0.06280607873718        0.89529198352952
C            2.74185257191539       -0.85567931286825        0.27477453708760
C            4.04322259306881       -0.48652384506727        0.20212480660553
C            4.57781710888250        0.75491718482923        0.63334544840930
C            5.88140413157805        1.09990089829436        0.44317802825319
C            6.80980524271944        0.25258504758317       -0.21751281810728
O            8.10248246842087        0.57135060603545       -0.47155827842672
C            8.57803348213022        1.84736957096333       -0.11841890343353
C            6.40195350699434       -0.98838454312729       -0.64260847923988
O            7.29938979570323       -1.75901922501047       -1.28109839966183
C            6.95065542254448       -3.04903830594257       -1.73023228324955
C            5.03231268202230       -1.49120159823432       -0.33252476618851
C           -0.28507521822307       -1.39297276059038        0.07955760272701
C           -4.24346898239666        2.96419060748879        0.03201710563479
C           -5.12513908117147        2.83844806515514        1.27253075979217
C           -3.86984730708708        4.42760587234257       -0.18761394276828
H           -4.38393458862667        0.50343403606428       -1.65704716626685
H           -6.34863859876928       -0.44640602881290       -2.54510030393684
H           -6.33404976090603       -2.05550603744765       -3.30598063544059
H           -4.86034135601917       -1.05815775516221       -3.32687731741067
H           -5.37313711390882       -3.51439953094086        2.67661076013919
H           -5.37785483978318       -4.96506553788707        1.64458622353813
H           -3.83080617569301       -4.21127066340871        2.10135595184089
H           -3.64714396026178       -1.89437138794017        2.57824133860746
H           -2.82504633012730        0.37369822434624        2.31345328472697
H           -2.85703470034422        2.18867363865316       -2.03916882964249
H           -1.60728858527481        3.06381675719431       -1.16460188034668
H           -1.75066210372696        0.02215602251512       -1.42167486634142
H           -0.81670196717782        1.09825676399599       -2.46648254571318
H           -1.13044108800332        1.77074052172546        1.17272267038687
H            0.56945073688365        1.83017924555464       -0.48128632036501
H            1.40497029858012       -0.46558647022977        1.89348783649611
H            1.91769997844050        0.98131932609138        1.00925955815357
H            4.62802876835380       -1.92645195094348       -1.18717968012787
H            2.45342760618575       -1.83249255690515       -0.08925908198708
H            3.92649011888379        1.45634907203785        1.12274258245366
H            6.21988291851397        2.06010811430071        0.79248707357811
H            8.53066907528813        2.01340202265700        0.96208826343043
H            8.02847496085188        2.63872146318925       -0.63668492270864
H            9.61871958553412        1.86223461139295       -0.43599063358144
H            7.85743450154988       -3.45847145687190       -2.17271941481322
H            6.63303732479198       -3.69545008918206       -0.90615013940768
H            6.16584012559166       -3.01455384379100       -2.49237351838128
H            5.14339904069430       -2.28151858309675        0.42204837167265
H           -0.27730421571141       -1.82469510665781       -0.92317218703298
H           -1.32266614866360       -1.26503763801651        0.39906171066473
H            0.20261086382430       -2.08594393506262        0.76017008020241
H           -4.83054861034469        2.63067701630137       -0.83163018360175
H           -4.58596459869961        3.18315769498727        2.14893575984163
H           -5.43712224354637        1.80898430922589        1.43100548890348
H           -6.01499051212941        3.45032487373797        1.15015996199017
H           -3.25543870140477        4.78619624408967        0.63224205047123
H           -3.34076929162695        4.57612552357472       -1.12525677277925
H           -4.77700593549358        5.02545996743780       -0.21906001390495
H           -1.54693164272077        3.41554815106767        2.78098857936654
72
 energy: -99.362300254382 gnorm: 0.031117952744 xtb: 6.6.1 (8d0f1dd)
N           -2.27090743573175        3.24792432457413        2.08917618978158
C           -2.06190348874179        2.36506830497341        1.23034073676941
C           -3.00675664149173        2.01940319258540        0.11226027553662
C           -3.51250804887507        0.59764077492113        0.29617394187557
C           -4.21109203843841       -0.03014701633600       -0.73749968746607
C           -4.70236205967125       -1.31743990390422       -0.60161432105313
O           -5.38826221071225       -1.99398086161877       -1.54815044446781
C           -5.74301445658439       -1.33717861916089       -2.74192873223882
C           -4.48771314489798       -2.02402173044509        0.61179710912547
O           -4.98667506045812       -3.27719753466732        0.65063724321567
C           -4.87810987817365       -4.01858586134804        1.84303426082326
C           -3.80512098271656       -1.39142880275893        1.63792137484078
C           -3.32644576341130       -0.09597060658347        1.48128751174617
C           -2.17297703832202        2.13173407131127       -1.19229156175753
C           -1.20263691094305        0.96211345288689       -1.44829579318071
C           -0.03873179879031        0.94035355937905       -0.53465082389534
N            0.41430715155337       -0.12880984801473        0.10596033913809
C            1.63036122023151       -0.06078549524533        0.89657021245931
C            2.74505337490536       -0.85618953308828        0.28146997510298
C            4.04715188128127       -0.49177343368911        0.20803377025118
C            4.58042677013324        0.75511106991772        0.64149335984093
C            5.88355484854430        1.10107323648144        0.44925363107999
C            6.81014411228228        0.25208145662775       -0.21227739861593
O            8.10128089618270        0.57732412002234       -0.47364425591688
C            8.57868031211933        1.85306471122531       -0.11847772665195
C            6.39707576304996       -0.99182031180819       -0.64061443327620
O            7.29563294172563       -1.75775671882219       -1.28038184334057
C            6.95016257733463       -3.04814715056676       -1.72774214360812
C            5.02488520255868       -1.50300427841313       -0.34317564939887
C           -0.28313384729539       -1.39229510544319        0.08012201349692
C           -4.24284176271335        2.96384897276338        0.03199717284276
C           -5.12478631487863        2.83784595081042        1.27228153669231
C           -3.86863010189910        4.42698693587067       -0.18809904394295
H           -4.38408216331441        0.50357981749705       -1.65725523879406
H           -6.34814229138457       -0.44694943762778       -2.54570548085748
H           -6.33389212035044       -2.05631152668932       -3.30583597381297
H           -4.86029006776632       -1.05912853826776       -3.32744220469003
H           -5.37450635972267       -3.51307278736366        2.67657384583207
H           -5.37868502646423       -4.96434981260954        1.64535075394320
H           -3.83188918099949       -4.21043171852841        2.10280419740935
H           -3.64768103775913       -1.89396003341131        2.57837919984024
H           -2.82565496226133        0.37408797009844        2.31350550300806
H           -2.85620607566730        2.18863035225671       -2.03923015789320
H           -1.60639831709635        3.06338833372955       -1.16439292800669
H           -1.74995537180351        0.02188676019322       -1.42182087819351
H           -0.81627823709366        1.09814192753225       -2.46663369029340
H           -1.12979535686678        1.77117757566229        1.17239385060226
H            0.56930511208144        1.83124111025529       -0.48119503617976
H            1.40317333260774       -0.46177502667155        1.89485437814724
H            1.91801595874055        0.98365203152767        1.00978232029501
H            4.61375269299113       -1.94081180109477       -1.21491084689630
H            2.45785725833790       -1.83313029313355       -0.08058623300170
H            3.92821419612787        1.46450700472374        1.12379346608150
H            6.22148557893997        2.06423323617823        0.79414460112405
H            8.53510712713379        2.01544320422541        0.96300550901082
H            8.02796794498989        2.64672929805390       -0.63259429252762
H            9.61843273341509        1.87050338911591       -0.43945474331045
H            7.85798273540502       -3.45443373114455       -2.17048420252207
H            6.63190443821901       -3.69341900700558       -0.90378141309021
H            6.16520631159197       -3.01535535411528       -2.48942800120326
H            5.13199984134295       -2.30309080965716        0.40409766665059
H           -0.27543681036398       -1.82494373672780       -0.92222866704120
H           -1.32081042128859       -1.26423975087317        0.39948592937042
H            0.20466238937350       -2.08473070706864        0.76119182584580
H           -4.82978674721487        2.63016640052795       -0.83165230774549
H           -4.58628145668327        3.18292477970644        2.14892212463882
H           -5.43632634232430        1.80824389313965        1.43075205483890
H           -6.01495217642786        3.44913463584811        1.14950646354735
H           -3.25471172721286        4.78596863539026        0.63194263041903
H           -3.33872710807041        4.57454630908469       -1.12539655517486
H           -4.77555595668760        5.02506067918960       -0.22082179226857
H           -1.54661480665878        3.41598492812154        2.78066236968633
72
 energy: -99.363095692947 gnorm: 0.009841833873 xtb: 6.6.1 (8d0f1dd)
N           -2.27047703346637        3.24757379914332        2.08875054792857
C           -2.06102890085059        2.36480207121981        1.22989928421333
C           -3.00571861633594        2.01880758208347        0.11181851955327
C           -3.51165647454714        0.59714645091709        0.29564518416811
C           -4.21020200352340       -0.03067984347625       -0.73804790232221
C           -4.70179721265965       -1.31781577978035       -0.60187865419257
O           -5.38768314866622       -1.99462524653797       -1.54827084316144
C           -5.74231487314298       -1.33831353066766       -2.74226996204143
C           -4.48772653356869       -2.02399818441061        0.61188451601129
O           -4.98695330487960       -3.27708416679910        0.65107440163660
C           -4.87997060884382       -4.01742737953268        1.84426231248076
C           -3.80551070541281       -1.39121227743680        1.63811734848473
C           -3.32635201568959       -0.09600038408815        1.48113592889427
C           -2.17149052962361        2.13108895372382       -1.19238512928941
C           -1.20087422596895        0.96162408654224       -1.44774013814389
C           -0.03695714709605        0.94089985308968       -0.53385928219656
N            0.41662556265391       -0.12765733143371        0.10777460491786
C            1.62983974736143       -0.05742977368820        0.90299877926260
C            2.74510624873340       -0.85536782158250        0.29255035725020
C            4.04739429249978       -0.49526132854387        0.21164045379548
C            4.58143372722773        0.75421841365689        0.64652833757422
C            5.88394871693785        1.10166662543524        0.45192572010242
C            6.80902486229866        0.25122175553910       -0.20962131223351
O            8.09834128100312        0.58207653796843       -0.47773388773799
C            8.57691050244734        1.85693801019301       -0.11749818759522
C            6.39320917715811       -0.99469088910429       -0.63951401041270
O            7.29455952284360       -1.75554785576977       -1.27982930737771
C            6.95382587525564       -3.04705185229728       -1.72480818639642
C            5.01679464370791       -1.50718995929914       -0.35749745584759
C           -0.28023530424359       -1.39148754073116        0.08192880692800
C           -4.24164967158497        2.96337726537579        0.03115268209736
C           -5.12386961309210        2.83748188284996        1.27120458403168
C           -3.86723102215059        4.42639640868409       -0.18903184578806
H           -4.38304696155005        0.50296727008136       -1.65791038365406
H           -6.34707067211312       -0.44779758931887       -2.54642469825093
H           -6.33347531121747       -2.05757723592780       -3.30558675680948
H           -4.85968947237505       -1.06080453707420       -3.32805395943475
H           -5.37733157702949       -3.51103310168936        2.67671110521146
H           -5.38041109100302       -4.96330129648189        1.64680665746312
H           -3.83410726035492       -4.20915318302333        2.10555609941602
H           -3.64870070617058       -1.89337616056634        2.57886985060437
H           -2.82593672628001        0.37436449076988        2.31341861227620
H           -2.85447668410193        2.18793924154423       -2.03950044824686
H           -1.60490588997667        3.06273547461025       -1.16438480812662
H           -1.74797831517735        0.02130248217370       -1.42094936277269
H           -0.81456763150074        1.09724001161243       -2.46616259702308
H           -1.12902511896860        1.77084219433238        1.17242482128907
H            0.57000879796536        1.83247800511426       -0.48054559986549
H            1.39900286272843       -0.45504407483584        1.90183397700270
H            1.91770105722871        0.98724698817417        1.01292578021735
H            4.59674271170669       -1.94863989743316       -1.25493237959765
H            2.45830508604195       -1.83219229138084       -0.06879791613266
H            3.93102614013652        1.46510042389133        1.13122704995776
H            6.22241899772840        2.06560210235708        0.79649948318785
H            8.53859078942783        2.01396258514544        0.96513636806230
H            8.02491265548800        2.65418824191471       -0.62543817422165
H            9.61520185300478        1.87701891782469       -0.44356829885787
H            7.86291700825333       -3.45104355094409       -2.16620144660899
H            6.63432791249853       -3.69075156629441       -0.90062660269914
H            6.16925833855533       -3.01793926601246       -2.48717341493822
H            5.11641425527823       -2.32293388234667        0.37577953523913
H           -0.27168749812428       -1.82487675058618       -0.92011652644156
H           -1.31822973512577       -1.26349857215783        0.40037090182345
H            0.20743122492838       -2.08331735105702        0.76368993213052
H           -4.82859748304381        2.62971713576322       -0.83250180666573
H           -4.58592980647654        3.18295975708075        2.14801301801656
H           -5.43495500036981        1.80774383016344        1.42972458987123
H           -6.01433682180077        3.44822822595090        1.14792271640213
H           -3.25420319929542        4.78567192232715        0.63153013193610
H           -3.33605023804534        4.57314624510168       -1.12570508126368
H           -4.77393724355720        5.02467166810552       -0.22334183817586
H           -1.54640886512296        3.41581406435383        2.78044004768223
72
 energy: -99.363195781753 gnorm: 0.002788028940 xtb: 6.6.1 (8d0f1dd)
N           -2.27028747855802        3.24713280671687        2.08858706832585
C           -2.06084039300669        2.36408474364094        1.23002788235911
C           -3.00498672042695        2.01841524134586        0.11139083753178
C           -3.51101055038332        0.59678050349135        0.29537919470700
C           -4.20911479430813       -0.03130970418447       -0.73843308382737
C           -4.70118287295380       -1.31822428493428       -0.60193765145990
O           -5.38702526034486       -1.99510565523268       -1.54830426282676
C           -5.74145656847495       -1.33881678507452       -2.74236831621862
C           -4.48787956070917       -2.02404311834639        0.61215380141610
O           -4.98750619331823       -3.27699095248128        0.65150826469807
C           -4.88169481164887       -4.01688052023682        1.84508192840257
C           -3.80577617664746       -1.39114957816448        1.63839339125602
C           -3.32619321215101       -0.09610992374337        1.48111869305378
C           -2.17012155773185        2.13048511669683       -1.19243779829765
C           -1.19894544936978        0.96123874843169       -1.44674885347076
C           -0.03579194637729        0.94126541399608       -0.53188355384514
N            0.41741343852853       -0.12704378131564        0.11047607306562
C            1.62942840485715       -0.05622004236730        0.90749334549491
C            2.74338790980892       -0.85536917603756        0.29694505584895
C            4.04518815370297       -0.49464557363460        0.20962153039412
C            4.58011760439881        0.75313439930726        0.64625842808510
C            5.88201696170377        1.10183140873378        0.45064025822100
C            6.80602659893969        0.25271547851655       -0.21364823972746
O            8.09532025849819        0.58317010167979       -0.48138177384167
C            8.57483431085374        1.85632977017623       -0.11649470055187
C            6.39124484795520       -0.99308998698595       -0.64283767921264
O            7.29469505360223       -1.75383904854734       -1.28079887323629
C            6.95724600857818       -3.04685055886862       -1.72367315581199
C            5.01419179242867       -1.50318429588415       -0.36374092596428
C           -0.27904438131308       -1.39106033800676        0.08408842426635
C           -4.24077260921887        2.96318400214244        0.03011999795169
C           -5.12321469051839        2.83756075139429        1.27001693170507
C           -3.86643480860184        4.42630180212795       -0.18965536847173
H           -4.38116008499468        0.50192832529959       -1.65867567973975
H           -6.34593837000202       -0.44808107980383       -2.54657402649958
H           -6.33286527479156       -2.05795189853492       -3.30561981965769
H           -4.85872326744481       -1.06161824888029       -3.32817525314676
H           -5.37976386382708       -3.51011365937318        2.67688020339552
H           -5.38205555840715       -4.96278005577369        1.64754404517019
H           -3.83609454924995       -4.20864160383689        2.10739205547971
H           -3.64946523298177       -1.89304414866046        2.57937551827218
H           -2.82571671624480        0.37431784085987        2.31332595468632
H           -2.85269739676411        2.18669167654970       -2.03993711411230
H           -1.60396370029363        3.06240222664136       -1.16452132852799
H           -1.74577871353760        0.02077476862563       -1.41966677994000
H           -0.81213699392983        1.09639854603388       -2.46504833119303
H           -1.12884909475735        1.77010435044082        1.17278252096484
H            0.57140180225240        1.83273962573412       -0.47917156782102
H            1.39731099672821       -0.45174271811435        1.90678588539794
H            1.91796950818770        0.98850340382386        1.01561862247188
H            4.59165889591078       -1.94442002218485       -1.27066800302346
H            2.45578825045422       -1.83241882463891       -0.06375493112447
H            3.93070279349932        1.46060317352316        1.13641600981824
H            6.22103527497759        2.06443812698160        0.79778410384570
H            8.53837786800006        2.00902731431315        0.96671575939124
H            8.02211533953261        2.65578191951443       -0.62017594684431
H            9.61249262504803        1.87722357780414       -0.44455827954429
H            7.86769249092231       -3.45045423052652       -2.16262175179470
H            6.63760121745595       -3.68950062473141       -0.89859272729896
H            6.17377284508441       -3.02089767174741       -2.48747729221734
H            5.10950430664731       -2.32627300049649        0.36136342657904
H           -0.26989362873794       -1.82402311927326       -0.91813152085020
H           -1.31719259907574       -1.26357552632473        0.40217815239646
H            0.20863989307569       -2.08297584016368        0.76573483208301
H           -4.82752969254250        2.62964553355053       -0.83372627615817
H           -4.58508326152911        3.18296181286096        2.14673348369586
H           -5.43463477309518        1.80793771832501        1.42861131431331
H           -6.01341586023007        3.44867459815011        1.14664210692303
H           -3.25403146926587        4.78548685072704        0.63141300964218
H           -3.33480201222903        4.57359285712617       -1.12599424066748
H           -4.77330849375492        5.02431295115068       -0.22422862416258
H           -1.54627921091192        3.41540763318182        2.78033046237531
