72
 energy: 0.000000000000 xtb: 6.6.1 (8d0f1dd)
N           -1.47310934822924        2.74401318561852        2.22063942287560
C           -1.55658894218425        2.16490305624665        1.13274284460745
C           -2.74549225258129        2.05621251263064        0.23826250649470
C           -3.31377583855761        0.64333417511334        0.32332515650284
C           -4.30230195924506        0.24487112428158       -0.58026167086503
C           -4.85238808050968       -1.02286499940159       -0.53363593669082
O           -5.81420026757557       -1.48606047972767       -1.36157895357670
C           -6.39655692584623       -0.60827005826649       -2.29568495601309
C           -4.39972542350640       -1.94646120241305        0.44396933240983
O           -4.98748357557592       -3.16146026488900        0.41085995818162
C           -4.66362171172287       -4.10093865802695        1.40909140816864
C           -3.42072545213514       -1.54561399150247        1.33436558640148
C           -2.88302826362110       -0.26315802838497        1.27400162590187
C           -2.19303818453636        2.30467021687947       -1.18742988123374
C           -1.26651549989641        1.17243380322503       -1.65249445018642
C            0.01082525039567        1.09745464658138       -0.89354811789923
N            0.61779399208289       -0.02034948241203       -0.57705527866251
C            2.00145228921113       -0.02376006609561       -0.15611401051620
C            2.92554961797610       -0.53865287672537       -1.27700100652360
C            4.35756883501756       -0.43050761225877       -0.83075552032494
C            5.07346182539911        0.73206415878124       -1.03980975472950
C            6.38628045899965        0.84224449235903       -0.60344828301384
C            7.00047329721665       -0.20824758267940        0.05722314949100
O            8.26703733840855       -0.21011315050632        0.52410948507466
C            9.06912311989339        0.92943609656965        0.31863060963839
C            6.27040022445068       -1.40439766990411        0.28033468609137
O            6.94830004375713       -2.38012947787858        0.92752007684741
C            6.31537376337817       -3.61583233633369        1.15217722400438
C            4.96302840674480       -1.49347485723979       -0.16064431849589
C           -0.05511211878686       -1.29906259857679       -0.62085692079872
C           -3.86758072907722        3.07992629005348        0.58498065642721
C           -4.49286201346546        2.77383518785172        1.94313307512182
C           -3.39165211343248        4.52917708609625        0.54797528556046
H           -4.66030069703099        0.94509076131725       -1.31640581036773
H           -6.85037992114187        0.25803164586058       -1.80468862056629
H           -7.17287509152171       -1.18600121846629       -2.79318183475679
H           -5.66836870040540       -0.26952968819383       -3.04040283452035
H           -4.88416765986127       -3.71589494995018        2.40913564538747
H           -5.29223619720187       -4.96637504833431        1.20969248126828
H           -3.61139846644506       -4.39919876145526        1.35529370415983
H           -3.07077825100221       -2.21868786295666        2.10002682176568
H           -2.14562774333496        0.02067850888151        2.01001363031684
H           -3.02188903413801        2.38238034416975       -1.88813562572432
H           -1.65198546223364        3.25146730843841       -1.20556295755141
H           -1.81103391047759        0.23006526775522       -1.62116316669324
H           -0.99335697743926        1.37490224954061       -2.69443281971844
H           -0.67628070635666        1.65183902374723        0.61785732877701
H            0.63525847086258        1.98466388206871       -0.92314029755375
H            2.11132572081740       -0.65949698961381        0.72532619960637
H            2.30680494458141        0.98978260887088        0.11078973822125
H            2.76694224489122        0.06750735773687       -2.17075272340394
H            2.67954606229959       -1.57455642411728       -1.51167757545099
H            4.62170041431221        1.56295626549351       -1.56123593485311
H            6.92357738865082        1.75715832247601       -0.79119604059515
H            8.65159193263071        1.81001840117181        0.81701562739969
H            9.20136256512460        1.14042868409438       -0.74698998879646
H           10.03428931104811        0.69003246578081        0.76064945022918
H            7.05567240429544       -4.23621211097668        1.65347581279537
H            5.43848051513375       -3.50813590722545        1.79970582482858
H            6.02060097762632       -4.09420535105165        0.21253284608183
H            4.40102799328555       -2.40127288651695       -0.00490198294521
H           -0.22071301762289       -1.61775598610935       -1.65116024301020
H           -1.01972267469312       -1.24102728946113       -0.10935207845464
H            0.55899959333766       -2.04486104898380       -0.12333731565713
H           -4.63991918782192        2.95501120214274       -0.18098089750912
H           -3.76095251366987        2.90314731895452        2.73380846416528
H           -4.87457659255110        1.75695657819473        1.97884621460846
H           -5.31925601899505        3.45579242388173        2.12325583951056
H           -2.60025614255587        4.69225089676674        1.27368930043085
H           -3.03987434616939        4.81897697030947       -0.43870979129779
H           -4.22191779840287        5.18069696155015        0.80616701440619
H           -0.59832439338922        2.77744720721660        2.72959009765665
72
 energy: -4.396945882522 xtb: 6.6.1 (8d0f1dd)
N           -1.46907190958542        2.80423341867584        2.18657506635003
C           -1.55372441141041        2.13850201441638        1.13106772331849
C           -2.73963580439003        2.03535481224519        0.22764187424961
C           -3.32089605875262        0.62963972825424        0.31859752931448
C           -4.31075761538406        0.23209770519873       -0.58309121837891
C           -4.86867410727842       -1.03125704792929       -0.53370290373021
O           -5.83818721564155       -1.49362020489332       -1.36393566186862
C           -6.40522711351864       -0.61489227580746       -2.30430549031872
C           -4.42585075062699       -1.95253905718724        0.44578785443503
O           -5.02767265938015       -3.16847823026889        0.41666480223346
C           -4.70725388555364       -4.10333616503883        1.41761340837649
C           -3.44692995465787       -1.55575545121050        1.33643544949717
C           -2.90037990093075       -0.27764763469685        1.27268108502331
C           -2.19718680318988        2.27525278494186       -1.20373331961227
C           -1.24593888288316        1.16946826445807       -1.67708762905851
C            0.00817886396891        1.12333768048731       -0.87381447663533
N            0.63235173690391       -0.03229808473051       -0.53111622933528
C            2.00936496364390       -0.02004220718910       -0.13258171941287
C            2.92756539927044       -0.51179356334908       -1.26866445576547
C            4.35785268569107       -0.41081369137936       -0.83846415131510
C            5.07567899230447        0.75271797657213       -1.03921523895587
C            6.38803780008126        0.85709010842723       -0.60321857949929
C            6.99923154549816       -0.19891746720107        0.05103543835690
O            8.27451166040186       -0.20848619050611        0.51695893027292
C            9.07337929232092        0.93083234901405        0.31370866914186
C            6.26677512748209       -1.39107163829191        0.27114211599686
O            6.94592348856098       -2.37560157535272        0.91554487484315
C            6.30458368909132       -3.60632116021813        1.13671586540042
C            4.96083648800470       -1.47627431157937       -0.16952651673837
C           -0.04249633537428       -1.30226566395804       -0.58348038039397
C           -3.84311772059814        3.07072583553910        0.57430018711862
C           -4.47967652734788        2.75808906192872        1.92830988089280
C           -3.34047499780082        4.51505502849528        0.55895549822397
H           -4.65894704025056        0.93036892021517       -1.32602166230097
H           -6.85204407941505        0.25971807358841       -1.82077509527233
H           -7.18499493278868       -1.18792873232088       -2.80296539651996
H           -5.66983027161039       -0.28629717357947       -3.04646378433066
H           -4.92305715635917       -3.71299199790022        2.41727004106840
H           -5.34173893998575       -4.96585168282602        1.22213592983010
H           -3.65661668567431       -4.40779627245767        1.36450303115143
H           -3.09977712307379       -2.23103663440797        2.10248047437447
H           -2.15567980507310        0.00087795479764        2.00216583133643
H           -3.02747598084613        2.34194002275991       -1.90640827082200
H           -1.66694994399020        3.22790654839649       -1.22564179503506
H           -1.77239514682242        0.21707069008749       -1.63885006006812
H           -0.98174936319724        1.37445451181298       -2.72243001248974
H           -0.68677784268467        1.59874637079975        0.66589060943773
H            0.63991758939192        1.99930735775221       -0.92805475367236
H            2.13583738144704       -0.65630209679493        0.74694249986921
H            2.29937664781807        0.99851393159675        0.13561793813178
H            2.75273714634846        0.10783155456383       -2.14994153636067
H            2.67189059714791       -1.54309697538404       -1.51216521372554
H            4.62229937692998        1.58789766882093       -1.55206413644974
H            6.92865135673205        1.77128886313174       -0.78836907011858
H            8.65647246523473        1.81039204732121        0.81539422865202
H            9.20377033955599        1.14707832394632       -0.75167188645292
H           10.03911826029708        0.68895493982531        0.75363715174188
H            7.04251431299669       -4.23281523561940        1.63478711092744
H            5.42886276662089       -3.49567499512753        1.78550141944310
H            6.00343616804028       -4.08048744122149        0.19651810336379
H            4.39284379386423       -2.38036561014920       -0.01216344796699
H           -0.19417418998221       -1.62823066394922       -1.61647734843934
H           -1.01685430410883       -1.23864098345108       -0.09089349765881
H            0.56078595573589       -2.04442649708517       -0.06860848488589
H           -4.61927179223642        2.97438788155887       -0.19165083471579
H           -3.74401922209966        2.85068166928893        2.72018628540585
H           -4.88424855636770        1.74955554234981        1.94576054289075
H           -5.29173669586185        3.45403300591668        2.12488706967851
H           -2.54025293610537        4.66717532675071        1.26428685945464
H           -3.00033800083545        4.88161488638772       -0.41193579294920
H           -4.15564803802452        5.15386819743621        0.87497003192931
H           -0.58315639280708        2.81658532737667        2.67930517198027
72
 energy: -1.923470639076 xtb: 6.6.1 (8d0f1dd)
N           -1.45667766233018        2.90706313384338        2.11244874094321
C           -1.54638799837711        2.08886333560800        1.12510713517551
C           -2.72904032150074        1.99939189462749        0.20894986464842
C           -3.32871224820533        0.60376515634165        0.30522723045442
C           -4.32357672636592        0.20969005464495       -0.59107268975345
C           -4.89570423007254       -1.04554017313731       -0.53427693957479
O           -5.87854063357971       -1.50523087369939       -1.36706425558313
C           -6.41939710705333       -0.62573504342136       -2.31840177398057
C           -4.46911085433939       -1.96272053349529        0.44866914877974
O           -5.09452257564939       -3.17919097617747        0.42717255545798
C           -4.77964118021614       -4.10679650175462        1.43172190699784
C           -3.48922816566815       -1.57395682733334        1.33956043330943
C           -2.92663403096606       -0.30411369462073        1.26785134693921
C           -2.20085332605432        2.23127607737610       -1.22936411317971
C           -1.21368314822664        1.15776582663722       -1.70170725710190
C            0.00632477829342        1.15711200440641       -0.84223588807597
N            0.64949036624431       -0.04441950133781       -0.45574187644313
C            2.01850135134509       -0.00624582584771       -0.09556024916121
C            2.92841996812610       -0.46538430619753       -1.25444103782638
C            4.35593084939104       -0.37596920477145       -0.84548461723372
C            5.07880787270635        0.78664828875638       -1.03672988195741
C            6.39197193640809        0.88116470907071       -0.60353163217157
C            6.99672444917887       -0.18353518322108        0.03990085680808
O            8.28484506348418       -0.20544098370097        0.50341792159856
C            9.07938033889558        0.93302875327795        0.30534429106324
C            6.26079559434495       -1.36875405320487        0.25534187697980
O            6.94108288169469       -2.36773951528170        0.89429227427133
C            6.28630443305551       -3.59010345931268        1.11075264297458
C            4.95537090506857       -1.44657333289283       -0.18243804519267
C           -0.02550040333726       -1.30167579634895       -0.52413533579582
C           -3.79826831972204        3.05737992240960        0.55631895195622
C           -4.45626336752919        2.73342068499347        1.90285483351153
C           -3.25877141865816        4.49428596882167        0.57954761058293
H           -4.65837615035933        0.90622229339755       -1.34234536991752
H           -6.85557667925532        0.26247611867885       -1.84807411087037
H           -7.20482214866518       -1.19071697323729       -2.81901726822500
H           -5.67239312523740       -0.31467733922196       -3.05701604006319
H           -4.98797195623775       -3.70881810859226        2.43102452890691
H           -5.42389751598314       -4.96439150751831        1.24306693150487
H           -3.73190973634082       -4.42278945168764        1.37971879983356
H           -3.14862073725208       -2.25148886045639        2.10788514217699
H           -2.17381935985641       -0.03224657083205        1.99078539155952
H           -3.03546061378234        2.27403849208570       -1.93291331347300
H           -1.69427595535442        3.19686087185864       -1.25968101605494
H           -1.71094354454831        0.18880348424882       -1.66444514649599
H           -0.95228140017270        1.37094008200602       -2.74737194136282
H           -0.70517069218901        1.50641133899955        0.74400939654731
H            0.65084524994045        2.01372606443456       -0.92240168943205
H            2.17734121375369       -0.64762378720114        0.77836640008250
H            2.28931867994585        1.01728195437529        0.17965720918942
H            2.72980473501635        0.17632767410072       -2.11547192207764
H            2.65802630350911       -1.48942769879596       -1.51499998511355
H            4.62334808683939        1.62822702096704       -1.53715813050282
H            6.93734418839849        1.79439399554018       -0.78376376010807
H            8.66489015123064        1.81117558375173        0.81299701912504
H            9.20838183121008        1.15837408141070       -0.75926175400220
H           10.04610488686495        0.68705419144087        0.74178552417486
H            7.02029645392241       -4.22662641986979        1.60328580055951
H            5.41316873614365       -3.47499914820935        1.76257533876081
H            5.97524108005684       -4.05811834164450        0.16993648152992
H            4.37810341237866       -2.34519610669876       -0.02491455177150
H           -0.14850984614027       -1.64598832501371       -1.55965195820130
H           -1.01622179759711       -1.23434067776811       -0.06430913150430
H            0.56058319308492       -2.03691667921449        0.02232581588821
H           -4.57869421428264        3.00694816950184       -0.21053994650012
H           -3.71814757268233        2.76500375145049        2.69916297883161
H           -4.90128786116291        1.73967574829158        1.88833537112341
H           -5.24322833094791        3.45225893829287        2.12589134754601
H           -2.43685423842995        4.62384200339728        1.24737009884530
H           -2.94435822715626        4.97974109205528       -0.36810562005057
H           -4.04892461219655        5.11068305540195        0.99280676303900
H           -0.55259015997385        2.87146173729143        2.58064881953993
72
 energy: 9.238260530949 xtb: 6.6.1 (8d0f1dd)
N           -1.44224177651751        2.99006372942780        2.03531306867020
C           -1.53372006706622        2.04884724386425        1.11206974697106
C           -2.71740967401698        1.96444101845983        0.18929864646185
C           -3.33490722429264        0.57715745287499        0.28959122104904
C           -4.33598049847195        0.18669751144133       -0.60059167121086
C           -4.92344542684005       -1.06004416069971       -0.53504682837225
O           -5.91985739156055       -1.51630116411809       -1.36983815746464
C           -6.43390349463985       -0.63701056204401       -2.33279488947517
C           -4.51372129303889       -1.97299960904885        0.45181118985330
O           -5.16283199246195       -3.18937186032661        0.43849435770957
C           -4.85419832835295       -4.10989281112137        1.44648758424364
C           -3.53202041123913       -1.59290121149359        1.34261587913588
C           -2.95235655980136       -0.33190716881167        1.26165983259163
C           -2.20467328626047        2.18837058292124       -1.25621229148353
C           -1.18179872310375        1.14487433566581       -1.72099249998052
C            0.00330450477368        1.19011444106018       -0.81115081145628
N            0.66366614053294       -0.05396242000406       -0.37814754148915
C            2.02676300263734        0.01062754504866       -0.05798128269357
C            2.92771124264025       -0.41664693903668       -1.23998080611097
C            4.35292243569170       -0.33922089489557       -0.85053375780886
C            5.08174796510361        0.82167466236827       -1.03368411301750
C            6.39625981644610        0.90597679753819       -0.60431935709614
C            6.99396188918978       -0.16775936308798        0.02805968712807
O            8.29426621350205       -0.20187975402552        0.48883993594430
C            9.08517099485726        0.93529556105357        0.29664455016541
C            6.25454940871958       -1.34604155123583        0.23891251446437
O            6.93531425309446       -2.35938669140890        0.87200622246115
C            6.26733193192438       -3.57321833346433        1.08421532229136
C            4.94882861255296       -1.41588678183217       -0.19477350725662
C           -0.00918742049377       -1.29973714674116       -0.46360961600123
C           -3.75150745235929        3.04582431690226        0.53849965631449
C           -4.43178688085758        2.70862200397998        1.87672347185369
C           -3.17732461609169        4.47556257021810        0.59954114377035
H           -4.65851569715031        0.88163192049835       -1.35926469338873
H           -6.85957369114955        0.26494605022679       -1.87654385292537
H           -7.22497320469852       -1.19374810085105       -2.83539379597865
H           -5.67527365678998       -0.34439086944309       -3.06800343553033
H           -5.05512463043465       -3.70464601837108        2.44549483665270
H           -5.50850837357979       -4.96236049122627        1.26497518975678
H           -3.80965850543763       -4.43843931652243        1.39583996767864
H           -3.19919538606878       -2.27197496605348        2.11412681923584
H           -2.19314122086654       -0.06674207449360        1.98007243348298
H           -3.04350673285858        2.20270742784949       -1.96017400408465
H           -1.72444071611010        3.16765982529890       -1.29651633667778
H           -1.64883117270545        0.15933330794476       -1.68935774682296
H           -0.91674123792249        1.36700176090988       -2.76467721831184
H           -0.72303343506276        1.41134086448615        0.82890159996694
H            0.66125376725017        2.02687237835211       -0.90940720843344
H            2.22037721681426       -0.63732488685378        0.80896449587355
H            2.28048321402458        1.03765897209468        0.22607732033429
H            2.70691719005149        0.24717920590416       -2.08030497504886
H            2.64311115445188       -1.43329157721680       -1.51851155319622
H            4.62455365782971        1.66955115473061       -1.52210806026167
H            6.94618677189556        1.81809566650070       -0.77954550120440
H            8.67377324468430        1.81214831517739        0.81052799721588
H            9.21347719795353        1.17000352899042       -0.76700891058520
H           10.05290331597636        0.68506909496784        0.72954318248059
H            6.99727000051244       -4.21985507414784        1.57103636605197
H            5.39713312981451       -3.45365669087809        1.73953185765113
H            5.94642495247532       -4.03526683792414        0.14294737778836
H            4.36248141584026       -2.30916072762508       -0.03798669705865
H           -0.10041498621845       -1.66435979332010       -1.50057340167585
H           -1.01638001202099       -1.23009403896590       -0.03826937556511
H            0.55903248282112       -2.02755985060705        0.11603392717125
H           -4.53433517780367        3.03974100389620       -0.22943409352946
H           -3.69375466554118        2.67754676107865        2.67765563946613
H           -4.91861506352701        1.73139325927266        1.82865463588275
H           -5.19198251622720        3.44998725872490        2.12670101852961
H           -2.32829744513522        4.57992727986605        1.22411293007352
H           -2.89323430195691        5.07654875721829       -0.32217981988278
H           -3.93790979304197        5.06567316636369        1.11426155588847
H           -0.51696418741395        2.92016477679516        2.47116116127593
72
 energy: 26.754720133665 xtb: 6.6.1 (8d0f1dd)
N           -1.43074804013198        3.06286330221511        1.94665851746384
C           -1.51498122797966        2.01713380438870        1.09744668176377
C           -2.70482213838556        1.93156835106201        0.17163499316320
C           -3.33814246916295        0.55029558583967        0.27063002410938
C           -4.34765363182472        0.16379223504814       -0.61129631641743
C           -4.94979440088327       -1.07437556818476       -0.53538946301924
O           -5.96114209732843       -1.52649775713382       -1.37242031949165
C           -6.44740322787359       -0.64826159637642       -2.34618762151552
C           -4.55679674248106       -1.98228335602481        0.45471387198228
O           -5.22929024179237       -3.19958317593043        0.44990474746481
C           -4.92604198328292       -4.11220390638613        1.46015851634317
C           -3.57292714813142       -1.61206592896656        1.34603836239404
C           -2.97670323556195       -0.36043179457556        1.25459325382159
C           -2.20678054813049        2.14946460925455       -1.28135762630254
C           -1.15217247488127        1.12936547975361       -1.73090759348468
C           -0.00153386629139        1.22208771659773       -0.78714806888582
N            0.67184747205900       -0.06068289021516       -0.29924454463438
C            2.03128217776742        0.03116148714692       -0.02443723295002
C            2.92634362640740       -0.36900894120957       -1.22644270298567
C            4.34872793351317       -0.30289072921500       -0.85246062815301
C            5.08487941765968        0.85477326238218       -1.03047236670459
C            6.40147444756097        0.92969093565425       -0.60546936089532
C            6.99019948834362       -0.15271718896155        0.01615372514293
O            8.30288908050407       -0.19813141831687        0.47400949414055
C            9.08982295489603        0.93699719405628        0.28832517296958
C            6.24883185157311       -1.32355072995853        0.22261211969409
O            6.92958785348523       -2.35167404815051        0.85016583252770
C            6.24895942450012       -3.55632624215817        1.05852344156096
C            4.94164835708303       -1.38595759831383       -0.20581472895758
C            0.00451292391507       -1.29439656166023       -0.40649856034376
C           -3.70298425223142        3.03620360914283        0.52107639921992
C           -4.40769131855680        2.68529197475867        1.85136424583523
C           -3.10119711214486        4.45981270265375        0.61738321237570
H           -4.65962331567738        0.85775444432610       -1.37551068993066
H           -6.86363717915825        0.26679734502993       -1.90436171404360
H           -7.24405116657512       -1.19627319495692       -2.85131715080198
H           -5.67814990402164       -0.37350318073132       -3.07841645465995
H           -5.12003144782456       -3.70115689882057        2.45942173997573
H           -5.58978497626004       -4.96016296734445        1.28644546084647
H           -3.88472125476967       -4.45391773765409        1.41145788142297
H           -3.24822609281216       -2.29199068804229        2.12089535397775
H           -2.21272959240508       -0.10083313758945        1.97073856002739
H           -3.05086567853252        2.13160479742301       -1.98394811491229
H           -1.75634957929676        3.14302271009029       -1.33277460877164
H           -1.58812906174465        0.12793208483330       -1.71406369498244
H           -0.87790795295155        1.36355397977635       -2.77031125632428
H           -0.74431235762569        1.32202200477147        0.92865775295144
H            0.67380353840579        2.03404456468649       -0.89150309255749
H            2.26436420269535       -0.62600846418063        0.83485049254959
H            2.27288640712633        1.05842769081619        0.27282974077504
H            2.68525202692535        0.31577056911735       -2.04578563655984
H            2.62787202643252       -1.37854682635171       -1.52336256629337
H            4.62570922378999        1.70843755437819       -1.50766257140874
H            6.95474850970003        1.84096925079084       -0.77535325576432
H            8.68260601417217        1.81321783177099        0.80823745773176
H            9.21883730422914        1.18129814868873       -0.77425046359506
H           10.05905351834943        0.68338809123240        0.71757790411177
H            6.97463166495230       -4.21307660525243        1.53975262283872
H            5.38182209958235       -3.43310706188093        1.71766274099033
H            5.91898733620750       -4.01329922868475        0.11705424413223
H            4.34675964843852       -2.27417112202757       -0.05121767157938
H           -0.05228986897159       -1.68361214297000       -1.44282227984304
H           -1.01740018429119       -1.22662282423115       -0.01550088101328
H            0.55503420106981       -2.01583595529820        0.20694626262940
H           -4.48589964780503        3.07109189904047       -0.24730784723154
H           -3.67371473383056        2.59237971816333        2.65613595242157
H           -4.93620953974032        1.72625569856691        1.77005806243680
H           -5.13977282429943        3.44660464776950        2.12806413559907
H           -2.22238752132856        4.53771937672747        1.19498495085390
H           -2.84726745781983        5.17233210926211       -0.27143786684666
H           -3.82692588795584        5.01612924263183        1.23433860773999
H           -0.48228255172098        2.96119322998455        2.34743894833263
72
 energy: 44.244123847375 xtb: 6.6.1 (8d0f1dd)
N           -1.43670826305493        3.08950588202967        1.79807897104548
C           -1.46442991904391        2.02512326472030        1.09864853654053
C           -2.68865335724088        1.91257192515466        0.17344243011130
C           -3.33318513834856        0.52707216849284        0.24133087591477
C           -4.35878775371870        0.14511877335534       -0.62444046018397
C           -4.96738238797074       -1.08634329594946       -0.53286732922977
O           -5.99700035763671       -1.53072618198738       -1.37625477046856
C           -6.45400209663620       -0.65818498107214       -2.35334236206494
C           -4.58873686371755       -1.98488177779351        0.45591765081928
O           -5.27936823778368       -3.20930908603992        0.46045204878618
C           -4.97832930523842       -4.10988576773034        1.46612254371567
C           -3.60113864969532       -1.63039205697963        1.35240670466391
C           -2.99606995394245       -0.38887030140302        1.24783535681922
C           -2.19670257717716        2.13126324749328       -1.29444911346208
C           -1.13352773139602        1.09860131465219       -1.69919054655843
C           -0.00982888086450        1.23743555908153       -0.82166816972746
N            0.64685930122105       -0.04630555353583       -0.22820619079866
C            2.01587446989932        0.06710316224508       -0.01341450025017
C            2.92320131597118       -0.33453197774239       -1.21851807500991
C            4.34236611116048       -0.27335851542463       -0.84064421891850