      -----------------------------------------------------------      
     |                   =====================                   |     
     |                           x T B                           |     
     |                   =====================                   |     
     |                         S. Grimme                         |     
     |          Mulliken Center for Theoretical Chemistry        |     
     |                    University of Bonn                     |     
      -----------------------------------------------------------      

   * xtb version 6.6.1 (8d0f1dd) compiled by 'conda@1efc2f54142f' on 2023-08-01

   xtb is free software: you can redistribute it and/or modify it under
   the terms of the GNU Lesser General Public License as published by
   the Free Software Foundation, either version 3 of the License, or
   (at your option) any later version.
   
   xtb is distributed in the hope that it will be useful,
   but WITHOUT ANY WARRANTY; without even the implied warranty of
   MERCHANTABILITY or FITNESS FOR A PARTICULAR PURPOSE.  See the
   GNU Lesser General Public License for more details.
   
   Cite this work as:
   * C. Bannwarth, E. Caldeweyher, S. Ehlert, A. Hansen, P. Pracht,
     J. Seibert, S. Spicher, S. Grimme, WIREs Comput. Mol. Sci., 2020, 11,
     e01493. DOI: 10.1002/wcms.1493
   
   for GFN2-xTB:
   * C. Bannwarth, S. Ehlert and S. Grimme., J. Chem. Theory Comput., 2019,
     15, 1652-1671. DOI: 10.1021/acs.jctc.8b01176
   for GFN1-xTB:
   * S. Grimme, C. Bannwarth, P. Shushkov, J. Chem. Theory Comput., 2017,
     13, 1989-2009. DOI: 10.1021/acs.jctc.7b00118
   for GFN0-xTB:
   * P. Pracht, E. Caldeweyher, S. Ehlert, S. Grimme, ChemRxiv, 2019, preprint.
     DOI: 10.26434/chemrxiv.8326202.v1
   for GFN-FF:
   * S. Spicher and S. Grimme, Angew. Chem. Int. Ed., 2020, 59, 15665-15673.
     DOI: 10.1002/anie.202004239
   
   for ALPB and GBSA implicit solvation:
   * S. Ehlert, M. Stahn, S. Spicher, S. Grimme, J. Chem. Theory Comput.,
     2021, 17, 4250-4261. DOI: 10.1021/acs.jctc.1c00471
   
   for DFT-D4:
   * E. Caldeweyher, C. Bannwarth and S. Grimme, J. Chem. Phys., 2017,
     147, 034112. DOI: 10.1063/1.4993215
   * E. Caldeweyher, S. Ehlert, A. Hansen, H. Neugebauer, S. Spicher,
     C. Bannwarth and S. Grimme, J. Chem. Phys., 2019, 150, 154122.
     DOI: 10.1063/1.5090222
   * E. Caldeweyher, J.-M. Mewes, S. Ehlert and S. Grimme, Phys. Chem. Chem. Phys.
     2020, 22, 8499-8512. DOI: 10.1039/D0CP00502A
   
   for sTDA-xTB:
   * S. Grimme and C. Bannwarth, J. Chem. Phys., 2016, 145, 054103.
     DOI: 10.1063/1.4959605
   
   in the mass-spec context:
   * V. Asgeirsson, C. Bauer and S. Grimme, Chem. Sci., 2017, 8, 4879.
     DOI: 10.1039/c7sc00601b
   * J. Koopman and S. Grimme, ACS Omega 2019, 4, 12, 15120-15133.
     DOI: 10.1021/acsomega.9b02011
   
   for metadynamics refer to:
   * S. Grimme, J. Chem. Theory Comput., 2019, 155, 2847-2862
     DOI: 10.1021/acs.jctc.9b00143
   
   for SPH calculations refer to:
   * S. Spicher and S. Grimme, J. Chem. Theory Comput., 2021, 17, 1701-1714
     DOI: 10.1021/acs.jctc.0c01306
   
   with help from (in alphabetical order)
   P. Atkinson, C. Bannwarth, F. Bohle, G. Brandenburg, E. Caldeweyher
   M. Checinski, S. Dohm, S. Ehlert, S. Ehrlich, I. Gerasimov, C. Hölzer
   A. Katbashev, J. Koopman, C. Lavigne, S. Lehtola, F. März, M. Müller,
   F. Musil, H. Neugebauer, J. Pisarek, C. Plett, P. Pracht, F. Pultar,
   J. Seibert, P. Shushkov, S. Spicher, M. Stahn, M. Steiner, T. Strunk,
   J. Stückrath, T. Rose, and J. Unsleber
   
 * started run on 2024/06/05 at 19:57:54.681     

           -------------------------------------------------
          |                Calculation Setup                |
           -------------------------------------------------

          program call               : xtb struc.xyz --opt loose --input .xc1 --gfn2
          hostname                   : n-62-21-71
          coordinate file            : struc.xyz
          omp threads                :                     1

   ID    Z sym.   atoms
    1    6 C      1, 3, 5-7, 10, 11, 14
    2    7 N      2, 4, 9, 13
    3    8 O      8, 12
    4    1 H      15-25
constraining bond 3 17 to    5.1400000 Å, actual value:    3.3163079 Å

           -------------------------------------------------
          |                 G F N 2 - x T B                 |
           -------------------------------------------------

        Reference                      10.1021/acs.jctc.8b01176
      * Hamiltonian:
        H0-scaling (s, p, d)           1.850000    2.230000    2.230000
        zeta-weighting                 0.500000
      * Dispersion:
        s8                             2.700000
        a1                             0.520000
        a2                             5.000000
        s9                             5.000000
      * Repulsion:
        kExp                           1.500000    1.000000
        rExp                           1.000000
      * Coulomb:
        alpha                          2.000000
        third order                    shell-resolved
        anisotropic                    true
        a3                             3.000000
        a5                             4.000000
        cn-shift                       1.200000
        cn-exp                         4.000000
        max-rad                        5.000000


          ...................................................
          :                      SETUP                      :
          :.................................................:
          :  # basis functions                  67          :
          :  # atomic orbitals                  67          :
          :  # shells                           39          :
          :  # electrons                        74          :
          :  max. iterations                   250          :
          :  Hamiltonian                  GFN2-xTB          :
          :  restarted?                      false          :
          :  GBSA solvation                  false          :
          :  PC potential                    false          :
          :  electronic temp.         2500.0000000     K    :
          :  accuracy                    1.0000000          :
          :  -> integral cutoff          0.2500000E+02      :
          :  -> integral neglect         0.1000000E-07      :
          :  -> SCF convergence          0.1000000E-05 Eh   :
          :  -> wf. convergence          0.1000000E-03 e    :
          :  Broyden damping             0.4000000          :
          ...................................................

 iter      E             dE          RMSdq      gap      omega  full diag
   1    -42.5894761 -0.425895E+02  0.446E+00    3.52       0.0  T
   2    -42.7660496 -0.176573E+00  0.253E+00    3.37       1.0  T
   3    -42.7736311 -0.758158E-02  0.147E+00    3.27       1.0  T
   4    -42.7712089  0.242228E-02  0.522E-01    3.20       1.0  T
   5    -42.7763755 -0.516665E-02  0.115E-01    3.24       1.0  T
   6    -42.7764786 -0.103096E-03  0.599E-02    3.22       1.0  T
   7    -42.7764977 -0.190557E-04  0.265E-02    3.24       1.0  T
   8    -42.7765022 -0.458752E-05  0.826E-03    3.24       2.4  T
   9    -42.7765028 -0.511866E-06  0.435E-03    3.24       4.6  T
  10    -42.7765028 -0.741126E-07  0.110E-03    3.24      18.2  T
  11    -42.7765028 -0.615289E-08  0.514E-04    3.24      38.9  T
  12    -42.7765028 -0.131732E-08  0.162E-04    3.24     123.6  T

   *** convergence criteria satisfied after 12 iterations ***

         #    Occupation            Energy/Eh            Energy/eV
      -------------------------------------------------------------
         1        2.0000           -0.9218663             -25.0853
       ...           ...                  ...                  ...
        31        2.0000           -0.6245728             -16.9955
        32        2.0000           -0.6188521             -16.8398
        33        2.0000           -0.5946289             -16.1807
        34        1.9999           -0.5766508             -15.6915
        35        1.9996           -0.5616187             -15.2824
        36        1.9994           -0.5584494             -15.1962
        37        1.9993           -0.5575820             -15.1726 (HOMO)
        38        0.0017           -0.4385664             -11.9340 (LUMO)
        39        0.0000           -0.4059970             -11.0477
        40        0.0000           -0.3720875             -10.1250
        41                         -0.2883077              -7.8453
        42                         -0.2064013              -5.6165
       ...                                ...                  ...
        67                          0.5638960              15.3444
      -------------------------------------------------------------
                  HL-Gap            0.1190156 Eh            3.2386 eV
             Fermi-level           -0.4943591 Eh          -13.4522 eV

 SCC (total)                   0 d,  0 h,  0 min,  0.037 sec
 SCC setup                      ...        0 min,  0.000 sec (  0.652%)
 Dispersion                     ...        0 min,  0.000 sec (  0.809%)
 classical contributions        ...        0 min,  0.000 sec (  0.211%)
 integral evaluation            ...        0 min,  0.005 sec ( 14.407%)
 iterations                     ...        0 min,  0.018 sec ( 48.203%)
 molecular gradient             ...        0 min,  0.013 sec ( 35.246%)
 printout                       ...        0 min,  0.000 sec (  0.437%)

         :::::::::::::::::::::::::::::::::::::::::::::::::::::
         ::                     SUMMARY                     ::
         :::::::::::::::::::::::::::::::::::::::::::::::::::::
         :: total energy             -36.306866440373 Eh    ::
         :: gradient norm              4.873833640091 Eh/a0 ::
         :: HOMO-LUMO gap              3.238579380711 eV    ::
         ::.................................................::
         :: SCC energy               -42.776502838750 Eh    ::
         :: -> isotropic ES            0.143394945287 Eh    ::
         :: -> anisotropic ES         -0.005231236584 Eh    ::
         :: -> anisotropic XC          0.012162721064 Eh    ::
         :: -> dispersion             -0.022660936007 Eh    ::
         :: repulsion energy           0.531105277918 Eh    ::
         :: add. restraining           5.938416961450 Eh    ::
         :: total charge               1.000000000000 e     ::
         :::::::::::::::::::::::::::::::::::::::::::::::::::::

      ----------------------------------------------------------- 
     |                   =====================                   |
     |                        A N C O P T                        |
     |                   =====================                   |
     |               Approximate Normal Coordinate               |
     |                Rational Function Optimizer                |
      ----------------------------------------------------------- 

          ...................................................
          :                      SETUP                      :
          :.................................................:
          :   optimization level             loose          :
          :   max. optcycles                   200          :
          :   ANC micro-cycles                  20          :
          :   degrees of freedom                69          :
          :.................................................:
          :   RF solver                   davidson          :
          :   write xtbopt.log                true          :
          :   linear?                        false          :
          :   energy convergence         0.5000000E-04 Eh   :
          :   grad. convergence          0.4000000E-02 Eh/α :
          :   maxmium RF displ.          1.0000000          :
          :   Hlow (freq-cutoff)         0.1000000E-01      :
          :   Hmax (freq-cutoff)         5.0000000          :
          :   S6 in model hess.         20.0000000          :
          ...................................................

generating ANC from model Hessian ...
Using Lindh-Hessian (1995)
 Shifting diagonal of input Hessian by   0.94605563680787852     
 Lowest  eigenvalues of input Hessian
    0.010000    0.257276    0.000000    0.000000    0.000000    0.000000
    0.000000    0.000000    0.950196    0.951639    0.952846    0.956825
    0.957364    0.959958    0.963205    0.964452    0.969921    0.983211
 Highest eigenvalues
    3.026498    3.082700    3.202626    3.354071    3.487819    4.175317


........................................................................
.............................. CYCLE    1 ..............................
........................................................................

 iter      E             dE          RMSdq      gap      omega  full diag
   1    -42.7765028 -0.427765E+02  0.540E-05    3.24       0.0  T
   2    -42.7765028 -0.643041E-11  0.289E-05    3.24     692.1  T
   3    -42.7765028  0.881073E-12  0.138E-05    3.24    1448.6  T
     SCC iter.                  ...        0 min,  0.005 sec
     gradient                   ...        0 min,  0.013 sec
 * total energy  :   -36.3068664 Eh     change       -0.6633627E-10 Eh
   gradient norm :     4.8738344 Eh/α   predicted     0.0000000E+00 (-100.00%)
   displ. norm   :     0.7008814 α      lambda       -0.3382431E+01
   maximum displ.:     0.5683911 α      in ANC's #69, #60, #50, ...

........................................................................
.............................. CYCLE    2 ..............................
........................................................................

 iter      E             dE          RMSdq      gap      omega  full diag
   1    -42.6967890 -0.426968E+02  0.113E+00    2.67       0.0  T
   2    -42.7047688 -0.797982E-02  0.637E-01    2.68       1.0  T
   3    -42.7060355 -0.126665E-02  0.377E-01    2.73       1.0  T
   4    -42.7062444 -0.208868E-03  0.223E-01    2.68       1.0  T
   5    -42.7070879 -0.843576E-03  0.280E-02    2.70       1.0  T
   6    -42.7070998 -0.118932E-04  0.126E-02    2.70       1.6  T
   7    -42.7071004 -0.522477E-06  0.367E-03    2.70       5.5  T
   8    -42.7071006 -0.215380E-06  0.128E-03    2.70      15.6  T
   9    -42.7071006 -0.155885E-07  0.540E-04    2.70      37.0  T
  10    -42.7071006 -0.134644E-08  0.229E-04    2.70      87.5  T
     SCC iter.                  ...        0 min,  0.014 sec
     gradient                   ...        0 min,  0.013 sec
 * total energy  :   -39.1415572 Eh     change       -0.2834691E+01 Eh
   gradient norm :     3.3082641 Eh/α   predicted    -0.2522057E+01 ( -11.03%)
   displ. norm   :     0.7226008 α      lambda       -0.2375312E+01
   maximum displ.:     0.5840967 α      in ANC's #69, #60, #50, ...

........................................................................
.............................. CYCLE    3 ..............................
........................................................................

 iter      E             dE          RMSdq      gap      omega  full diag
   1    -42.5844074 -0.425844E+02  0.100E+00    2.28       0.0  T
   2    -42.5843415  0.659227E-04  0.785E-01    2.21       1.0  T
   3    -42.5921446 -0.780306E-02  0.435E-01    2.27       1.0  T
   4    -42.5943407 -0.219607E-02  0.210E-01    2.23       1.0  T
   5    -42.5949307 -0.590020E-03  0.410E-02    2.23       1.0  T
   6    -42.5949647 -0.339831E-04  0.107E-02    2.24       1.9  T
   7    -42.5949652 -0.496145E-06  0.377E-03    2.24       5.3  T
   8    -42.5949653 -0.102530E-06  0.160E-03    2.24      12.5  T
   9    -42.5949653 -0.337388E-07  0.626E-04    2.24      31.9  T
  10    -42.5949653 -0.322641E-08  0.261E-04    2.24      76.7  T
     SCC iter.                  ...        0 min,  0.014 sec
     gradient                   ...        0 min,  0.013 sec
 * total energy  :   -40.9922031 Eh     change       -0.1850646E+01 Eh
   gradient norm :     1.8589883 Eh/α   predicted    -0.1808143E+01 (  -2.30%)
   displ. norm   :     0.6084540 α      lambda       -0.1121959E+01
   maximum displ.:     0.4803912 α      in ANC's #69, #60, #50, ...

........................................................................
.............................. CYCLE    4 ..............................
........................................................................

 iter      E             dE          RMSdq      gap      omega  full diag
   1    -42.4819444 -0.424819E+02  0.660E-01    1.76       0.0  T
   2    -42.4641923  0.177521E-01  0.963E-01    1.93       1.0  T
   3    -42.4897809 -0.255886E-01  0.325E-01    1.84       1.0  T
   4    -42.4901248 -0.343886E-03  0.176E-01    1.83       1.0  T
   5    -42.4903239 -0.199098E-03  0.614E-02    1.83       1.0  T
   6    -42.4904142 -0.903013E-04  0.149E-02    1.84       1.3  T
   7    -42.4904138  0.336552E-06  0.115E-02    1.84       1.7  T
   8    -42.4904157 -0.188722E-05  0.312E-03    1.84       6.4  T
   9    -42.4904160 -0.251317E-06  0.772E-04    1.84      25.9  T
  10    -42.4904160  0.114184E-09  0.430E-04    1.84      46.5  T
     SCC iter.                  ...        0 min,  0.014 sec
     gradient                   ...        0 min,  0.013 sec
 * total energy  :   -41.7738249 Eh     change       -0.7816218E+00 Eh
   gradient norm :     0.7328002 Eh/α   predicted    -0.7686637E+00 (  -1.66%)
   displ. norm   :     0.3616505 α      lambda       -0.2603866E+00
   maximum displ.:     0.2780112 α      in ANC's #69, #40, #60, ...

........................................................................
.............................. CYCLE    5 ..............................
........................................................................

 iter      E             dE          RMSdq      gap      omega  full diag
   1    -42.4154853 -0.424155E+02  0.813E-01    1.16       0.0  T
   2    -42.2597204  0.155765E+00  0.226E+00    1.71       1.0  T
   3    -42.4357957 -0.176075E+00  0.392E-01    1.30       1.0  T
   4    -42.4395222 -0.372656E-02  0.129E-01    1.25       1.0  T
   5    -42.4395903 -0.681051E-04  0.583E-02    1.26       1.0  T
   6    -42.4396423 -0.519469E-04  0.206E-02    1.26       1.0  T
   7    -42.4396496 -0.730999E-05  0.119E-02    1.26       1.7  T
   8    -42.4396509 -0.127543E-05  0.448E-03    1.26       4.5  T
   9    -42.4396511 -0.208873E-06  0.164E-03    1.26      12.2  T
  10    -42.4396511 -0.232481E-07  0.889E-04    1.26      22.5  T
  11    -42.4396511 -0.125818E-07  0.506E-04    1.26      39.5  T
     SCC iter.                  ...        0 min,  0.015 sec
     gradient                   ...        0 min,  0.013 sec
 * total energy  :   -41.9237983 Eh     change       -0.1499734E+00 Eh
   gradient norm :     0.1431134 Eh/α   predicted    -0.1472234E+00 (  -1.83%)
   displ. norm   :     0.1151232 α      lambda       -0.1526445E-01
   maximum displ.:     0.0721596 α      in ANC's #40, #69, #1, ...

........................................................................
.............................. CYCLE    6 ..............................
........................................................................

 iter      E             dE          RMSdq      gap      omega  full diag
   1    -42.4370930 -0.424371E+02  0.282E-01    1.13       0.0  T
   2    -42.4139876  0.231053E-01  0.855E-01    1.26       1.0  T
   3    -42.4394745 -0.254869E-01  0.763E-02    1.15       1.0  T
   4    -42.4394135  0.610142E-04  0.709E-02    1.16       1.0  T
   5    -42.4395210 -0.107473E-03  0.140E-02    1.16       1.4  T
   6    -42.4395231 -0.210619E-05  0.869E-03    1.15       2.3  T
   7    -42.4395240 -0.893153E-06  0.528E-03    1.15       3.8  T
   8    -42.4395246 -0.637395E-06  0.130E-03    1.15      15.4  T
   9    -42.4395247 -0.253766E-07  0.413E-04    1.15      48.4  T
  10    -42.4395247 -0.404131E-08  0.124E-04    1.15     161.5  T
     SCC iter.                  ...        0 min,  0.014 sec
     gradient                   ...        0 min,  0.013 sec
 * total energy  :   -41.9350761 Eh     change       -0.1127787E-01 Eh
   gradient norm :     0.1036062 Eh/α   predicted    -0.7733425E-02 ( -31.43%)
   displ. norm   :     0.1926311 α      lambda       -0.1651338E-01
   maximum displ.:     0.1319167 α      in ANC's #40, #2, #28, ...

........................................................................
.............................. CYCLE    7 ..............................
........................................................................

 iter      E             dE          RMSdq      gap      omega  full diag
   1    -42.4455997 -0.424456E+02  0.423E-01    1.04       0.0  T
   2    -42.4038535  0.417462E-01  0.115E+00    1.18       1.0  T
   3    -42.4499052 -0.460518E-01  0.151E-01    1.04       1.0  T
   4    -42.4498526  0.526317E-04  0.135E-01    1.07       1.0  T
   5    -42.4502402 -0.387634E-03  0.325E-02    1.06       1.0  T
   6    -42.4502641 -0.238261E-04  0.102E-02    1.06       2.0  T
   7    -42.4502652 -0.116770E-05  0.615E-03    1.06       3.3  T
   8    -42.4502655 -0.305144E-06  0.319E-03    1.06       6.3  T
   9    -42.4502658 -0.256456E-06  0.503E-04    1.06      39.8  T
  10    -42.4502658 -0.199462E-08  0.193E-04    1.06     103.6  T
     SCC iter.                  ...        0 min,  0.033 sec
     gradient                   ...        0 min,  0.026 sec
 * total energy  :   -41.9474390 Eh     change       -0.1236287E-01 Eh
   gradient norm :     0.1136636 Eh/α   predicted    -0.8563340E-02 ( -30.73%)
   displ. norm   :     0.2598602 α      lambda       -0.1599950E-01
   maximum displ.:     0.1703467 α      in ANC's #40, #2, #28, ...

........................................................................
.............................. CYCLE    8 ..............................
........................................................................

 iter      E             dE          RMSdq      gap      omega  full diag
   1    -42.4606711 -0.424607E+02  0.485E-01    0.96       0.0  T
   2    -42.4213491  0.393221E-01  0.113E+00    1.07       1.0  T
   3    -42.4636334 -0.422843E-01  0.278E-01    0.94       1.0  T
   4    -42.4649905 -0.135709E-02  0.171E-01    0.98       1.0  T
   5    -42.4655455 -0.554961E-03  0.466E-02    0.98       1.0  T
   6    -42.4656019 -0.564155E-04  0.129E-02    0.97       1.5  T
   7    -42.4656049 -0.300937E-05  0.646E-03    0.97       3.1  T
   8    -42.4656049 -0.282468E-07  0.385E-03    0.97       5.2  T
   9    -42.4656053 -0.371903E-06  0.584E-04    0.97      34.2  T
  10    -42.4656053 -0.424543E-08  0.256E-04    0.97      78.1  T
     SCC iter.                  ...        0 min,  0.025 sec
     gradient                   ...        0 min,  0.026 sec
 * total energy  :   -41.9585719 Eh     change       -0.1113294E-01 Eh
   gradient norm :     0.0966499 Eh/α   predicted    -0.8540687E-02 ( -23.28%)
   displ. norm   :     0.1873764 α      lambda       -0.7851334E-02
   maximum displ.:     0.1109466 α      in ANC's #40, #2, #12, ...

........................................................................
.............................. CYCLE    9 ..............................
........................................................................

 iter      E             dE          RMSdq      gap      omega  full diag
   1    -42.4736585 -0.424737E+02  0.270E-01    0.93       0.0  T
   2    -42.4711432  0.251534E-02  0.331E-01    0.94       1.0  T
   3    -42.4717169 -0.573766E-03  0.289E-01    0.91       1.0  T
   4    -42.4739492 -0.223229E-02  0.133E-01    0.94       1.0  T
   5    -42.4743883 -0.439029E-03  0.283E-02    0.94       1.0  T
   6    -42.4744128 -0.245256E-04  0.846E-03    0.93       2.4  T
   7    -42.4744143 -0.151192E-05  0.380E-03    0.93       5.3  T
   8    -42.4744144 -0.146482E-06  0.143E-03    0.93      13.9  T
   9    -42.4744145 -0.274199E-07  0.329E-04    0.93      60.7  T
  10    -42.4744145 -0.123070E-08  0.114E-04    0.93     174.9  T
     SCC iter.                  ...        0 min,  0.027 sec
     gradient                   ...        0 min,  0.026 sec
 * total energy  :   -41.9638892 Eh     change       -0.5317282E-02 Eh
   gradient norm :     0.0597251 Eh/α   predicted    -0.4063809E-02 ( -23.57%)
   displ. norm   :     0.1318542 α      lambda       -0.3633606E-02
   maximum displ.:     0.0563734 α      in ANC's #1, #40, #2, ...

........................................................................
.............................. CYCLE   10 ..............................
........................................................................

 iter      E             dE          RMSdq      gap      omega  full diag
   1    -42.4787090 -0.424787E+02  0.178E-01    0.93       0.0  T
   2    -42.4747882  0.392078E-02  0.356E-01    0.90       1.0  T
   3    -42.4787996 -0.401142E-02  0.105E-01    0.92       1.0  T
   4    -42.4789630 -0.163379E-03  0.506E-02    0.93       1.0  T
   5    -42.4790411 -0.780577E-04  0.705E-03    0.92       2.8  T
   6    -42.4790419 -0.867748E-06  0.322E-03    0.92       6.2  T
   7    -42.4790420 -0.985241E-07  0.181E-03    0.92      11.0  T
   8    -42.4790421 -0.367201E-07  0.867E-04    0.92      23.1  T
   9    -42.4790421 -0.169022E-07  0.267E-04    0.92      75.0  T
     SCC iter.                  ...        0 min,  0.025 sec
     gradient                   ...        0 min,  0.026 sec
 * total energy  :   -41.9665213 Eh     change       -0.2632087E-02 Eh
   gradient norm :     0.0452541 Eh/α   predicted    -0.1848400E-02 ( -29.77%)
   displ. norm   :     0.1487642 α      lambda       -0.3035630E-02
   maximum displ.:     0.0890638 α      in ANC's #1, #42, #16, ...

........................................................................
.............................. CYCLE   11 ..............................
........................................................................

 iter      E             dE          RMSdq      gap      omega  full diag
   1    -42.4806472 -0.424806E+02  0.211E-01    0.94       0.0  T
   2    -42.4693070  0.113402E-01  0.594E-01    0.90       1.0  T
   3    -42.4814502 -0.121432E-01  0.849E-02    0.92       1.0  T
   4    -42.4814333  0.168346E-04  0.656E-02    0.93       1.0  T
   5    -42.4815434 -0.110108E-03  0.190E-02    0.92       1.1  T
   6    -42.4815531 -0.962630E-05  0.332E-03    0.92       6.0  T
   7    -42.4815531 -0.519538E-07  0.184E-03    0.92      10.9  T
   8    -42.4815531 -0.784770E-08  0.689E-04    0.92      29.0  T
   9    -42.4815531 -0.108626E-07  0.203E-04    0.92      98.4  T
     SCC iter.                  ...        0 min,  0.025 sec
     gradient                   ...        0 min,  0.026 sec
 * total energy  :   -41.9687244 Eh     change       -0.2203087E-02 Eh
   gradient norm :     0.0434872 Eh/α   predicted    -0.1551672E-02 ( -29.57%)
   displ. norm   :     0.1616867 α      lambda       -0.2416403E-02
   maximum displ.:     0.1141632 α      in ANC's #1, #16, #42, ...

........................................................................
.............................. CYCLE   12 ..............................
........................................................................

 iter      E             dE          RMSdq      gap      omega  full diag
   1    -42.4806645 -0.424807E+02  0.184E-01    0.94       0.0  T
   2    -42.4720120  0.865249E-02  0.522E-01    0.91       1.0  T
   3    -42.4813030 -0.929102E-02  0.813E-02    0.93       1.0  T
   4    -42.4813436 -0.405406E-04  0.567E-02    0.93       1.0  T
   5    -42.4814037 -0.601409E-04  0.222E-02    0.93       1.0  T
   6    -42.4814184 -0.147248E-04  0.327E-03    0.93       6.1  T
   7    -42.4814184 -0.154911E-07  0.202E-03    0.93       9.9  T
   8    -42.4814185 -0.384615E-07  0.860E-04    0.93      23.3  T
   9    -42.4814185 -0.156553E-07  0.235E-04    0.93      84.9  T
     SCC iter.                  ...        0 min,  0.026 sec
     gradient                   ...        0 min,  0.026 sec
 * total energy  :   -41.9704195 Eh     change       -0.1695133E-02 Eh
   gradient norm :     0.0356792 Eh/α   predicted    -0.1240338E-02 ( -26.83%)
   displ. norm   :     0.0920758 α      lambda       -0.1536849E-02
   maximum displ.:     0.0423905 α      in ANC's #16, #12, #42, ...

........................................................................
.............................. CYCLE   13 ..............................
........................................................................

 iter      E             dE          RMSdq      gap      omega  full diag
   1    -42.4809026 -0.424809E+02  0.115E-01    0.96       0.0  T
   2    -42.4773167  0.358593E-02  0.337E-01    0.93       1.0  T
   3    -42.4811925 -0.387585E-02  0.528E-02    0.95       1.0  T
   4    -42.4812202 -0.276931E-04  0.324E-02    0.95       1.0  T
   5    -42.4812301 -0.987933E-05  0.152E-02    0.95       1.3  T
   6    -42.4812375 -0.742117E-05  0.236E-03    0.95       8.5  T
   7    -42.4812376 -0.473969E-07  0.127E-03    0.95      15.8  T
   8    -42.4812376 -0.198647E-07  0.532E-04    0.95      37.6  T
   9    -42.4812376 -0.475386E-08  0.140E-04    0.95     142.5  T
     SCC iter.                  ...        0 min,  0.026 sec
     gradient                   ...        0 min,  0.026 sec
 * total energy  :   -41.9715648 Eh     change       -0.1145303E-02 Eh
   gradient norm :     0.0309972 Eh/α   predicted    -0.7750373E-03 ( -32.33%)
   displ. norm   :     0.1411844 α      lambda       -0.1736045E-02
   maximum displ.:     0.0827061 α      in ANC's #1, #16, #12, ...

........................................................................
.............................. CYCLE   14 ..............................
........................................................................

 iter      E             dE          RMSdq      gap      omega  full diag
   1    -42.4815642 -0.424816E+02  0.121E-01    0.98       0.0  T
   2    -42.4794287  0.213557E-02  0.265E-01    0.96       1.0  T
   3    -42.4816813 -0.225267E-02  0.726E-02    0.98       1.0  T
   4    -42.4817223 -0.409601E-04  0.450E-02    0.97       1.0  T
   5    -42.4817730 -0.506971E-04  0.109E-02    0.97       1.8  T
   6    -42.4817767 -0.368708E-05  0.290E-03    0.97       6.9  T
   7    -42.4817767 -0.433316E-07  0.127E-03    0.97      15.7  T
   8    -42.4817767 -0.270585E-07  0.530E-04    0.97      37.7  T
   9    -42.4817768 -0.691818E-08  0.127E-04    0.97     158.0  T
     SCC iter.                  ...        0 min,  0.026 sec
     gradient                   ...        0 min,  0.026 sec
 * total energy  :   -41.9728501 Eh     change       -0.1285309E-02 Eh
   gradient norm :     0.0312055 Eh/α   predicted    -0.8857865E-03 ( -31.08%)
   displ. norm   :     0.1630349 α      lambda       -0.1770086E-02
   maximum displ.:     0.0912766 α      in ANC's #1, #16, #12, ...

........................................................................
.............................. CYCLE   15 ..............................
........................................................................

 iter      E             dE          RMSdq      gap      omega  full diag
   1    -42.4817411 -0.424817E+02  0.124E-01    0.99       0.0  T
   2    -42.4817391  0.195602E-05  0.737E-02    0.99       1.0  T
   3    -42.4813443  0.394798E-03  0.109E-01    1.00       1.0  T
   4    -42.4816388 -0.294474E-03  0.587E-02    0.99       1.0  T
   5    -42.4817569 -0.118158E-03  0.614E-03    0.99       3.3  T
   6    -42.4817575 -0.567898E-06  0.309E-03    0.99       6.5  T
   7    -42.4817576 -0.945917E-07  0.978E-04    0.99      20.4  T
   8    -42.4817576 -0.106536E-07  0.431E-04    0.99      46.4  T
     SCC iter.                  ...        0 min,  0.024 sec
     gradient                   ...        0 min,  0.013 sec
 * total energy  :   -41.9741535 Eh     change       -0.1303371E-02 Eh
   gradient norm :     0.0374181 Eh/α   predicted    -0.9085947E-03 ( -30.29%)
   displ. norm   :     0.1604844 α      lambda       -0.1853598E-02
   maximum displ.:     0.0742188 α      in ANC's #16, #37, #12, ...

........................................................................
.............................. CYCLE   16 ..............................
........................................................................

 iter      E             dE          RMSdq      gap      omega  full diag
   1    -42.4819835 -0.424820E+02  0.143E-01    1.01       0.0  T
   2    -42.4816107  0.372763E-03  0.138E-01    1.02       1.0  T
   3    -42.4811654  0.445265E-03  0.162E-01    1.00       1.0  T
   4    -42.4819844 -0.818938E-03  0.400E-02    1.02       1.0  T
   5    -42.4820363 -0.519600E-04  0.451E-03    1.01       4.4  T
   6    -42.4820364 -0.560981E-07  0.358E-03    1.01       5.6  T
   7    -42.4820366 -0.190969E-06  0.101E-03    1.01      19.8  T
   8    -42.4820366 -0.141894E-07  0.392E-04    1.01      51.1  T
   9    -42.4820366 -0.172821E-08  0.218E-04    1.01      91.7  T
     SCC iter.                  ...        0 min,  0.012 sec
     gradient                   ...        0 min,  0.013 sec
 * total energy  :   -41.9755551 Eh     change       -0.1401540E-02 Eh
   gradient norm :     0.0430020 Eh/α   predicted    -0.9508134E-03 ( -32.16%)
   displ. norm   :     0.1843344 α      lambda       -0.2285724E-02
   maximum displ.:     0.0850066 α      in ANC's #16, #37, #12, ...

........................................................................
.............................. CYCLE   17 ..............................
........................................................................

 iter      E             dE          RMSdq      gap      omega  full diag
   1    -42.4833406 -0.424833E+02  0.166E-01    1.03       0.0  T
   2    -42.4830472  0.293468E-03  0.140E-01    1.02       1.0  T
   3    -42.4821082  0.938955E-03  0.196E-01    1.01       1.0  T
   4    -42.4832664 -0.115818E-02  0.674E-02    1.04       1.0  T
   5    -42.4834112 -0.144768E-03  0.810E-03    1.02       2.5  T
   6    -42.4834130 -0.186724E-05  0.438E-03    1.02       4.6  T
   7    -42.4834133 -0.301782E-06  0.142E-03    1.02      14.1  T
   8    -42.4834134 -0.210568E-07  0.558E-04    1.02      35.9  T
   9    -42.4834134 -0.634196E-08  0.250E-04    1.02      80.0  T
     SCC iter.                  ...        0 min,  0.012 sec
     gradient                   ...        0 min,  0.013 sec
 * total energy  :   -41.9771706 Eh     change       -0.1615547E-02 Eh
   gradient norm :     0.0400758 Eh/α   predicted    -0.1181708E-02 ( -26.85%)
   displ. norm   :     0.1296915 α      lambda       -0.1637006E-02
   maximum displ.:     0.0525999 α      in ANC's #16, #37, #12, ...

........................................................................
.............................. CYCLE   18 ..............................
........................................................................

 iter      E             dE          RMSdq      gap      omega  full diag
   1    -42.4854503 -0.424855E+02  0.111E-01    1.03       0.0  T
   2    -42.4854614 -0.110826E-04  0.650E-02    1.02       1.0  T
   3    -42.4853794  0.819344E-04  0.626E-02    1.03       1.0  T
   4    -42.4852602  0.119233E-03  0.773E-02    1.03       1.0  T
   5    -42.4854801 -0.219862E-03  0.485E-03    1.02       4.1  T
   6    -42.4854804 -0.393273E-06  0.307E-03    1.02       6.5  T
   7    -42.4854806 -0.187845E-06  0.935E-04    1.02      21.4  T
   8    -42.4854806 -0.617426E-08  0.245E-04    1.02      81.7  T
     SCC iter.                  ...        0 min,  0.011 sec
     gradient                   ...        0 min,  0.013 sec
 * total energy  :   -41.9783362 Eh     change       -0.1165596E-02 Eh
   gradient norm :     0.0320689 Eh/α   predicted    -0.8327880E-03 ( -28.55%)
   displ. norm   :     0.1033418 α      lambda       -0.1308188E-02
   maximum displ.:     0.0431526 α      in ANC's #1, #22, #16, ...

........................................................................
.............................. CYCLE   19 ..............................
........................................................................

 iter      E             dE          RMSdq      gap      omega  full diag
   1    -42.4879116 -0.424879E+02  0.937E-02    1.02       0.0  T
   2    -42.4877979  0.113697E-03  0.811E-02    1.00       1.0  T
   3    -42.4875518  0.246082E-03  0.110E-01    1.02       1.0  T
   4    -42.4879216 -0.369837E-03  0.332E-02    1.02       1.0  T
   5    -42.4879477 -0.260379E-04  0.404E-03    1.01       4.9  T
   6    -42.4879479 -0.271554E-06  0.219E-03    1.01       9.1  T
   7    -42.4879480 -0.403010E-07  0.112E-03    1.01      17.9  T
   8    -42.4879480 -0.176834E-07  0.466E-04    1.01      42.9  T
   9    -42.4879480 -0.445349E-08  0.139E-04    1.01     143.8  T
     SCC iter.                  ...        0 min,  0.012 sec
     gradient                   ...        0 min,  0.013 sec
 * total energy  :   -41.9792916 Eh     change       -0.9553807E-03 Eh
   gradient norm :     0.0296240 Eh/α   predicted    -0.6612088E-03 ( -30.79%)
   displ. norm   :     0.1141687 α      lambda       -0.1291534E-02
   maximum displ.:     0.0387689 α      in ANC's #22, #16, #1, ...

........................................................................
.............................. CYCLE   20 ..............................
........................................................................

 iter      E             dE          RMSdq      gap      omega  full diag
   1    -42.4898793 -0.424899E+02  0.117E-01    1.00       0.0  T
   2    -42.4896077  0.271653E-03  0.117E-01    0.98       1.0  T
   3    -42.4894750  0.132622E-03  0.120E-01    1.00       1.0  T
   4    -42.4898841 -0.409069E-03  0.452E-02    0.99       1.0  T
   5    -42.4899412 -0.570479E-04  0.639E-03    0.99       3.1  T
   6    -42.4899421 -0.909785E-06  0.200E-03    0.99      10.0  T
   7    -42.4899421 -0.368281E-07  0.104E-03    0.99      19.2  T
   8    -42.4899421 -0.303584E-08  0.548E-04    0.99      36.5  T
   9    -42.4899421 -0.828929E-08  0.159E-04    0.99     125.7  T
     SCC iter.                  ...        0 min,  0.012 sec
     gradient                   ...        0 min,  0.013 sec
 * total energy  :   -41.9802631 Eh     change       -0.9714855E-03 Eh
   gradient norm :     0.0323828 Eh/α   predicted    -0.6542050E-03 ( -32.66%)
   displ. norm   :     0.1521790 α      lambda       -0.1570260E-02
   maximum displ.:     0.0559520 α      in ANC's #16, #22, #28, ...
 * RMSD in coord.:     0.6100584 α      energy gain  -0.5673397E+01 Eh

generating ANC from model Hessian ...
Using Lindh-Hessian (1995)
 Shifting diagonal of input Hessian by    1.8865038913598038E-002
 Lowest  eigenvalues of input Hessian
    0.010000    0.013929    0.000000    0.000000    0.000000    0.000000
    0.000000    0.000000    0.019772    0.021811    0.023080    0.024195
    0.027957    0.028804    0.029215    0.029960    0.031826    0.033634
 Highest eigenvalues
    2.066633    2.122641    2.297192    2.391838    2.487421    2.564975


........................................................................
.............................. CYCLE   21 ..............................
........................................................................

 iter      E             dE          RMSdq      gap      omega  full diag
   1    -42.4908598 -0.424909E+02  0.157E-01    0.96       0.0  T
   2    -42.4908776 -0.178350E-04  0.938E-02    0.95       1.0  T
   3    -42.4906189  0.258794E-03  0.102E-01    0.96       1.0  T
   4    -42.4905031  0.115754E-03  0.105E-01    0.95       1.0  T
   5    -42.4909176 -0.414459E-03  0.860E-03    0.95       2.3  T
   6    -42.4909190 -0.146252E-05  0.263E-03    0.95       7.6  T
   7    -42.4909191 -0.120443E-06  0.114E-03    0.95      17.5  T
   8    -42.4909191 -0.492732E-08  0.524E-04    0.95      38.1  T
   9    -42.4909192 -0.697455E-08  0.194E-04    0.95     102.9  T
     SCC iter.                  ...        0 min,  0.012 sec
     gradient                   ...        0 min,  0.013 sec
 * total energy  :   -41.9814478 Eh     change       -0.1184721E-02 Eh
   gradient norm :     0.0375999 Eh/α   predicted     0.0000000E+00 (-100.00%)
   displ. norm   :     0.3204966 α      lambda       -0.4387697E-02
   maximum displ.:     0.2698989 α      in ANC's #2, #7, #34, ...

........................................................................
.............................. CYCLE   22 ..............................
........................................................................

 iter      E             dE          RMSdq      gap      omega  full diag
   1    -42.4898383 -0.424898E+02  0.322E-01    0.88       0.0  T
   2    -42.4714588  0.183795E-01  0.729E-01    0.98       1.0  T
   3    -42.4914004 -0.199416E-01  0.157E-01    0.90       1.0  T
   4    -42.4914294 -0.289833E-04  0.874E-02    0.90       1.0  T
   5    -42.4916809 -0.251545E-03  0.152E-02    0.91       1.3  T
   6    -42.4916852 -0.424860E-05  0.771E-03    0.91       2.6  T
   7    -42.4916866 -0.139321E-05  0.233E-03    0.91       8.6  T
   8    -42.4916866 -0.432074E-07  0.727E-04    0.91      27.5  T
   9    -42.4916866 -0.854738E-08  0.348E-04    0.91      57.4  T
     SCC iter.                  ...        0 min,  0.012 sec
     gradient                   ...        0 min,  0.013 sec
 * total energy  :   -41.9842494 Eh     change       -0.2801576E-02 Eh
   gradient norm :     0.0195249 Eh/α   predicted    -0.2421786E-02 ( -13.56%)
   displ. norm   :     0.3382504 α      lambda       -0.3558207E-02
   maximum displ.:     0.2149002 α      in ANC's #13, #2, #16, ...

........................................................................
.............................. CYCLE   23 ..............................
........................................................................

 iter      E             dE          RMSdq      gap      omega  full diag
   1    -42.4893039 -0.424893E+02  0.417E-01    0.70       0.0  T
   2    -42.4403012  0.490027E-01  0.117E+00    0.91       1.0  T
   3    -42.4935816 -0.532804E-01  0.158E-01    0.76       1.0  T
   4    -42.4934482  0.133399E-03  0.106E-01    0.73       1.0  T
   5    -42.4937246 -0.276362E-03  0.285E-02    0.76       1.0  T
   6    -42.4937489 -0.242972E-04  0.129E-02    0.76       1.5  T
   7    -42.4937537 -0.487246E-05  0.370E-03    0.76       5.4  T
   8    -42.4937539 -0.128712E-06  0.114E-03    0.76      17.6  T
   9    -42.4937539 -0.280076E-07  0.421E-04    0.76      47.5  T
  10    -42.4937539 -0.126361E-08  0.205E-04    0.76      97.5  T
     SCC iter.                  ...        0 min,  0.014 sec
     gradient                   ...        0 min,  0.013 sec
 * total energy  :   -41.9876393 Eh     change       -0.3389937E-02 Eh
   gradient norm :     0.0327156 Eh/α   predicted    -0.1982657E-02 ( -41.51%)
   displ. norm   :     0.9270823 α      lambda       -0.1062261E-01
   maximum displ.:     0.6126165 α      in ANC's #13, #16, #34, ...

........................................................................
.............................. CYCLE   24 ..............................
........................................................................

 iter      E             dE          RMSdq      gap      omega  full diag
   1    -42.4606620 -0.424607E+02  0.120E+00    0.37       0.0  T
   2    -42.0884536  0.372208E+00  0.317E+00    1.16       1.0  T
   3    -42.4886817 -0.400228E+00  0.561E-01    0.47       1.0  T
   4    -42.4914334 -0.275175E-02  0.391E-01    0.40       1.0  T
   5    -42.4927826 -0.134913E-02  0.200E-01    0.46       1.0  T
   6    -42.4944065 -0.162392E-02  0.543E-02    0.45       1.0  T
   7    -42.4944946 -0.880748E-04  0.170E-02    0.45       1.2  T
   8    -42.4944969 -0.233869E-05  0.581E-03    0.45       3.4  T
   9    -42.4944971 -0.149348E-06  0.329E-03    0.45       6.1  T
  10    -42.4944972 -0.106098E-06  0.123E-03    0.45      16.2  T
  11    -42.4944972 -0.439489E-07  0.256E-04    0.45      78.1  T
  12    -42.4944972  0.370093E-09  0.190E-04    0.45     105.4  T
     SCC iter.                  ...        0 min,  0.016 sec
     gradient                   ...        0 min,  0.013 sec
 * total energy  :   -41.9972305 Eh     change       -0.9591188E-02 Eh
   gradient norm :     0.0940070 Eh/α   predicted    -0.9876274E-02 (   2.97%)
   displ. norm   :     0.7348690 α      lambda       -0.1173538E-01
   maximum displ.:     0.4524040 α      in ANC's #13, #29, #16, ...

........................................................................
.............................. CYCLE   25 ..............................
........................................................................

 iter      E             dE          RMSdq      gap      omega  full diag
   1    -42.4864843 -0.424865E+02  0.914E-01    0.32       0.0  T
   2    -42.2999516  0.186533E+00  0.226E+00    0.58       1.0  T
   3    -42.4768343 -0.176883E+00  0.797E-01    0.30       1.0  T
   4    -42.4957594 -0.189251E-01  0.441E-01    0.30       1.0  T
   5    -42.4997772 -0.401779E-02  0.890E-02    0.29       1.0  T
   6    -42.4998313 -0.541532E-04  0.477E-02    0.30       1.0  T
   7    -42.4998344 -0.303371E-05  0.299E-02    0.30       1.0  T
   8    -42.4998543 -0.198994E-04  0.930E-03    0.30       2.2  T
   9    -42.4998548 -0.509053E-06  0.562E-03    0.30       3.6  T
  10    -42.4998556 -0.798926E-06  0.532E-04    0.30      37.6  T
  11    -42.4998556 -0.139458E-09  0.405E-04    0.30      49.4  T
     SCC iter.                  ...        0 min,  0.015 sec
     gradient                   ...        0 min,  0.013 sec
 * total energy  :   -42.0053129 Eh     change       -0.8082380E-02 Eh
   gradient norm :     0.1287488 Eh/α   predicted    -0.9036457E-02 (  11.80%)
   displ. norm   :     0.3757629 α      lambda       -0.1814127E-01
   maximum displ.:     0.1996703 α      in ANC's #29, #13, #37, ...

........................................................................
.............................. CYCLE   26 ..............................
........................................................................

 iter      E             dE          RMSdq      gap      omega  full diag
   1    -42.5125241 -0.425125E+02  0.485E-01    0.25       0.0  T
   2    -42.4878204  0.247037E-01  0.835E-01    0.22       1.0  T
   3    -42.5007750 -0.129546E-01  0.619E-01    0.23       1.0  T
   4    -42.5127813 -0.120063E-01  0.277E-01    0.25       1.0  T
   5    -42.5145020 -0.172078E-02  0.417E-02    0.23       1.0  T
   6    -42.5145127 -0.106663E-04  0.299E-02    0.23       1.0  T
   7    -42.5145225 -0.977614E-05  0.162E-02    0.23       1.2  T
   8    -42.5145273 -0.482247E-05  0.300E-03    0.23       6.7  T
   9    -42.5145275 -0.199329E-06  0.127E-03    0.23      15.8  T
  10    -42.5145275 -0.287813E-07  0.393E-04    0.23      50.8  T
  11    -42.5145275 -0.335417E-08  0.852E-05    0.23     234.6  T
     SCC iter.                  ...        0 min,  0.015 sec
     gradient                   ...        0 min,  0.013 sec
 * total energy  :   -42.0201713 Eh     change       -0.1485842E-01 Eh
   gradient norm :     0.1117746 Eh/α   predicted    -0.1035139E-01 ( -30.33%)
   displ. norm   :     0.5179379 α      lambda       -0.3080424E-01
   maximum displ.:     0.2384757 α      in ANC's #13, #2, #16, ...

........................................................................
.............................. CYCLE   27 ..............................
........................................................................

 iter      E             dE          RMSdq      gap      omega  full diag
   1    -42.5356683 -0.425357E+02  0.507E-01    0.26       0.0  T
   2    -42.5319161  0.375220E-02  0.417E-01    0.23       1.0  T
   3    -42.5060522  0.258638E-01  0.884E-01    0.18       1.0  T
   4    -42.5341312 -0.280790E-01  0.317E-01    0.30       1.0  T
   5    -42.5363705 -0.223930E-02  0.397E-02    0.24       1.0  T
   6    -42.5364053 -0.347869E-04  0.242E-02    0.25       1.0  T
   7    -42.5364169 -0.115394E-04  0.109E-02    0.24       1.8  T
   8    -42.5364191 -0.218473E-05  0.244E-03    0.24       8.2  T
   9    -42.5364192 -0.114669E-06  0.896E-04    0.24      22.3  T
  10    -42.5364192 -0.746626E-08  0.428E-04    0.24      46.8  T
     SCC iter.                  ...        0 min,  0.014 sec
     gradient                   ...        0 min,  0.013 sec
 * total energy  :   -42.0358160 Eh     change       -0.1564467E-01 Eh
   gradient norm :     0.0912869 Eh/α   predicted    -0.1953389E-01 (  24.86%)
   displ. norm   :     0.4712054 α      lambda       -0.1698991E-01
   maximum displ.:     0.2410076 α      in ANC's #13, #2, #1, ...

........................................................................
.............................. CYCLE   28 ..............................
........................................................................

 iter      E             dE          RMSdq      gap      omega  full diag
   1    -42.5289806 -0.425290E+02  0.388E-01    0.24       0.0  T
   2    -42.5235441  0.543656E-02  0.434E-01    0.22       1.0  T
   3    -42.5188965  0.464753E-02  0.524E-01    0.24       1.0  T
   4    -42.5293799 -0.104834E-01  0.760E-02    0.23       1.0  T
   5    -42.5294097 -0.297903E-04  0.469E-02    0.25       1.0  T
   6    -42.5294647 -0.550453E-04  0.162E-02    0.24       1.2  T
   7    -42.5294608  0.394729E-05  0.146E-02    0.24       1.4  T
   8    -42.5294651 -0.430381E-05  0.272E-03    0.24       7.4  T
   9    -42.5294652 -0.122166E-06  0.107E-03    0.24      18.6  T
  10    -42.5294652 -0.850079E-08  0.350E-04    0.24      57.1  T
  11    -42.5294652 -0.141902E-08  0.115E-04    0.24     173.9  T
     SCC iter.                  ...        0 min,  0.015 sec
     gradient                   ...        0 min,  0.013 sec
 * total energy  :   -42.0438470 Eh     change       -0.8031090E-02 Eh
   gradient norm :     0.0667886 Eh/α   predicted    -0.1038121E-01 (  29.26%)
   displ. norm   :     0.4372927 α      lambda       -0.1225302E-01
   maximum displ.:     0.2381767 α      in ANC's #2, #13, #1, ...

........................................................................
.............................. CYCLE   29 ..............................
........................................................................

 iter      E             dE          RMSdq      gap      omega  full diag
   1    -42.5439731 -0.425440E+02  0.492E-01    0.18       0.0  T
   2    -42.4886158  0.553574E-01  0.120E+00    0.19       1.0  T
   3    -42.5472001 -0.585843E-01  0.249E-01    0.21       1.0  T
   4    -42.5480711 -0.871081E-03  0.100E-01    0.20       1.0  T
   5    -42.5481316 -0.604401E-04  0.671E-02    0.23       1.0  T
   6    -42.5482534 -0.121798E-03  0.189E-02    0.21       1.1  T
   7    -42.5482587 -0.535976E-05  0.959E-03    0.22       2.1  T
   8    -42.5482616 -0.289526E-05  0.215E-03    0.21       9.3  T
   9    -42.5482617 -0.389040E-07  0.758E-04    0.21      26.4  T
  10    -42.5482617 -0.422948E-08  0.311E-04    0.21      64.3  T
     SCC iter.                  ...        0 min,  0.014 sec
     gradient                   ...        0 min,  0.013 sec
 * total energy  :   -42.0484664 Eh     change       -0.4619392E-02 Eh
   gradient norm :     0.0470862 Eh/α   predicted    -0.7298055E-02 (  57.99%)
   displ. norm   :     0.4128205 α      lambda       -0.4795516E-02
   maximum displ.:     0.2434344 α      in ANC's #13, #2, #8, ...

........................................................................
.............................. CYCLE   30 ..............................
........................................................................

 iter      E             dE          RMSdq      gap      omega  full diag
   1    -42.5480945 -0.425481E+02  0.345E-01    0.29       0.0  T
   2    -42.5255616  0.225330E-01  0.787E-01    0.17       1.0  T
   3    -42.5476029 -0.220414E-01  0.246E-01    0.28       1.0  T
   4    -42.5486331 -0.103015E-02  0.120E-01    0.28       1.0  T
   5    -42.5491353 -0.502240E-03  0.202E-02    0.26       1.0  T
   6    -42.5491453 -0.100273E-04  0.101E-02    0.26       2.0  T
   7    -42.5491462 -0.856137E-06  0.413E-03    0.26       4.8  T
   8    -42.5491462 -0.569297E-07  0.206E-03    0.26       9.7  T
   9    -42.5491464 -0.112908E-06  0.505E-04    0.26      39.6  T
  10    -42.5491464 -0.130460E-08  0.150E-04    0.26     133.6  T
     SCC iter.                  ...        0 min,  0.014 sec
     gradient                   ...        0 min,  0.013 sec
 * total energy  :   -42.0491151 Eh     change       -0.6486816E-03 Eh
   gradient norm :     0.0537385 Eh/α   predicted    -0.2806391E-02 ( 332.63%)
   displ. norm   :     0.4332239 α      lambda       -0.1083689E-01
   maximum displ.:     0.2289958 α      in ANC's #2, #21, #17, ...

........................................................................
.............................. CYCLE   31 ..............................
........................................................................

 iter      E             dE          RMSdq      gap      omega  full diag
   1    -42.5534573 -0.425535E+02  0.474E-01    0.19       0.0  T
   2    -42.5524581  0.999219E-03  0.323E-01    0.27       1.0  T
   3    -42.5531074 -0.649397E-03  0.290E-01    0.19       1.0  T
   4    -42.5502996  0.280782E-02  0.332E-01    0.23       1.0  T
   5    -42.5547393 -0.443966E-02  0.450E-02    0.22       1.0  T
   6    -42.5547604 -0.210750E-04  0.275E-02    0.22       1.0  T
   7    -42.5547773 -0.169497E-04  0.106E-02    0.22       1.9  T
   8    -42.5547797 -0.242364E-05  0.237E-03    0.22       8.4  T
   9    -42.5547798 -0.111381E-06  0.110E-03    0.22      18.2  T
  10    -42.5547799 -0.795823E-08  0.256E-04    0.22      78.2  T
  11    -42.5547799 -0.987214E-09  0.143E-04    0.22     139.9  T
     SCC iter.                  ...        0 min,  0.015 sec
     gradient                   ...        0 min,  0.013 sec
 * total energy  :   -42.0462536 Eh     change        0.2861482E-02 Eh
   gradient norm :     0.0752385 Eh/α   predicted    -0.6435412E-02 (-324.90%)
   displ. norm   :     0.3564996 α      lambda       -0.1262038E-01
   maximum displ.:     0.2518761 α      in ANC's #2, #8, #1, ...

........................................................................
.............................. CYCLE   32 ..............................
........................................................................

 iter      E             dE          RMSdq      gap      omega  full diag
   1    -42.5592863 -0.425593E+02  0.382E-01    0.26       0.0  T
   2    -42.5575501  0.173619E-02  0.301E-01    0.21       1.0  T
   3    -42.5441041  0.134460E-01  0.631E-01    0.20       1.0  T
   4    -42.5581692 -0.140652E-01  0.241E-01    0.28       1.0  T
   5    -42.5596884 -0.151911E-02  0.493E-02    0.23       1.0  T
   6    -42.5597770 -0.885918E-04  0.944E-03    0.24       2.1  T
   7    -42.5597767  0.213887E-06  0.557E-03    0.23       3.6  T
   8    -42.5597773 -0.557705E-06  0.147E-03    0.23      13.6  T
   9    -42.5597773 -0.372129E-07  0.587E-04    0.23      34.1  T
  10    -42.5597773 -0.366790E-08  0.163E-04    0.23     122.4  T
     SCC iter.                  ...        0 min,  0.014 sec
     gradient                   ...        0 min,  0.013 sec
 * total energy  :   -42.0518020 Eh     change       -0.5548408E-02 Eh
   gradient norm :     0.0194568 Eh/α   predicted    -0.7112171E-02 (  28.18%)
   displ. norm   :     0.3502906 α      lambda       -0.4639262E-02
   maximum displ.:     0.2568516 α      in ANC's #1, #7, #8, ...

........................................................................
.............................. CYCLE   33 ..............................
........................................................................

 iter      E             dE          RMSdq      gap      omega  full diag
   1    -42.5510804 -0.425511E+02  0.368E-01    0.25       0.0  T
   2    -42.5509006  0.179810E-03  0.224E-01    0.24       1.0  T
   3    -42.5374201  0.134805E-01  0.571E-01    0.27       1.0  T
   4    -42.5509442 -0.135241E-01  0.788E-02    0.25       1.0  T
   5    -42.5511550 -0.210782E-03  0.256E-02    0.24       1.0  T
   6    -42.5511715 -0.165306E-04  0.101E-02    0.25       2.0  T
   7    -42.5511726 -0.112683E-05  0.374E-03    0.25       5.3  T
   8    -42.5511729 -0.248388E-06  0.152E-03    0.25      13.2  T
   9    -42.5511729 -0.394081E-07  0.454E-04    0.25      44.1  T
  10    -42.5511729 -0.253944E-08  0.129E-04    0.25     155.0  T
     SCC iter.                  ...        0 min,  0.014 sec
     gradient                   ...        0 min,  0.013 sec
 * total energy  :   -42.0503357 Eh     change        0.1466340E-02 Eh
   gradient norm :     0.0456602 Eh/α   predicted    -0.2604264E-02 (-277.60%)
   displ. norm   :     0.2035120 α      lambda       -0.4766712E-02
   maximum displ.:     0.1605790 α      in ANC's #1, #7, #8, ...

........................................................................
.............................. CYCLE   34 ..............................
........................................................................

 iter      E             dE          RMSdq      gap      omega  full diag
   1    -42.5582849 -0.425583E+02  0.242E-01    0.25       0.0  T
   2    -42.5583031 -0.182245E-04  0.138E-01    0.25       1.0  T
   3    -42.5579802  0.322974E-03  0.940E-02    0.24       1.0  T
   4    -42.5580090 -0.288128E-04  0.870E-02    0.26       1.0  T
   5    -42.5583047 -0.295693E-03  0.159E-02    0.25       1.3  T
   6    -42.5583096 -0.497639E-05  0.919E-03    0.25       2.2  T
   7    -42.5583121 -0.248169E-05  0.171E-03    0.25      11.7  T
   8    -42.5583121 -0.609977E-08  0.105E-03    0.25      19.1  T
   9    -42.5583121 -0.238291E-07  0.252E-04    0.25      79.2  T
  10    -42.5583121 -0.863096E-09  0.969E-05    0.25     206.5  T
     SCC iter.                  ...        0 min,  0.014 sec
     gradient                   ...        0 min,  0.013 sec
 * total energy  :   -42.0529625 Eh     change       -0.2626791E-02 Eh
   gradient norm :     0.0100260 Eh/α   predicted    -0.2482068E-02 (  -5.51%)
   displ. norm   :     0.0791249 α      lambda       -0.2668080E-03
   maximum displ.:     0.0409384 α      in ANC's #1, #11, #5, ...

........................................................................
.............................. CYCLE   35 ..............................
........................................................................

 iter      E             dE          RMSdq      gap      omega  full diag
   1    -42.5590704 -0.425591E+02  0.629E-02    0.26       0.0  T
   2    -42.5588403  0.230038E-03  0.837E-02    0.25       1.0  T
   3    -42.5588933 -0.529945E-04  0.734E-02    0.26       1.0  T
   4    -42.5590808 -0.187476E-03  0.702E-03    0.25       2.8  T
   5    -42.5590823 -0.153311E-05  0.252E-03    0.26       7.9  T
   6    -42.5590825 -0.121062E-06  0.123E-03    0.26      16.3  T
   7    -42.5590825 -0.394515E-07  0.378E-04    0.26      52.9  T
   8    -42.5590825 -0.750049E-09  0.129E-04    0.26     154.8  T
     SCC iter.                  ...        0 min,  0.011 sec
     gradient                   ...        0 min,  0.013 sec
 * total energy  :   -42.0531829 Eh     change       -0.2203878E-03 Eh
   gradient norm :     0.0067394 Eh/α   predicted    -0.1342363E-03 ( -39.09%)
   displ. norm   :     0.2733435 α      lambda       -0.7144205E-03
   maximum displ.:     0.1309465 α      in ANC's #11, #1, #5, ...

........................................................................
.............................. CYCLE   36 ..............................
........................................................................

 iter      E             dE          RMSdq      gap      omega  full diag
   1    -42.5587451 -0.425587E+02  0.283E-01    0.31       0.0  T
   2    -42.5515601  0.718502E-02  0.455E-01    0.26       1.0  T
   3    -42.5567654 -0.520533E-02  0.266E-01    0.30       1.0  T
   4    -42.5588683 -0.210290E-02  0.795E-02    0.31       1.0  T
   5    -42.5591060 -0.237626E-03  0.132E-02    0.29       1.5  T
   6    -42.5591076 -0.164238E-05  0.104E-02    0.30       1.9  T
   7    -42.5591096 -0.194645E-05  0.395E-03    0.30       5.1  T
   8    -42.5591097 -0.147352E-06  0.997E-04    0.30      20.1  T
   9    -42.5591097 -0.254425E-07  0.289E-04    0.30      69.3  T
     SCC iter.                  ...        0 min,  0.013 sec
     gradient                   ...        0 min,  0.013 sec
 * total energy  :   -42.0536789 Eh     change       -0.4959844E-03 Eh
   gradient norm :     0.0137546 Eh/α   predicted    -0.3839032E-03 ( -22.60%)
   displ. norm   :     0.2351853 α      lambda       -0.5020321E-03
   maximum displ.:     0.1182179 α      in ANC's #11, #5, #6, ...

........................................................................
.............................. CYCLE   37 ..............................
........................................................................

 iter      E             dE          RMSdq      gap      omega  full diag
   1    -42.5597996 -0.425598E+02  0.212E-01    0.34       0.0  T
   2    -42.5567757  0.302394E-02  0.302E-01    0.30       1.0  T
   3    -42.5581381 -0.136240E-02  0.228E-01    0.33       1.0  T
   4    -42.5595560 -0.141788E-02  0.107E-01    0.34       1.0  T
   5    -42.5599974 -0.441432E-03  0.818E-03    0.33       2.4  T
   6    -42.5599974 -0.110111E-07  0.624E-03    0.33       3.2  T
   7    -42.5599981 -0.685818E-06  0.231E-03    0.33       8.6  T
   8    -42.5599981 -0.503404E-07  0.882E-04    0.33      22.7  T
   9    -42.5599982 -0.175544E-07  0.262E-04    0.33      76.2  T
     SCC iter.                  ...        0 min,  0.013 sec
     gradient                   ...        0 min,  0.013 sec
 * total energy  :   -42.0540161 Eh     change       -0.3372463E-03 Eh
   gradient norm :     0.0120151 Eh/α   predicted    -0.2649058E-03 ( -21.45%)
   displ. norm   :     0.1712174 α      lambda       -0.3210313E-03
   maximum displ.:     0.0923027 α      in ANC's #11, #6, #14, ...

........................................................................
.............................. CYCLE   38 ..............................
........................................................................

 iter      E             dE          RMSdq      gap      omega  full diag
   1    -42.5600856 -0.425601E+02  0.203E-01    0.39       0.0  T
   2    -42.5582310  0.185455E-02  0.248E-01    0.34       1.0  T
   3    -42.5581594  0.716148E-04  0.234E-01    0.37       1.0  T
   4    -42.5597515 -0.159203E-02  0.114E-01    0.38       1.0  T
   5    -42.5602519 -0.500478E-03  0.974E-03    0.37       2.1  T
   6    -42.5602531 -0.118736E-05  0.523E-03    0.37       3.8  T
   7    -42.5602534 -0.264226E-06  0.192E-03    0.37      10.4  T
   8    -42.5602534 -0.237436E-07  0.795E-04    0.37      25.2  T
   9    -42.5602534 -0.113867E-07  0.281E-04    0.37      71.2  T
     SCC iter.                  ...        0 min,  0.012 sec
     gradient                   ...        0 min,  0.013 sec
 * total energy  :   -42.0542245 Eh     change       -0.2083813E-03 Eh
   gradient norm :     0.0106907 Eh/α   predicted    -0.1652255E-03 ( -20.71%)
   displ. norm   :     0.1179457 α      lambda       -0.2684470E-03
   maximum displ.:     0.0535374 α      in ANC's #11, #15, #6, ...

........................................................................
.............................. CYCLE   39 ..............................
........................................................................

 iter      E             dE          RMSdq      gap      omega  full diag
   1    -42.5632521 -0.425633E+02  0.884E-02    0.39       0.0  T
   2    -42.5629158  0.336287E-03  0.107E-01    0.38       1.0  T
   3    -42.5629329 -0.171602E-04  0.102E-01    0.38       1.0  T
   4    -42.5632307 -0.297714E-03  0.561E-02    0.39       1.0  T
   5    -42.5633251 -0.944044E-04  0.655E-03    0.38       3.1  T
   6    -42.5633256 -0.569791E-06  0.227E-03    0.38       8.8  T
   7    -42.5633256  0.151013E-07  0.128E-03    0.38      15.7  T
   8    -42.5633257 -0.447205E-07  0.343E-04    0.38      58.3  T
   9    -42.5633257  0.693973E-09  0.230E-04    0.38      87.0  T
     SCC iter.                  ...        0 min,  0.012 sec
     gradient                   ...        0 min,  0.013 sec
 * total energy  :   -42.0543576 Eh     change       -0.1331527E-03 Eh
   gradient norm :     0.0089531 Eh/α   predicted    -0.1360901E-03 (   2.21%)
   displ. norm   :     0.1436727 α      lambda       -0.2014022E-03
   maximum displ.:     0.0773592 α      in ANC's #11, #1, #14, ...

........................................................................
.............................. CYCLE   40 ..............................
........................................................................

 iter      E             dE          RMSdq      gap      omega  full diag
   1    -42.5615338 -0.425615E+02  0.171E-01    0.43       0.0  T
   2    -42.5611261  0.407699E-03  0.148E-01    0.40       1.0  T
   3    -42.5596802  0.144590E-02  0.219E-01    0.43       1.0  T
   4    -42.5611036 -0.142336E-02  0.111E-01    0.42       1.0  T
   5    -42.5616100 -0.506449E-03  0.836E-03    0.41       2.4  T
   6    -42.5616115 -0.149907E-05  0.337E-03    0.42       5.9  T
   7    -42.5616116 -0.558139E-07  0.146E-03    0.42      13.7  T
   8    -42.5616116 -0.139671E-07  0.511E-04    0.42      39.1  T
   9    -42.5616116 -0.360892E-08  0.220E-04    0.42      90.9  T
     SCC iter.                  ...        0 min,  0.012 sec
     gradient                   ...        0 min,  0.013 sec
 * total energy  :   -42.0544694 Eh     change       -0.1117713E-03 Eh
   gradient norm :     0.0106923 Eh/α   predicted    -0.1027796E-03 (  -8.04%)
   displ. norm   :     0.0817428 α      lambda       -0.2174395E-03
   maximum displ.:     0.0331840 α      in ANC's #13, #9, #10, ...

........................................................................
.............................. CYCLE   41 ..............................
........................................................................

 iter      E             dE          RMSdq      gap      omega  full diag
   1    -42.5624261 -0.425624E+02  0.766E-02    0.43       0.0  T
   2    -42.5623155  0.110637E-03  0.654E-02    0.43       1.0  T
   3    -42.5617968  0.518650E-03  0.126E-01    0.42       1.0  T
   4    -42.5624167 -0.619853E-03  0.272E-02    0.43       1.0  T
   5    -42.5624397 -0.230395E-04  0.424E-03    0.43       4.7  T
   6    -42.5624401 -0.416723E-06  0.206E-03    0.43       9.7  T
   7    -42.5624401 -0.809909E-08  0.128E-03    0.43      15.6  T
   8    -42.5624402 -0.440739E-07  0.304E-04    0.43      65.8  T
   9    -42.5624402 -0.626237E-09  0.148E-04    0.43     134.9  T
     SCC iter.                  ...        0 min,  0.013 sec
     gradient                   ...        0 min,  0.013 sec
 * total energy  :   -42.0546019 Eh     change       -0.1324395E-03 Eh
   gradient norm :     0.0133908 Eh/α   predicted    -0.1094508E-03 ( -17.36%)
   displ. norm   :     0.1037966 α      lambda       -0.2133809E-03
   maximum displ.:     0.0470621 α      in ANC's #11, #4, #9, ...

........................................................................
.............................. CYCLE   42 ..............................
........................................................................

 iter      E             dE          RMSdq      gap      omega  full diag
   1    -42.5625927 -0.425626E+02  0.105E-01    0.44       0.0  T
   2    -42.5621284  0.464300E-03  0.114E-01    0.44       1.0  T
   3    -42.5616982  0.430231E-03  0.158E-01    0.43       1.0  T
   4    -42.5626154 -0.917288E-03  0.207E-02    0.44       1.0  T
   5    -42.5626276 -0.121152E-04  0.627E-03    0.44       3.2  T
   6    -42.5626287 -0.109022E-05  0.283E-03    0.44       7.1  T
   7    -42.5626287 -0.923313E-07  0.121E-03    0.44      16.6  T
   8    -42.5626288 -0.314681E-07  0.409E-04    0.44      48.9  T
   9    -42.5626288 -0.311780E-08  0.107E-04    0.44     186.8  T
     SCC iter.                  ...        0 min,  0.012 sec
     gradient                   ...        0 min,  0.013 sec
 * total energy  :   -42.0547646 Eh     change       -0.1627722E-03 Eh
   gradient norm :     0.0116868 Eh/α   predicted    -0.1078423E-03 ( -33.75%)
   displ. norm   :     0.1917506 α      lambda       -0.2883500E-03
   maximum displ.:     0.1028091 α      in ANC's #11, #6, #4, ...
 * RMSD in coord.:     0.7636700 α      energy gain  -0.7450157E-01 Eh

generating ANC from model Hessian ...
Using Lindh-Hessian (1995)
 Shifting diagonal of input Hessian by    8.7986163060527617E-003
 Lowest  eigenvalues of input Hessian
    0.000000    0.000000    0.000000    0.000000    0.000000    0.000000
    0.010000    0.012416    0.013257    0.014214    0.015087    0.017779
    0.018555    0.021092    0.022912    0.024537    0.025813    0.035612
 Highest eigenvalues
    2.033441    2.104066    2.203165    2.351948    2.546706    2.614728


........................................................................
.............................. CYCLE   43 ..............................
........................................................................

 iter      E             dE          RMSdq      gap      omega  full diag
   1    -42.5622209 -0.425622E+02  0.192E-01    0.47       0.0  T
   2    -42.5618842  0.336727E-03  0.133E-01    0.47       1.0  T
   3    -42.5564248  0.545932E-02  0.380E-01    0.42       1.0  T
   4    -42.5622086 -0.578375E-02  0.386E-02    0.47       1.0  T
   5    -42.5622555 -0.469400E-04  0.784E-03    0.46       2.5  T
   6    -42.5622562 -0.662733E-06  0.524E-03    0.46       3.8  T
   7    -42.5622567 -0.522784E-06  0.160E-03    0.46      12.5  T
   8    -42.5622568 -0.288832E-07  0.800E-04    0.46      25.0  T
   9    -42.5622568 -0.174179E-07  0.243E-04    0.46      82.2  T
     SCC iter.                  ...        0 min,  0.013 sec
     gradient                   ...        0 min,  0.013 sec
 * total energy  :   -42.0549656 Eh     change       -0.2009234E-03 Eh
   gradient norm :     0.0096593 Eh/α   predicted     0.0000000E+00 (-100.00%)
   displ. norm   :     0.0756618 α      lambda       -0.1945293E-03
   maximum displ.:     0.0298005 α      in ANC's #2, #8, #6, ...

........................................................................
.............................. CYCLE   44 ..............................
........................................................................

 iter      E             dE          RMSdq      gap      omega  full diag
   1    -42.5639527 -0.425640E+02  0.996E-02    0.46       0.0  T
   2    -42.5637916  0.161098E-03  0.771E-02    0.47       1.0  T
   3    -42.5626421  0.114951E-02  0.185E-01    0.45       1.0  T
   4    -42.5639658 -0.132375E-02  0.405E-03    0.46       4.9  T
   5    -42.5639658  0.122395E-07  0.245E-03    0.46       8.2  T
   6    -42.5639659 -0.637920E-07  0.153E-03    0.46      13.1  T
   7    -42.5639659 -0.648057E-07  0.586E-04    0.46      34.2  T
   8    -42.5639659 -0.700479E-08  0.149E-04    0.46     134.1  T
     SCC iter.                  ...        0 min,  0.011 sec
     gradient                   ...        0 min,  0.013 sec
 * total energy  :   -42.0551160 Eh     change       -0.1504913E-03 Eh
   gradient norm :     0.0052772 Eh/α   predicted    -0.9782211E-04 ( -35.00%)
   displ. norm   :     0.1301380 α      lambda       -0.1940545E-03
   maximum displ.:     0.0654735 α      in ANC's #8, #1, #2, ...

........................................................................
.............................. CYCLE   45 ..............................
........................................................................

 iter      E             dE          RMSdq      gap      omega  full diag
   1    -42.5651764 -0.425652E+02  0.170E-01    0.47       0.0  T
   2    -42.5647415  0.434900E-03  0.130E-01    0.47       1.0  T
   3    -42.5611289  0.361254E-02  0.323E-01    0.44       1.0  T
   4    -42.5651971 -0.406813E-02  0.210E-02    0.47       1.0  T
   5    -42.5652103 -0.132680E-04  0.777E-03    0.47       2.6  T
   6    -42.5652119 -0.157982E-05  0.403E-03    0.47       5.0  T
   7    -42.5652123 -0.375445E-06  0.122E-03    0.47      16.3  T
   8    -42.5652123 -0.215995E-07  0.310E-04    0.47      64.6  T
   9    -42.5652123 -0.143210E-08  0.123E-04    0.47     163.1  T
     SCC iter.                  ...        0 min,  0.012 sec
     gradient                   ...        0 min,  0.013 sec
 * total energy  :   -42.0552406 Eh     change       -0.1245662E-03 Eh
   gradient norm :     0.0026216 Eh/α   predicted    -0.9867148E-04 ( -20.79%)
   displ. norm   :     0.0900369 α      lambda       -0.6175011E-04
   maximum displ.:     0.0539615 α      in ANC's #8, #1, #10, ...

........................................................................
.............................. CYCLE   46 ..............................
........................................................................

 iter      E             dE          RMSdq      gap      omega  full diag
   1    -42.5653650 -0.425654E+02  0.101E-01    0.47       0.0  T
   2    -42.5652883  0.767118E-04  0.683E-02    0.47       1.0  T
   3    -42.5638000  0.148827E-02  0.197E-01    0.46       1.0  T
   4    -42.5653557 -0.155569E-02  0.229E-02    0.48       1.0  T
   5    -42.5653739 -0.181890E-04  0.362E-03    0.47       5.5  T
   6    -42.5653742 -0.321258E-06  0.144E-03    0.47      13.9  T
   7    -42.5653742 -0.336607E-07  0.491E-04    0.47      40.7  T
   8    -42.5653742 -0.287111E-08  0.129E-04    0.47     155.5  T
     SCC iter.                  ...        0 min,  0.011 sec
     gradient                   ...        0 min,  0.013 sec
 * total energy  :   -42.0552860 Eh     change       -0.4536273E-04 Eh
   gradient norm :     0.0023387 Eh/α   predicted    -0.3112564E-04 ( -31.38%)
   displ. norm   :     0.1095563 α      lambda       -0.5617760E-04
   maximum displ.:     0.0653714 α      in ANC's #8, #1, #10, ...

   *** GEOMETRY OPTIMIZATION CONVERGED AFTER 46 ITERATIONS ***

------------------------------------------------------------------------
 total energy gain   :        -5.7484195 Eh    -3607.1877 kcal/mol
 total RMSD          :         1.0642129 a0        0.5632 Å
 total power (kW/mol):      -328.0972482 (step)-8680.7310 (real)
------------------------------------------------------------------------

 ANCopt (total)                0 d,  0 h,  0 min,  1.739 sec
 optimizer setup                ...        0 min,  0.000 sec (  0.024%)
 model hessian                  ...        0 min,  0.019 sec (  1.100%)
 ANC generation                 ...        0 min,  0.003 sec (  0.152%)
 coordinate transformation      ...        0 min,  0.000 sec (  0.020%)
 single point calculation       ...        0 min,  1.704 sec ( 97.984%)
 optimization log               ...        0 min,  0.004 sec (  0.252%)
 hessian update                 ...        0 min,  0.001 sec (  0.032%)
 rational function              ...        0 min,  0.005 sec (  0.313%)

================
 final structure:
================
25
 xtb: 6.6.1 (8d0f1dd)
C            3.05649500930314        1.70204812246504       -0.12121260473229
N            2.35260377482167        0.49748090983368       -0.14199240793082
C            2.49683849249995       -2.43493289848893        0.45971237553549
N            1.34161811038117       -2.20639261683422       -0.06136401572966
C            0.55916003668039       -1.05294378937828        0.00014182892848
C            1.09984887181370        0.27083136062351        0.02756940281810
C            0.11684431098202        1.40979817852754        0.16986031267949
O            0.48553905907614        2.54163815324416        0.35590355728095
N           -1.20517494678421        1.08269326165512        0.00407485881053
C           -2.19813469990834        2.15376567346810        0.00700606234154
C           -1.71756238719003       -0.18593977908168       -0.08777712480150
O           -2.88850223507961       -0.41373624240493       -0.19201495808544
N           -0.77693164824161       -1.24562741308799       -0.02076689483672
C           -1.35143813142129       -2.57647022522283        0.04818687871437
H            3.47792627330859        1.82938870384129        0.88411026178499
H            3.89898942442193        1.60039634165642       -0.80948213084756
H            2.48805261936797        2.63755817467733       -0.33319582306385
H            2.98680731683541       -3.37249674665162        0.21855405932900
H           -1.67689153455723        3.10653713908063        0.03382995341829
H           -2.80894354719585        2.07727633377695       -0.89111385471217
H           -2.84480330141046        2.05607360880826        0.87805913711428
H           -0.95918668899155       -3.12584502001327        0.90379740207481
H           -1.18327286959856       -3.13450281762311       -0.87657113460970
H           -2.43015301559706       -2.45703121180575        0.16380915704034
H            0.84070322058369       -2.94132865946532       -0.58795268062102

 Bond Distances (Angstroems)
 ---------------------------
C1-N2=1.3953         C1-H15=1.0975        C1-H16=1.0926        C1-H17=1.1150        N2-C1=1.3953         N2-C6=1.2843         
C3-N4=1.2877         C3-H18=1.0850        N4-C3=1.2877         N4-C5=1.3952         N4-H25=1.0336        C5-N4=1.3952         
C5-C6=1.4302         C5-N13=1.3501        C6-N2=1.2843         C6-C5=1.4302         C6-C7=1.5112         C7-C6=1.5112         
C7-O8=1.2048         C7-N9=1.3719         O8-C7=1.2048         N9-C7=1.3719         N9-C10=1.4605        N9-C11=1.3713        
C10-N9=1.4605        C10-H19=1.0864       C10-H20=1.0888       C10-H21=1.0892       C11-N9=1.3713        C11-O12=1.1974       
C11-N13=1.4185       O12-C11=1.1974       N13-C5=1.3501        N13-C11=1.4185       N13-C14=1.4512       C14-N13=1.4512       
C14-H22=1.0898       C14-H23=1.0931       C14-H24=1.0914       H15-C1=1.0975        H16-C1=1.0926        H17-C1=1.1150        
H18-C3=1.0850        H19-C10=1.0864       H20-C10=1.0888       H21-C10=1.0892       H22-C14=1.0898       H23-C14=1.0931       
H24-C14=1.0914       H25-N4=1.0336        
 C  H  Rav=1.0929 sigma=0.0081  Rmin=1.0850  Rmax=1.1150    10
 C  C  Rav=1.4707 sigma=0.0405  Rmin=1.4302  Rmax=1.5112     2
 N  H  Rav=1.0336 sigma=0.0000  Rmin=1.0336  Rmax=1.0336     1
 N  C  Rav=1.3786 sigma=0.0567  Rmin=1.2843  Rmax=1.4605    10
 O  C  Rav=1.2011 sigma=0.0037  Rmin=1.1974  Rmax=1.2048     2

 selected bond angles (degree)
 --------------------
H15-C1-N2=107.91               H16-C1-N2=107.41               H16-C1-H15=106.96              H17-C1-N2=117.67               
H17-C1-H15=105.82              H17-C1-H16=110.57              C6-N2-C1=129.97                H18-C3-N4=117.94               
C5-N4-C3=129.20                H25-N4-C3=120.98               H25-N4-C5=109.79               C6-C5-N4=123.65                
N13-C5-N4=115.87               N13-C5-C6=120.43               C5-C6-N2=121.98                C7-C6-N2=120.92                
C7-C6-C5=116.97                O8-C7-C6=121.57                N9-C7-C6=115.83                N9-C7-O8=122.52                
C10-N9-C7=118.69               C11-N9-C7=126.07               C11-N9-C10=115.12              H19-C10-N9=108.48              
H20-C10-N9=109.16              H20-C10-H19=110.56             H21-C10-N9=109.84              H21-C10-H19=110.11             
H21-C10-H20=108.68             

 selected dihedral angles (degree)
 ---------------------------------
C6-N2-C1-H15= 96.02           C6-N2-C1-H16=211.03           C6-N2-C1-H17=336.50           C5-N4-C3-H18=185.62           
H25-N4-C3-H18=  8.06          C6-C5-N4-C3= 34.32            C6-C5-N4-H25=212.10           N13-C5-N4-C3=211.75           
N13-C5-N4-H25= 29.53          C5-C6-N2-C1=181.46            C7-C6-N2-C1=  5.77            N2-C6-C5-N4=  7.35            
N2-C6-C5-N13=190.03           C7-C6-C5-N4=183.20            C7-C6-C5-N13=  5.89           O8-C7-C6-N2=347.26            
O8-C7-C6-C5=171.36            N9-C7-C6-N2=163.97            N9-C7-C6-C5=348.07            C10-N9-C7-C6=185.51           
C10-N9-C7-O8=  2.18           C11-N9-C7-C6=  9.75           C11-N9-C7-O8=186.43           H19-C10-N9-C7=  6.53          
H19-C10-N9-C11=182.74         H20-C10-N9-C7=127.06          H20-C10-N9-C11=303.27         H21-C10-N9-C7=246.13          
H21-C10-N9-C11= 62.34         
           -------------------------------------------------
          |                Final Singlepoint                |
           -------------------------------------------------

          ...................................................
          :                      SETUP                      :
          :.................................................:
          :  # basis functions                  67          :
          :  # atomic orbitals                  67          :
          :  # shells                           39          :
          :  # electrons                        74          :
          :  max. iterations                   250          :
          :  Hamiltonian                  GFN2-xTB          :
          :  restarted?                      false          :
          :  GBSA solvation                  false          :
          :  PC potential                    false          :
          :  electronic temp.         2500.0000000     K    :
          :  accuracy                    1.0000000          :
          :  -> integral cutoff          0.2500000E+02      :
          :  -> integral neglect         0.1000000E-07      :
          :  -> SCF convergence          0.1000000E-05 Eh   :
          :  -> wf. convergence          0.1000000E-03 e    :
          :  Broyden damping             0.4000000          :
          ...................................................

 iter      E             dE          RMSdq      gap      omega  full diag
   1    -42.5653742 -0.425654E+02  0.646E-05    0.47       0.0  T
   2    -42.5653742  0.644107E-09  0.130E-04    0.47     153.3  T
   3    -42.5653742 -0.637243E-09  0.500E-05    0.47     400.3  T

   *** convergence criteria satisfied after 3 iterations ***

         #    Occupation            Energy/Eh            Energy/eV
      -------------------------------------------------------------
         1        2.0000           -0.8975181             -24.4227
       ...           ...                  ...                  ...
        31        2.0000           -0.6148407             -16.7307
        32        2.0000           -0.6061915             -16.4953
        33        1.9999           -0.6008552             -16.3501
        34        1.9998           -0.5929934             -16.1362
        35        1.9987           -0.5785735             -15.7438
        36        1.8385           -0.5394873             -14.6802
        37        1.5757           -0.5306204             -14.4389 (HOMO)
        38        0.5871           -0.5132816             -13.9671 (LUMO)
        39        0.0004           -0.4518645             -12.2959
        40        0.0000           -0.4087325             -11.1222
        41                         -0.3871239             -10.5342
        42                         -0.3058707              -8.3232
       ...                                ...                  ...
        67                          0.5486381              14.9292
      -------------------------------------------------------------
                  HL-Gap            0.0173388 Eh            0.4718 eV
             Fermi-level           -0.5202340 Eh          -14.1563 eV

 SCC (total)                   0 d,  0 h,  0 min,  0.037 sec
 SCC setup                      ...        0 min,  0.000 sec (  0.547%)
 Dispersion                     ...        0 min,  0.000 sec (  0.504%)
 classical contributions        ...        0 min,  0.000 sec (  0.193%)
 integral evaluation            ...        0 min,  0.005 sec ( 13.354%)
 iterations                     ...        0 min,  0.005 sec ( 12.365%)
 molecular gradient             ...        0 min,  0.027 sec ( 72.654%)
 printout                       ...        0 min,  0.000 sec (  0.344%)

         :::::::::::::::::::::::::::::::::::::::::::::::::::::
         ::                     SUMMARY                     ::
         :::::::::::::::::::::::::::::::::::::::::::::::::::::
         :: total energy             -42.055285974539 Eh    ::
         :: gradient norm              0.002339403707 Eh/a0 ::
         :: HOMO-LUMO gap              0.471812496283 eV    ::
         ::.................................................::
         :: SCC energy               -42.565374217198 Eh    ::
         :: -> isotropic ES            0.133712998318 Eh    ::
         :: -> anisotropic ES         -0.006169425181 Eh    ::
         :: -> anisotropic XC          0.019828522112 Eh    ::
         :: -> dispersion             -0.022022482862 Eh    ::
         :: repulsion energy           0.509900083593 Eh    ::
         :: add. restraining           0.000062219287 Eh    ::
         :: total charge               1.000000000000 e     ::
         :::::::::::::::::::::::::::::::::::::::::::::::::::::

           -------------------------------------------------
          |                Property Printout                |
           -------------------------------------------------

    * Orbital Energies and Occupations

         #    Occupation            Energy/Eh            Energy/eV
      -------------------------------------------------------------
         1        2.0000           -0.8975181             -24.4227
       ...           ...                  ...                  ...
        25        2.0000           -0.6743381             -18.3497
        26        2.0000           -0.6696464             -18.2220
        27        2.0000           -0.6451256             -17.5548
        28        2.0000           -0.6435260             -17.5112
        29        2.0000           -0.6364335             -17.3182
        30        2.0000           -0.6312864             -17.1782
        31        2.0000           -0.6148407             -16.7307
        32        2.0000           -0.6061915             -16.4953
        33        1.9999           -0.6008552             -16.3501
        34        1.9998           -0.5929934             -16.1362
        35        1.9987           -0.5785735             -15.7438
        36        1.8385           -0.5394873             -14.6802
        37        1.5757           -0.5306204             -14.4389 (HOMO)
        38        0.5871           -0.5132816             -13.9671 (LUMO)
        39        0.0004           -0.4518645             -12.2959
        40        0.0000           -0.4087325             -11.1222
        41                         -0.3871239             -10.5342
        42                         -0.3058707              -8.3232
        43                         -0.2116916              -5.7604
        44                         -0.1752332              -4.7683
        45                         -0.1492454              -4.0612
        46                         -0.1122420              -3.0543
        47                         -0.0934417              -2.5427
        48                         -0.0481145              -1.3093
       ...                                ...                  ...
        67                          0.5486381              14.9292
      -------------------------------------------------------------
                  HL-Gap            0.0173388 Eh            0.4718 eV
             Fermi-level           -0.5202340 Eh          -14.1563 eV

     #   Z          covCN         q      C6AA      α(0)
     1   6 C        3.689    -0.056    21.775     6.679
     2   7 N        1.832    -0.096    23.865     7.239
     3   6 C        1.847    -0.070    33.050     9.287
     4   7 N        2.687     0.014    21.020     6.809
     5   6 C        2.842     0.112    25.514     8.278
     6   6 C        2.888     0.055    26.765     8.482
     7   6 C        2.767     0.268    22.483     7.765
     8   8 O        0.859    -0.323    20.203     6.026
     9   7 N        2.738    -0.070    22.593     7.059
    10   6 C        3.710    -0.064    21.864     6.683
    11   6 C        2.724     0.320    21.569     7.603
    12   8 O        0.859    -0.343    20.566     6.080
    13   7 N        2.744    -0.038    21.970     6.962
    14   6 C        3.702    -0.080    22.192     6.736
    15   1 H        0.924     0.143     1.443     1.879
    16   1 H        0.924     0.117     1.639     2.002
    17   1 H        0.921     0.130     1.533     1.937
    18   1 H        0.925     0.117     1.642     2.004
    19   1 H        0.925     0.112     1.676     2.025
    20   1 H        0.925     0.103     1.761     2.075
    21   1 H        0.925     0.101     1.780     2.086
    22   1 H        0.925     0.095     1.834     2.118
    23   1 H        0.924     0.094     1.842     2.122
    24   1 H        0.924     0.140     1.463     1.892
    25   1 H        0.859     0.220     1.011     1.575

 Mol. C6AA /au·bohr⁶  :       6570.481553
 Mol. C8AA /au·bohr⁸  :     151166.070247
 Mol. α(0) /au        :        123.402925


Wiberg/Mayer (AO) data.
largest (>0.10) Wiberg bond orders for each atom

 ---------------------------------------------------------------------------
     #   Z sym  total        # sym  WBO       # sym  WBO       # sym  WBO
 ---------------------------------------------------------------------------
     1   6 C    3.895 --     2 N    1.121    16 H    0.936    17 H    0.890
                            15 H    0.879
     2   7 N    2.908 --     6 C    1.602     1 C    1.121
     3   6 C    2.719 --     4 N    1.616    18 H    0.931
     4   7 N    3.666 --     3 C    1.616     5 C    1.100    25 H    0.861
     5   6 C    3.742 --    13 N    1.276     6 C    1.183     4 N    1.100
     6   6 C    3.943 --     2 N    1.602     5 C    1.183     7 C    0.934
     7   6 C    3.919 --     8 O    1.728     9 N    1.148     6 C    0.934
     8   8 O    2.058 --     7 C    1.728     9 N    0.142
     9   7 N    3.574 --     7 C    1.148    11 C    1.130    10 C    0.956
                             8 O    0.142    12 O    0.134
    10   6 C    3.909 --    19 H    0.971    20 H    0.967    21 H    0.966
                             9 N    0.956
    11   6 C    3.945 --    12 O    1.718     9 N    1.130    13 N    1.013
    12   8 O    2.050 --    11 C    1.718     9 N    0.134    13 N    0.101
    13   7 N    3.526 --     5 C    1.276    11 C    1.013    14 C    0.981
                            12 O    0.101
    14   6 C    3.916 --    13 N    0.981    22 H    0.966    24 H    0.954
                            23 H    0.949
    15   1 H    0.941 --     1 C    0.879
    16   1 H    0.959 --     1 C    0.936
    17   1 H    0.934 --     1 C    0.890
    18   1 H    0.956 --     3 C    0.931
    19   1 H    0.987 --    10 C    0.971
    20   1 H    0.988 --    10 C    0.967
    21   1 H    0.988 --    10 C    0.966
    22   1 H    0.985 --    14 C    0.966
    23   1 H    0.982 --    14 C    0.949
    24   1 H    0.978 --    14 C    0.954
    25   1 H    0.915 --     4 N    0.861
 ---------------------------------------------------------------------------

Topologies differ in total number of bonds
Writing topology from bond orders to xtbtopo.mol

molecular dipole:
                 x           y           z       tot (Debye)
 q only:        1.422      -1.588      -0.256
   full:        1.257      -1.918      -0.477       5.954
molecular quadrupole (traceless):
                xx          xy          yy          xz          yz          zz
 q only:        3.582      -0.991      14.396      -1.742       0.280     -17.978
  q+dip:       -2.825      -1.772      17.712      -3.426       2.297     -14.887
   full:       -4.036      -1.568      16.851      -3.943       1.484     -12.815

           -------------------------------------------------
          |                Geometry Summary                 |
           -------------------------------------------------

      molecular mass/u    :      195.1988581
   center of mass at/Å    :        0.0620152      -0.0127289       0.0264743
  moments of inertia/u·Å² :        0.5824296E+03   0.6723291E+03   0.1233183E+04
rotational constants/cm⁻¹ :        0.2894364E-01   0.2507348E-01   0.1367002E-01

 * 23 selected distances

     #   Z          #   Z                                           value/Å
     1   6 C        2   7 N                                       1.3953054
     3   6 C        4   7 N                                       1.2877444
     4   7 N        5   6 C                                       1.3951588
     2   7 N        6   6 C                                       1.2843350
     5   6 C        6   6 C                                       1.4302020
     7   6 C        8   8 O                                       1.2048277
     7   6 C        9   7 N                                       1.3719394
     9   7 N       10   6 C                                       1.4605390 (max)
     9   7 N       11   6 C                                       1.3712796
    11   6 C       12   8 O                                       1.1974377
     5   6 C       13   7 N                                       1.3500761
    11   6 C       13   7 N                                       1.4185256
    13   7 N       14   6 C                                       1.4511910
     1   6 C       15   1 H                                       1.0974945
     1   6 C       16   1 H                                       1.0926322
     1   6 C       17   1 H                                       1.1150080
    10   6 C       19   1 H                                       1.0863644
    10   6 C       20   1 H                                       1.0888332
    10   6 C       21   1 H                                       1.0892464
    14   6 C       22   1 H                                       1.0898364
    14   6 C       23   1 H                                       1.0930954
    14   6 C       24   1 H                                       1.0914487
     4   7 N       25   1 H                                       1.0336066 (min)

 * 5 distinct bonds (by element types)

   Z      Z             #   av. dist./Å        max./Å        min./Å
   1 H    6 C           9     1.0937732     1.1150080     1.0863644
   6 C    6 C           1     1.4302020     1.4302020     1.4302020
   1 H    7 N           1     1.0336066     1.0336066     1.0336066
   6 C    7 N          10     1.3786094     1.4605390     1.2843350
   6 C    8 O           2     1.2011327     1.2048277     1.1974377


optimized geometry written to: xtbopt.xyz


           -------------------------------------------------
          | TOTAL ENERGY              -42.055285974539 Eh   |
          | GRADIENT NORM               0.002339403707 Eh/α |
          | HOMO-LUMO GAP               0.471812496283 eV   |
           -------------------------------------------------

------------------------------------------------------------------------
 * finished run on 2024/06/05 at 19:57:56.562     
------------------------------------------------------------------------
 total:
 * wall-time:     0 d,  0 h,  0 min,  1.881 sec
 *  cpu-time:     0 d,  0 h,  0 min,  1.542 sec
 * ratio c/w:     0.820 speedup
 SCF:
 * wall-time:     0 d,  0 h,  0 min,  0.037 sec
 *  cpu-time:     0 d,  0 h,  0 min,  0.037 sec
 * ratio c/w:     1.000 speedup
 ANC optimizer:
 * wall-time:     0 d,  0 h,  0 min,  1.811 sec
 *  cpu-time:     0 d,  0 h,  0 min,  1.492 sec
 * ratio c/w:     0.824 speedup

