25
 energy: 35.058373920250 xtb: 6.6.1 (8d0f1dd)
C            3.63206066527557        2.84410996175457        0.18328970438027
N            2.35126968019358       -0.58932713800814       -0.00405863527186
C            2.41366665197019       -1.88336213701225        0.00717959828779
N            1.18029558071683       -2.49840440656142        0.00946863977207
C            0.27219231266654       -1.47706342937694       -0.02316428734763
C            1.01906927070980       -0.29405762784958       -0.02866977579349
C            0.32419840916569        0.97374071474662       -0.05889947497630
O            0.80845491307960        2.08067119672193       -0.10039350473925
N           -1.06180144055242        0.82885715540652       -0.04262195474381
C           -1.83637133812098        2.06835678724937       -0.02436644478763
C           -1.80591554438214       -0.33330724882710       -0.06120002281505
O           -3.01799649015535       -0.30473420210364       -0.08114298993764
N           -1.09575780033500       -1.54036047066661       -0.05873991232073
C           -1.89910306463321       -2.75357269890752       -0.08356062477646
H            4.08179254616253        3.00341855796202        1.12666757675188
H            4.07545492008602        2.92157177411882       -0.77988282641130
H            2.59102555122943        2.76484887194965        0.15572277721357
H            3.32423506006308       -2.43896670360646        0.03971053757413
H           -1.12096517880294        2.89211394656505       -0.01602565291003
H           -2.46197983830728        2.13928750784759       -0.91071019715653
H           -2.44462865382021        2.08831350896303        0.87445857786017
H           -1.74680337901717       -3.36594916794450        0.80607914960419
H           -1.71919042256958       -3.34944584495499       -0.97917852424528
H           -2.95804308114913       -2.46047655607686       -0.09469426879421
H            1.01883524905211       -3.49697911689744        0.01864280904439
