72
 energy: -103.310984830957 gnorm: 0.080056401974 xtb: 6.6.1 (8d0f1dd)
N           -1.48193816335521        2.75815509929410        2.22759787250512
C           -1.56281365727219        2.16085676254617        1.14587048860651
C           -2.74858744524216        2.05871193537290        0.24276196009191
C           -3.31716486361022        0.64629803665298        0.32649928697867
C           -4.30411064667517        0.24580934040926       -0.57765536458431
C           -4.85373249129699       -1.02156123615972       -0.52958676528394
O           -5.81687074155927       -1.48770127018637       -1.36145754043279
C           -6.39616784909925       -0.60972967692899       -2.29599414811296
C           -4.40341438432936       -1.94313146850162        0.44770541179557
O           -4.99239037550878       -3.16278790228728        0.41357188583873
C           -4.66646866649370       -4.09996852545448        1.41175960945123
C           -3.42620512374837       -1.54207885555851        1.33882898074490
C           -2.88882306458756       -0.25969252985642        1.27841693178747
C           -2.19781424520857        2.30494363905592       -1.18286153937534
C           -1.27136885553860        1.17682173196446       -1.66325504533680
C           -0.00368755101623        1.11252260239262       -0.90545786532132
N            0.61531489863169       -0.04256088507567       -0.57792891454353
C            1.99556512284479       -0.03669774381017       -0.16224991392106
C            2.92189857272330       -0.55353847594490       -1.28267781698992
C            4.35279152842191       -0.44353674989779       -0.84068771692808
C            5.06566410856005        0.71849779691929       -1.04899578980481
C            6.37434310608136        0.83335079803762       -0.61579462717073
C            7.01767975949024       -0.19730082346630        0.04672550448235
O            8.30638959465238       -0.16451357716848        0.51199811579046
C            9.18090825910143        0.95774363856928        0.34570090793923
C            6.28181458367749       -1.40298522138751        0.26524485078491
O            6.94635839344345       -2.39210975986759        0.92320504262508
C            6.30872399938450       -3.62334643592063        1.14773126144303
C            4.96450040868660       -1.50675247564011       -0.17014248860025
C           -0.06753933159547       -1.30919437570085       -0.63022656978434
C           -3.87384712629624        3.07969095098938        0.58466611551465
C           -4.49979367376222        2.77595564472589        1.94340441220905
C           -3.39866883107843        4.52968559144515        0.54844002828242
H           -4.65958508156355        0.94452815506676       -1.31548154040647
H           -6.85031104326460        0.25730716802033       -1.80659690867590
H           -7.17204053410186       -1.18748676792996       -2.79489117796638
H           -5.66689680706058       -0.27036706724374       -3.03941927944501
H           -4.88839550029761       -3.71588917181854        2.41235127997535
H           -5.29266297076859       -4.96706114464613        1.21109123943418
H           -3.61289460594072       -4.39592046877694        1.35883674711395
H           -3.07771604538654       -2.21475738907099        2.10601938398677
H           -2.15331398098459        0.02622897939860        2.01463838440971
H           -3.02743588876588        2.39195581251720       -1.88313982515850
H           -1.65060182201782        3.24845064611245       -1.19852884300608
H           -1.81919250975245        0.23673524875024       -1.62821323489594
H           -1.00744361068279        1.37822517186709       -2.70644451087560
H           -0.68308692736371        1.65055969934306        0.63648664695779
H            0.63450445188923        1.98450209112714       -0.93853437528032
H            2.10209379362523       -0.67286678589499        0.72064761577271
H            2.29870369185408        0.98071676228880        0.10434752579699
H            2.75662961647906        0.05175568040697       -2.17588985299156
H            2.66970848419942       -1.58887791735895       -1.51424192258460
H            4.60947031118553        1.54859296591758       -1.56875440507223
H            6.90968499459528        1.75290498924481       -0.80204097581759
H            8.76720217489196        1.84883948188262        0.83845687120145
H            9.31580801014421        1.18161496580624       -0.72139161160320
H           10.11236146711785        0.69023492139633        0.78903850152120
H            7.04954673086531       -4.24295385358653        1.65164305717007
H            5.43180111766159       -3.51622150100487        1.79514279431967
H            6.01457889351246       -4.10363236072877        0.21023254120919
H            4.39938624006584       -2.41733883101824       -0.01196405287768
H           -0.23304485936389       -1.62319552747414       -1.66068511499616
H           -1.03274709987386       -1.24409697557338       -0.12030240064309
H            0.54498163395317       -2.05568413104024       -0.13041022513974
H           -4.64471251454463        2.95581976433390       -0.18159007276778
H           -3.76925502520173        2.90635737339406        2.73140372645756
H           -4.88149833009044        1.75849852620544        1.97953937421715
H           -5.32688044029377        3.45755928939301        2.12343371145016
H           -2.60945560268403        4.69076882818293        1.27444020231425
H           -3.04522373643605        4.81716140739196       -0.43787197405355
H           -4.22979061845025        5.18246824127701        0.80470259348415
H           -0.61132483769268        2.78725764327781        2.73934180260444
72
 energy: -103.313569506975 gnorm: 0.032579115149 xtb: 6.6.1 (8d0f1dd)
N           -1.49984536927573        2.78991181968679        2.24144823479308
C           -1.56782000679874        2.15714476950205        1.16368552304849
C           -2.75068882690971        2.06174509773545        0.24909335339618
C           -3.32238345720054        0.65158482329688        0.33112382154969
C           -4.30709289544295        0.24768120977853       -0.57339114393622
C           -4.85317058403787       -1.02111868743743       -0.52859588515585
O           -5.81956525952978       -1.48957040301482       -1.36269276715981
C           -6.39526660085239       -0.60976605096893       -2.29597832413868
C           -4.40379590244580       -1.94150445582900        0.44730484780311
O           -4.99489434990395       -3.16538401809140        0.41290319766900
C           -4.66589939829254       -4.09958350134318        1.41100778194117
C           -3.43032053274047       -1.53872927178160        1.34108978313378
C           -2.89641612739349       -0.25504703621619        1.28313524782328
C           -2.19878719275746        2.30234884164495       -1.18031797372126
C           -1.26676179525464        1.18533264939187       -1.68035547157941
C            0.00337267944241        1.12440231204234       -0.90848480774304
N            0.62587587755620       -0.05256585855932       -0.57045106530500
C            2.00060264966657       -0.04878636785443       -0.16428421359283
C            2.93497321154124       -0.55604857365558       -1.28307488481298
C            4.36549768432682       -0.44512265111260       -0.84935850449951
C            5.07710194864088        0.72130269653890       -1.05250988083770
C            6.38681117114481        0.83834222023745       -0.61269898857916
C            7.02042100894772       -0.19970081881735        0.04982817978310
O            8.30443633366138       -0.18266852289026        0.51901133358182
C            9.14472059438547        0.94923601938305        0.33538219110152
C            6.28961517762184       -1.39813479227691        0.27083843263179
O            6.95748660842509       -2.38906522744145        0.92673441692725
C            6.31281531626062       -3.61798472495444        1.14721293901056
C            4.98101453379996       -1.49984386502329       -0.17276816413444
C           -0.06233075270080       -1.31335125487538       -0.62823659199774
C           -3.87970763441584        3.07856425015693        0.58211696989281
C           -4.50423955663662        2.77765828331564        1.94252132331211
C           -3.40247733027305        4.52852061873885        0.54865501368769
H           -4.65774185625001        0.94456932584336       -1.31620626855693
H           -6.84824355286398        0.25826030424631       -1.80605465832877
H           -7.17177344017985       -1.18575444677363       -2.79676979752224
H           -5.66454078431104       -0.26964490406754       -3.03778289889166
H           -4.88664095788078       -3.71468592084098        2.41188776027768
H           -5.29103956270343       -4.96855261972607        1.21274622454168
H           -3.61185966118281       -4.39341195239018        1.35880502208619
H           -3.07648212481858       -2.21434081097554        2.10392816522241
H           -2.15272044731731        0.02857794278494        2.01150456193872
H           -3.03178222482037        2.39559328092242       -1.87832731860767
H           -1.64977445486752        3.24508053340566       -1.19379390125552
H           -1.80651949846661        0.24052940207855       -1.63349292805720
H           -1.03632800470741        1.38807999492091       -2.73622835927738
H           -0.69323440086262        1.64170240927618        0.67059495032719
H            0.65320512155740        1.98495033427665       -0.97375729713207
H            2.11651682877686       -0.67965143298532        0.72273991788522
H            2.29347681184760        0.97003762756591        0.10131599418148
H            2.75983902094599        0.05086027742239       -2.17320693750913
H            2.67872132766633       -1.59048591429114       -1.51461190496594
H            4.61632188957094        1.55094868734989       -1.56828072938847
H            6.92139376995070        1.75805113602181       -0.79731290092587
H            8.74417560425685        1.83894698032823        0.83577299780586
H            9.29599261889355        1.17279716349570       -0.72715616096591
H           10.09017471986058        0.67830195894657        0.78578308716114
H            7.04856672379620       -4.24334537322970        1.65131352318982
H            5.43368585651005       -3.50925094109052        1.79225958188077
H            6.01575520818534       -4.09753296113664        0.20864685435767
H            4.41755601683068       -2.40756390794677       -0.01133525108653
H           -0.23294073300725       -1.63083068731415       -1.66138031619402
H           -1.02850181641653       -1.24546374796535       -0.12003571113176
H            0.54239503485106       -2.06599326428550       -0.12772059417475
H           -4.65347208524199        2.95829250189058       -0.18434928219386
H           -3.76414010912511        2.90529410192839        2.72511577241715
H           -4.88259381518943        1.75883596416454        1.97882920495854
H           -5.33180136711486        3.45959333183686        2.12632757384505
H           -2.60920771842159        4.68209295083754        1.27361721537187
H           -3.04513377308194        4.81336777451793       -0.43757079408588
H           -4.23156069354988        5.18504234312492        0.80526940106239
H           -0.62152822579507        2.78945252752427        2.74958053366834
72
 energy: -103.314658425191 gnorm: 0.016472267691 xtb: 6.6.1 (8d0f1dd)
N           -1.48841283379900        2.78166204366836        2.23424157157432
C           -1.55416694565012        2.14861216934274        1.15008698328530
C           -2.74745552359120        2.06082409826504        0.24543706323359
C           -3.31508904061108        0.64884321861473        0.32478284818448
C           -4.30328660579178        0.24540207820496       -0.57579599366813
C           -4.84981335973102       -1.02255227468841       -0.52971355417456
O           -5.82095307225387       -1.49102629381237       -1.36298160417462
C           -6.39624801354843       -0.61118677164089       -2.29526811706821
C           -4.40078285595504       -1.94219320505410        0.44514072198942
O           -4.99632384242558       -3.16721098449493        0.41285071810177
C           -4.66731059715642       -4.10007177635607        1.41065266874292
C           -3.42654690399626       -1.54100139063507        1.33820750639192
C           -2.89019646289110       -0.25890653543456        1.27737509868443
C           -2.20071737091702        2.30487532938318       -1.18558252870641
C           -1.27082000320419        1.18238730996255       -1.67444070600478
C           -0.00501622184963        1.13098169021566       -0.89445734795357
N            0.62350047245724       -0.05386774540831       -0.55913085147047
C            1.99369104549458       -0.04300089584915       -0.16004214500163
C            2.92636196776267       -0.55390742785327       -1.27944682688489
C            4.35444857605883       -0.44638633161060       -0.84403269880864
C            5.06727738525705        0.71990837346002       -1.04926703121350
C            6.38056667920992        0.83940243819282       -0.61450557447709
C            7.01741239081025       -0.19770032571537        0.04687432490540
O            8.30526990205277       -0.17730258134306        0.51544404891238
C            9.14688277085729        0.95025452130772        0.33584487922846
C            6.28521885694624       -1.39555834273938        0.26945998299259
O            6.95482380877670       -2.38891505125881        0.92338757772321
C            6.31054997946913       -3.61871182090551        1.14665680146158
C            4.97523718584448       -1.49789207908284       -0.16956188569201
C           -0.06462644439288       -1.31049074497942       -0.62859366946724
C           -3.87217313156716        3.07730375078839        0.58446826059991
C           -4.50091495481942        2.77646701009612        1.94376562346453
C           -3.40002632231691        4.53014850886813        0.54947838283799
H           -4.65705863905627        0.94363582207154       -1.31651081212731
H           -6.84970874623932        0.25729166369479       -1.80582856582066
H           -7.17326520521283       -1.18769535481918       -2.79497248667514
H           -5.66712803368526       -0.27085145679630       -3.03872687934992
H           -4.88800817277217       -3.71568012581010        2.41208610926779
H           -5.29365147376542       -4.96832674735917        1.21218064433684
H           -3.61378178572979       -4.39592896121209        1.35910622881845
H           -3.07642710676858       -2.21542500250457        2.10427547380276
H           -2.15122855561853        0.02628400854266        2.00986634315410
H           -3.03269046671254        2.39600556663235       -1.88566118000698
H           -1.64978503128114        3.24712659518329       -1.19986241670742
H           -1.81047182327677        0.23603066219283       -1.62643205629374
H           -1.02662905511491        1.38032344744151       -2.72704773078267
H           -0.68514858151371        1.65271595302432        0.64950424940129
H            0.63977743464924        1.99245191395066       -0.94416641920311
H            2.11041881388615       -0.67204783156369        0.72847072757580
H            2.28739591933645        0.97654400933270        0.10439248501665
H            2.75200292291279        0.05254213470392       -2.17055276045749
H            2.66488168062733       -1.58744373171892       -1.51113375251881
H            4.60410106051466        1.54672908762373       -1.56708377674636
H            6.90976152047795        1.75926401874831       -0.80485839293448
H            8.76733939934928        1.84545092404123        0.83992765393299
H            9.31805570470835        1.18085056600708       -0.72067346896900
H           10.10179544315495        0.67638636828011        0.79078307236582
H            7.04799223703075       -4.24240231234605        1.65048255667132
H            5.43178418433959       -3.51389948297374        1.79357243386996
H            6.01274721545421       -4.10315870968643        0.20988752454098
H            4.41031893424950       -2.40577228390727       -0.00857777993441
H           -0.23495227239478       -1.62450289431362       -1.66513016165709
H           -1.03242123251585       -1.24705771507733       -0.12188896990714
H            0.54145754862772       -2.06333690072469       -0.13072825914752
H           -4.64618608099278        2.95677112510242       -0.18233466947215
H           -3.76446815340225        2.90525577995189        2.73060759453752
H           -4.87908584232178        1.75748004094420        1.97961429825556
H           -5.32938334968301        3.45827614946716        2.12311563215638
H           -2.60704089177657        4.68882032005654        1.27425013143238
H           -3.04366223236086        4.81610370883548       -0.43720902400860
H           -4.23177018123902        5.18345588953792        0.80503004035006
H           -0.59474115253103        2.77109329293578        2.72145009150545
72
 energy: -103.314838199960 gnorm: 0.011708902813 xtb: 6.6.1 (8d0f1dd)
N           -1.50991492028143        2.77927435211363        2.24063539267100
C           -1.55983535090039        2.15344564042741        1.15235177815683
C           -2.75109060619901        2.06102795883157        0.24621094756671
C           -3.31861192289620        0.64943615672765        0.32768896360999
C           -4.30596321216333        0.24665726315102       -0.57392583143644
C           -4.85224018153149       -1.02082638098711       -0.52706726256828
O           -5.82115045584219       -1.48923431478725       -1.36281095159369
C           -6.39470742795664       -0.60953784852217       -2.29595694873032
C           -4.40308354022640       -1.94007340747734        0.44793243488020
O           -4.99586334404068       -3.16617783040224        0.41411679180807
C           -4.66529490820823       -4.09898828777428        1.41094578912300
C           -3.42887025430296       -1.53997865044007        1.34149916563595
C           -2.89357136983265       -0.25781412814372        1.28134204839551
C           -2.19812153096175        2.30503888173240       -1.18171349615426
C           -1.27129867909693        1.17956090519081       -1.66798468716614
C           -0.00310118421592        1.12695973334933       -0.89890693669091
N            0.62643744588396       -0.05461726659996       -0.56961953994479
C            1.99660082813359       -0.04150513047493       -0.16982097852153
C            2.93057519297091       -0.55523354904454       -1.28755454466262
C            4.35560717777423       -0.44841657994039       -0.84455453569534
C            5.07105319542654        0.71657331458547       -1.04929593718734
C            6.38303389749638        0.83452427860455       -0.61319549257869
C            7.01969478063338       -0.20077644090313        0.04883923685292
O            8.31016542469317       -0.17149731421880        0.51690555514768
C            9.15305971781132        0.95461510016230        0.33742051655032
C            6.28516986651739       -1.40065702235932        0.26725821730706
O            6.95265645573256       -2.39310197839101        0.92448546324062
C            6.31002822687624       -3.62287119680640        1.14845858767876
C            4.97350700442383       -1.50371270738333       -0.17246582922398
C           -0.06365363412554       -1.30903656991495       -0.62996664075574
C           -3.87484144167854        3.07795469411061        0.58407799834676
C           -4.50366587148565        2.77689349569869        1.94327405745191
C           -3.40101525991431        4.53013206262424        0.54812707465768
H           -4.66046500088014        0.94523996102883       -1.31409477402475
H           -6.84987724977575        0.25858208487611       -1.80749260213835
H           -7.17072388438814       -1.18622285260046       -2.79689109026525
H           -5.66485684729611       -0.26895648054971       -3.03867550267514
H           -4.88731778714793       -3.71617496332490        2.41279793239973
H           -5.29033956681438       -4.96784207790090        1.21135378155286
H           -3.61134602151821       -4.39380385661360        1.35917912608496
H           -3.07911351267777       -2.21428534954608        2.10767024220505
H           -2.15698035941265        0.02827528266556        2.01634327538030
H           -3.02842669577299        2.39436464822929       -1.88262142935617
H           -1.64860644000920        3.24807665427838       -1.19493265224139
H           -1.81491812664521        0.23542235738023       -1.62728228531558
H           -1.01391153920474        1.37977340114237       -2.71474628853241
H           -0.69054709351073        1.65350739126101        0.65450309947436
H            0.64370050571771        1.98538114242234       -0.95104148729977
H            2.11016365499500       -0.67458799848338        0.71650766992411
H            2.29805596071292        0.97602921093447        0.09810619627596
H            2.76256913980985        0.05069988964384       -2.18033278833256
H            2.67323010833959       -1.58976711124396       -1.52017611356117
H            4.61292411945325        1.54501476815458       -1.56945303667470
H            6.91230854718386        1.75416409596832       -0.80102385862214
H            8.76449325884423        1.84839312057968        0.83683332228527
H            9.31340444140811        1.18117600154357       -0.72135231719874
H           10.11295335558159        0.69336225683209        0.78863975098143
H            7.04872777236139       -4.24473501044580        1.65301129686206
H            5.43101375184129       -3.51726640040120        1.79468376833624
H            6.01491119580394       -4.10591458668245        0.21044656626214
H            4.40612401659486       -2.41321561812119       -0.01592340563576
H           -0.23486539192416       -1.62907669618973       -1.66357350583761
H           -1.03010005022787       -1.24263117466733       -0.12067891227519
H            0.54523216541525       -2.05767842636500       -0.12921849195851
H           -4.64795625354632        2.95637936096556       -0.18314834781334
H           -3.76871611443337        2.90582986204096        2.73066335545413
H           -4.88421111406811        1.75888612078953        1.97954526429410
H           -5.33020211323582        3.45972588536426        2.12338837227208
H           -2.60924370570145        4.68880466001515        1.27373456218024
H           -3.04536229838853        4.81632821778023       -0.43866666931628
H           -4.23175553288775        5.18359493588009        0.80411323764032
H           -0.62016694522600        2.77965955961807        2.73363258885894
72
 energy: -103.315061149928 gnorm: 0.007494403863 xtb: 6.6.1 (8d0f1dd)
N           -1.49812517190517        2.78217423929184        2.23762832544946
C           -1.55367653045603        2.15476722741973        1.15209780458672
C           -2.74799117333187        2.06095550907250        0.24772211277110
C           -3.31801750876875        0.64987379069327        0.32814348796256
C           -4.30439265812088        0.24680093006648       -0.57495736269023
C           -4.85067765982482       -1.02103032129426       -0.52833102802726
O           -5.81969984500875       -1.48953579430504       -1.36334315679923
C           -6.39543392130068       -0.61028502892490       -2.29528630962824
C           -4.40156080627413       -1.94052485881628        0.44640092377141
O           -4.99482816459338       -3.16611435340933        0.41297638710176
C           -4.66647565350588       -4.09893739736423        1.41051983730996
C           -3.42634249107635       -1.54085339456185        1.33922188197721
C           -2.89137679401326       -0.25842897825061        1.27983064188520
C           -2.19880812133674        2.30346846901096       -1.18235635044734
C           -1.27140235603899        1.18094380629419       -1.67472420956516
C           -0.00222050180870        1.12499450439438       -0.90744733287447
N            0.62405697730504       -0.05412334574468       -0.57084836174173
C            1.99290697740902       -0.04165404267476       -0.16212456388863
C            2.92846561612545       -0.55333584340755       -1.27947922237599
C            4.35519859370054       -0.44421434613210       -0.84218294097096
C            5.07036881400567        0.72075126612378       -1.04906396401848
C            6.38219161231396        0.83765872297583       -0.61364176916443
C            7.01719638381634       -0.19880336880411        0.04792320520730
O            8.30690238711950       -0.17382417877488        0.51570380105863
C            9.15035874089829        0.94958499778665        0.33733987493665
C            6.28407961829496       -1.39789668878695        0.26766177592723
O            6.95284378698445       -2.38932393022687        0.92431835706877
C            6.31059918771500       -3.61869707835712        1.14731038461621
C            4.97252461489037       -1.50047565438765       -0.17036544894802
C           -0.06514764676575       -1.30961835845834       -0.62921505729870
C           -3.87345026087369        3.07735594238312        0.58409562887822
C           -4.50106419152016        2.77598134409156        1.94338372041347
C           -3.39970174152040        4.52910991374083        0.54909189448437
H           -4.65732518675873        0.94464492627137       -1.31644750045258
H           -6.84944329258002        0.25773127681583       -1.80571374238381
H           -7.17253964598408       -1.18687346532399       -2.79478268757063
H           -5.66676323024716       -0.26990989617892       -3.03917232140134
H           -4.88781543107158       -3.71480380447536        2.41198243571448
H           -5.29295020058267       -4.96711990743644        1.21202918648267
H           -3.61303374510234       -4.39558819346773        1.35908590196555
H           -3.07471565318469       -2.21597589580281        2.10349756953924
H           -2.15043088223640        0.02597667246847        2.01120059273283
H           -3.03161873619087        2.39342250002785       -1.88007561386226
H           -1.65064418324979        3.24686819838912       -1.19729752797908
H           -1.81438310532485        0.23750170218303       -1.63331203418034
H           -1.02222727168158        1.38345695504850       -2.72345564745752
H           -0.68877995586250        1.64414930229959        0.65535010261787
H            0.64599899900900        1.98288345141253       -0.96037369668252
H            2.10683163407054       -0.67522594252168        0.72463159735194
H            2.29336826968125        0.97582505393830        0.10651709068825
H            2.75616355589948        0.05204842431285       -2.17155106795332
H            2.67280156735995       -1.58861938782159       -1.51049812787808
H            4.61178821744404        1.55080597234106       -1.56675944080963
H            6.91342960211250        1.75686272225821       -0.80056271253676
H            8.75707552070825        1.84120114010351        0.83814441470824
H            9.30634569013496        1.17518985182438       -0.72296145767877
H           10.10583558606078        0.68337062818537        0.78830928889258
H            7.04928647776267       -4.24168979694900        1.65042307763225
H            5.43240996391667       -3.51120011617148        1.79385941743337
H            6.01434592654784       -4.09865644181219        0.20841289982014
H            4.40589021683951       -2.40960302052690       -0.01021016934510
H           -0.23332952819170       -1.62934787976905       -1.66260730348550
H           -1.03266987176586       -1.24434328000625       -0.12214497704862
H            0.54178639656980       -2.06005912230041       -0.12781311286995
H           -4.64729863998975        2.95616760568450       -0.18252601276708
H           -3.76492410910316        2.90543945215106        2.72903690783430
H           -4.88018615304309        1.75755643313117        1.97951318027889
H           -5.32807551772521        3.45781559441677        2.12505313423574
H           -2.60794189646446        4.68602858093406        1.27477367075797
H           -3.04412731734178        4.81522937487899       -0.43753394227982
H           -4.22993530662990        5.18293847871982        0.80578976178394
H           -0.60800240845642        2.78170765110140        2.73074415500564
72
 energy: -103.315102853434 gnorm: 0.005849102540 xtb: 6.6.1 (8d0f1dd)
N           -1.49850865615067        2.78136570777018        2.23949856266147
C           -1.55587882695104        2.15229269870474        1.15474665741867
C           -2.74965814704950        2.06161974070177        0.24774672063603
C           -3.31916921382863        0.65008409066729        0.32702146781819
C           -4.30542442160238        0.24609701428996       -0.57570113405960
C           -4.85161127064495       -1.02198512568903       -0.52871971508815
O           -5.82096127097167       -1.49061166651516       -1.36361365135398
C           -6.39558925022118       -0.61102991538686       -2.29578292303877
C           -4.40297255062448       -1.94098530421236        0.44646952448628
O           -4.99589091096169       -3.16711890840316        0.41339795213981
C           -4.66650191652294       -4.09977154050759        1.41067723196006
C           -3.42907150492476       -1.53988647812469        1.34017869625755
C           -2.89383116647451       -0.25746265454867        1.27983294117325
C           -2.19953750711054        2.30422636846313       -1.18259597328086
C           -1.26958064776016        1.18243806822586       -1.67226455621864
C           -0.00175282256931        1.12746717905225       -0.90052215623937
N            0.62551215006516       -0.05347945888850       -0.56550825633992
C            1.99586115347824       -0.04326812511389       -0.16301446695630
C            2.92974727238179       -0.55523400876221       -1.28241529083694