25
 energy: -43.830977206798 gnorm: 0.113886138461 xtb: 6.6.1 (8d0f1dd)
C            3.24160869146395        1.17483111104783        0.08724740644941
N            2.30656849820077        0.08700916116337        0.04049494963445
C            2.59811174621366       -1.21610416641002        0.03095382608556
N            1.45290925235211       -1.93507586399027        0.00032027822530
C            0.40533282487944       -1.06295458611896       -0.01161253691614
C            0.94099310912927        0.22196616457901        0.01620516390958
C            0.10318943184812        1.40048914213278       -0.00379070354757
O            0.50228168437546        2.55105598711903       -0.00172852578450
N           -1.24861745032436        1.05514709812365       -0.03374400522649
C           -2.21447424692231        2.14919046764194       -0.05528678390858
C           -1.80746038657769       -0.20145856941865       -0.05332703889912
O           -3.00651008525684       -0.38169729690779       -0.08372414000522
N           -0.94318090270467       -1.31612827547807       -0.02785095764739
C           -1.51316376119298       -2.63803487851746       -0.04958059681851
H            3.72625537595281        1.22165544799972        1.06735658376344
H            4.01030186841219        1.05433099990689       -0.67637586030943
H            2.69966458526676        2.10787162957601       -0.07766341530316
H            3.58476909851595       -1.63462011593639        0.04550856361963
H           -1.66351557080075        3.08625951427038       -0.02881087584991
H           -2.81707358553227        2.09009043287479       -0.96062100905197
H           -2.87364669256313        2.07242809775765        0.80685579830338
H           -1.12512084274333       -3.23217104076511        0.77540685508366
H           -1.26419099242733       -3.15084372221643       -0.93968450530134
H           -2.64968564789634       -2.62647073948907       -0.03225213892040
H            1.40453220615208       -2.93868230231315       -0.01314219497158
25
 energy: -43.836411987014 gnorm: 0.040903304481 xtb: 6.6.1 (8d0f1dd)
C            3.24425194095251        1.18181011622262        0.08970815353517
N            2.30965817960427        0.09968884569402        0.03860062699145
C            2.60619601499961       -1.23225237033238        0.03094384497672
N            1.43530147150891       -1.93972178827877        0.00034834630221
C            0.40047475673529       -1.06273417076845       -0.00985560009875
C            0.92918951828868        0.22346879970919        0.01501189046118
C            0.10549187940737        1.39032685726845       -0.00487688042043
O            0.49869987439686        2.56022728405629       -0.00295649870301
N           -1.26043003625673        1.04563127489641       -0.03338084453841
C           -2.21758437098203        2.14305753248078       -0.05539156276517
C           -1.81693246617161       -0.20309132423769       -0.05149850859298
O           -3.01775469980164       -0.38352988579583       -0.08499666157757
N           -0.94547722639360       -1.31165093762074       -0.02901641343923
C           -1.49610996378641       -2.64324092917321       -0.05670527743340
H            3.73145199104298        1.22591687321647        1.06914164671858
H            4.01019951709843        1.05895340179683       -0.67833513727802
H            2.69580371676185        2.10844710162462       -0.07512070521078
H            3.58629236970231       -1.65411030852138        0.04532968497053
H           -1.65246868869950        3.07242899779599       -0.02907185618693
H           -2.81997652610944        2.09035264518989       -0.96180592453650
H           -2.87719872038126        2.07331701904279        0.80847707161537
H           -1.13626706397832       -3.22691316052657        0.79317544837908
H           -1.24275604797237       -3.15971091986377       -0.97505643216006
H           -2.59859950999180       -2.57574138950085       -0.00762106003962
H            1.37842229784618       -2.94284586774301       -0.01389321435634
25
 energy: -43.837499483181 gnorm: 0.017590271518 xtb: 6.6.1 (8d0f1dd)
C            3.24527054194042        1.18511329103688        0.08874469639416
N            2.30981777179254        0.11035865852679        0.03555697998362
C            2.61505204047153       -1.23139444098724        0.03147000670733
N            1.43592676841042       -1.93840254406305        0.00137253741971
C            0.39979065486047       -1.06735291612599       -0.00811237940980
C            0.92269082665242        0.22263999960501        0.01391189318157
C            0.11510930352435        1.38435875367639       -0.00426379932476
O            0.50488554233380        2.56101521715404       -0.00115574057518
N           -1.26068798473719        1.04665532082507       -0.03372007591201
C           -2.21375190718258        2.14729594334502       -0.05540053838093
C           -1.81498263724644       -0.19833436882697       -0.05134016884389
O           -3.01594209265012       -0.37582355869326       -0.08201003695488
N           -0.95012579604649       -1.31153676689993       -0.02551533388274
C           -1.51728858172782       -2.64552930106647       -0.04944951891096
H            3.72886587438415        1.22452438615585        1.06958247485182
H            4.01294923254948        1.05463663237271       -0.67715102132279
H            2.69989460574163        2.11113884291935       -0.07995141582497
H            3.59462100343710       -1.64066185940853        0.04576241883370
H           -1.65796508954065        3.08310617253114       -0.02832480857128
H           -2.81653606601111        2.09311914609401       -0.96127552542776
H           -2.87412838826183        2.07486060100501        0.80772304333942
H           -1.14001833149194       -3.23254159837568        0.78951622243175
H           -1.25322459636145       -3.16058025073419       -0.97102949303572
H           -2.61280277396291       -2.61702667560774       -0.02156978524848
H            1.39245828694280       -2.94155498782655       -0.01221649490383
25
 energy: -43.837707993583 gnorm: 0.009828136879 xtb: 6.6.1 (8d0f1dd)
C            3.24525443176932        1.18012426700521        0.09119537914223
N            2.30929112154245        0.10787266178372        0.03646837915775
C            2.61338269096794       -1.23394495429108        0.03113658590432
N            1.43544151488263       -1.93810977979794       -0.00123874594121
C            0.40286713029701       -1.06737822078291       -0.01111790939708
C            0.92287806126638        0.22337094159260        0.01436291349452
C            0.11636987389848        1.38412034430278       -0.00445325405514
O            0.49831973139334        2.56053491064599       -0.00167127009490
N           -1.26221392077695        1.04713990097219       -0.03542084853658
C           -2.21740239379436        2.14433023751902       -0.05638244563267
C           -1.81118165257084       -0.19890149257000       -0.05431041132213
O           -3.01066828728037       -0.38358246701348       -0.08625344256338
N           -0.94502869938391       -1.30856914975744       -0.02846690896693
C           -1.51755558754509       -2.63868159860469       -0.04546538122761
H            3.73181102448450        1.21911746473218        1.07020942010955
H            4.01038551121657        1.05545328444009       -0.67783093692760
H            2.69889479959500        2.10665841491147       -0.07189302643788
H            3.59091295765713       -1.64314471301501        0.04487032711874
H           -1.66100649575943        3.07936242676879       -0.02977464436881
H           -2.82100319419864        2.08838654407247       -0.96177684991800
H           -2.87718248672506        2.07071808912711        0.80728787712924
H           -1.12639106414668       -3.22538982763282        0.78636223418809
H           -1.25551893053043       -3.15484331684145       -0.96301698868364
H           -2.61705211719027       -2.59499915123536       -0.01559040653991
H            1.39627418875182       -2.94156111969979       -0.01607550901786
25
 energy: -43.837738676244 gnorm: 0.006609154232 xtb: 6.6.1 (8d0f1dd)
C            3.24248023366173        1.18018480057523        0.08726958955675
N            2.30740478910778        0.10586842021013        0.03691840290419
C            2.60930801234623       -1.23508184230614        0.03462103495421
N            1.43215370700433       -1.93775179776997        0.00354076346418
C            0.40123824884296       -1.06765724833583       -0.00807278159376
C            0.92184332489439        0.22326522078487        0.01643843806040
C            0.11663942577849        1.38434135550470       -0.00328847349250
O            0.49558581457253        2.55936221343572       -0.00256029954240
N           -1.26348584510269        1.04746547905485       -0.03238116197756
C           -2.21454664005143        2.14702504630481       -0.05416112734265
C           -1.81259355286199       -0.19941901777868       -0.05078638319836
O           -3.01237031310853       -0.38448821281687       -0.08311986691011
N           -0.94559077390482       -1.30946345991654       -0.02834898284084
C           -1.51237349650242       -2.64257286905081       -0.05164521984613
H            3.72783628983435        1.22833733051085        1.06651127824620
H            4.01005039181999        1.05568576827363       -0.67922607060669
H            2.69672862413740        2.10695917377353       -0.08201804495415
H            3.58676919356718       -1.64537912085262        0.04702450769033
H           -1.65141786802809        3.07794047430549       -0.02762602934628
H           -2.81718424602859        2.09418271082411       -0.96039810791361
H           -2.87467715946330        2.07750771827645        0.80955279533432
H           -1.13071498502418       -3.23033677032788        0.78363080598654
H           -1.24388790491089       -3.15785743721943       -0.96661136533851
H           -2.61298771850253       -2.59849601042652       -0.02445696326882
H            1.39367065574265       -2.94153822840137       -0.00965260141166
25
 energy: -43.837802007689 gnorm: 0.004392420676 xtb: 6.6.1 (8d0f1dd)
C            3.24472680324577        1.18089539343762        0.09088410024269
N            2.30907926196630        0.10656410473578        0.03560097490406
C            2.61052528269044       -1.23421225944934        0.03046867636270
N            1.43269111228199       -1.93668031329292       -0.00136809921400
C            0.40106407432154       -1.06734357490203       -0.01030628591812
C            0.92296102849476        0.22396059591423        0.01434382919317
C            0.11883409807181        1.38548373691856       -0.00459974489502
O            0.49820222485361        2.56027926139177       -0.00255585747800
N           -1.26281052923939        1.04833799491649       -0.03390661132796
C           -2.21564396009372        2.14619475711950       -0.05624061527083
C           -1.81317342165809       -0.19819764397443       -0.05130546827933
O           -3.01369585754112       -0.38086923413908       -0.08254761401990
N           -0.94671323270967       -1.30959728257692       -0.02859034681619
C           -1.51323754319111       -2.64410283456271       -0.04953353167341
H            3.72966853657658        1.22376602884364        1.07093085874903
H            4.01337973649273        1.05780072012464       -0.67497048671732
H            2.70109943444195        2.11000093555255       -0.07516166242769
H            3.58934498509081       -1.64387338474485        0.04230775981881
H           -1.65722827832872        3.07982686738285       -0.02938012300628
H           -2.81800647930865        2.09141983084359       -0.96253991090468
H           -2.87607791782268        2.07388971259877        0.80691653216751
H           -1.13664437065404       -3.23036413694601        0.78945031825118
H           -1.25018134044582       -3.16112547231691       -0.96576603506517
H           -2.61252953192885       -2.60332137706067       -0.01513573638257
H            1.39424409221412       -2.94064872918244       -0.01584078367959
25
 energy: -43.837810436982 gnorm: 0.003433004917 xtb: 6.6.1 (8d0f1dd)
C            3.24474613553617        1.18062682239184        0.08848941583742
N            2.30996790204960        0.10662992780582        0.03643298421105
C            2.61247260549198       -1.23447101655069        0.03402714945023
N            1.43419100686513       -1.93718427851564        0.00204565785937
C            0.40202189302617       -1.06800698981385       -0.00902345807372
C            0.92329954512658        0.22363215896009        0.01523145688370
C            0.11990090407785        1.38500589497776       -0.00408730295437
O            0.49889644219640        2.56052869820491       -0.00077650422622
N           -1.26270307385527        1.04781859300401       -0.03456803508841
C           -2.21652914732822        2.14485977454673       -0.05514553141359
C           -1.81258570041771       -0.19815519281008       -0.05334390638147
O           -3.01289159480232       -0.38121266215420       -0.08594054287454
N           -0.94624620386704       -1.30902152960900       -0.02850950981191
C           -1.51527459249785       -2.64170138635027       -0.05019416917741
H            3.73207146791408        1.22271951149049        1.06743880729987
H            4.01010814292903        1.05504110159580       -0.68043007926637
H            2.69858290416366        2.10812764398112       -0.07705127942965
H            3.59190232202819       -1.64273352969454        0.04815429786735
H           -1.66033087276253        3.07987527143149       -0.02823118348862
H           -2.82030908636907        2.08984627769626       -0.96050199993648
H           -2.87609867099445        2.07107558807528        0.80860561715971
H           -1.13320521447529       -3.22848148913619        0.78609673295036
H           -1.25412898036896       -3.15552582085149       -0.96885227464252
H           -2.61435717843823       -2.59991276094661       -0.01778263075975
H            1.39637725259269       -2.94129691109738       -0.01092957538095
25
 energy: -43.837828161521 gnorm: 0.002489864180 xtb: 6.6.1 (8d0f1dd)
C            3.24337093206012        1.18043719678368        0.09008431567770
N            2.30893089224018        0.10629624808673        0.03603576866463
C            2.61119963001629       -1.23485320083100        0.03184387727429
N            1.43320322705444       -1.93735846149362       -0.00027243723200
C            0.40141690393776       -1.06818916067221       -0.00940103980690
C            0.92226427754307        0.22353431230924        0.01494107882532
C            0.11906691649606        1.38460466169339       -0.00418619212262
O            0.49678919005776        2.56035053116390       -0.00226137664437
N           -1.26373210968418        1.04717692346722       -0.03402111485187
C           -2.21519509021810        2.14603766361857       -0.05578439627189
C           -1.81309476741141       -0.19893996066605       -0.05193709826406
O           -3.01310713318060       -0.38309080238424       -0.08342517669117
N           -0.94638457369272       -1.30929523590295       -0.02762833092057
C           -1.51419384369953       -2.64219818662792       -0.04835470462697
H            3.72840336218592        1.22323014552035        1.07003546259941
H            4.01053796597856        1.05582579098162       -0.67708773900737
H            2.69708469619869        2.10749496232941       -0.07638512844560
H            3.59019681139891       -1.64331190847962        0.04418511532875
H           -1.65522400774375        3.07895835612968       -0.02953569438383
H           -2.81833621346502        2.09227327049533       -0.96165890114887
H           -2.87540090455417        2.07571464797883        0.80782893261764
H           -1.12971342513722       -3.22781331354547        0.78757217994114
H           -1.24979184949219       -3.15669491999636       -0.96523603595730
H           -2.61389856844979       -2.60062378982956       -0.01958719937331
H            1.39548588938149       -2.94148207349726       -0.01461002856709
25
 energy: -43.837836219968 gnorm: 0.001567705829 xtb: 6.6.1 (8d0f1dd)
C            3.24487521003334        1.18059970307456        0.08947116914369
N            2.30933812062066        0.10641525247200        0.03592401606054
C            2.61050137290023       -1.23457691795030        0.03226124539407
N            1.43276270765366       -1.93676220581695        0.00049698513044
C            0.40129020412287       -1.06763635832497       -0.00960080668982
C            0.92268104581092        0.22414947403993        0.01494418590480
C            0.11945245756433        1.38538794499180       -0.00411315319395
O            0.49699818074481        2.56074257617505       -0.00221429168058
N           -1.26349339433474        1.04767985678667       -0.03380787147035
C           -2.21590927982514        2.14561673401727       -0.05534763565337
C           -1.81282044609493       -0.19862330031740       -0.05205170872114
O           -3.01289952256554       -0.38250096107203       -0.08376208612826
N           -0.94633894147034       -1.30940374209486       -0.02850411641706
C           -1.51405665287850       -2.64294141711020       -0.04980000612589
H            3.73042349564742        1.22460423633857        1.06908764222182
H            4.01278760427588        1.05630980497634       -0.67696533442251
H            2.70074544974934        2.10890811910340       -0.07742551028044
H            3.58918090018054       -1.64388017982301        0.04464414105754
H           -1.65732083511297        3.07927240985079       -0.02805535685576
H           -2.81849899724943        2.09149045154639       -0.96159459697846
H           -2.87645551011397        2.07337246867794        0.80783765152212
H           -1.13406140029104       -3.22969461254471        0.78713850345313
H           -1.25007695104888       -3.15910003177376       -0.96584864483884
H           -2.61385122138143       -2.60047923257786       -0.01852584787645
H            1.39462461088346       -2.94086637601299       -0.01303443594218
25
 energy: -43.837832674837 gnorm: 0.001676348256 xtb: 6.6.1 (8d0f1dd)
C            3.24327827506063        1.18086178629369        0.08968889168823
N            2.30938079975211        0.10595397229172        0.03638103260294
C            2.61139102095994       -1.23480307956478        0.03271927980922
N            1.43365753528973       -1.93732875699875        0.00041648266044
C            0.40155693086620       -1.06833432344164       -0.00945183901744
C            0.92276190417365        0.22341116312241        0.01524303726059
C            0.12034118598721        1.38492683160986       -0.00412137815505
O            0.49868126985462        2.56013130519995       -0.00164868566459
N           -1.26299055851434        1.04776274701152       -0.03410649390214
C           -2.21524629690781        2.14589380448925       -0.05592153417075
C           -1.81274993018844       -0.19820247690369       -0.05196734987455
O           -3.01300692882096       -0.38134339059616       -0.08409289426836
N           -0.94641614654502       -1.30935506595139       -0.02824479607275
C           -1.51414290058568       -2.64263914820346       -0.04985299539216
H            3.72989256356075        1.22323776644738        1.06891244565303
H            4.00927584255135        1.05727329485800       -0.67880879751458
H            2.69648627846705        2.10807278985904       -0.07527941116649
H            3.59070154139229       -1.64329318419122        0.04582860114962
H           -1.65703237792640        3.07982452634596       -0.03032140783657
H           -2.81908427194563        2.09094674331962       -0.96129352138587
H           -2.87474242204143        2.07443717456321        0.80811456657485
H           -1.13250458928130       -3.22926181264001        0.78656182561258
H           -1.25189549868718       -3.15707817945200       -0.96763029182049
H           -2.61351094698002       -2.60153705011810       -0.01651352130657
H            1.39579592832924       -2.94147374071873       -0.01345710885005
25
 energy: -43.823500763514 gnorm: 0.110330619815 xtb: 6.6.1 (8d0f1dd)
C            3.24594726078341        1.18334947301435        0.09023015209569
N            2.31428160244269        0.09878047280808        0.04126233794632
C            2.61587689900791       -1.21713779670712        0.03209391699351
N            1.46738405172442       -1.93233802053653        0.00100743524303
C            0.41891896707825       -1.07105275617471       -0.01221297125894
C            0.94922515215923        0.22306529466257        0.01828369648819
C            0.11171414622010        1.39569956437156       -0.00346464877250
O            0.50779207511912        2.55879086375094        0.00060104334376
N           -1.24617081870619        1.04803174817772       -0.03708709579899
C           -2.20975727346799        2.14364489543958       -0.06080288277284
C           -1.79701115300248       -0.20304271654459       -0.05889124343411
O           -3.00213068624818       -0.38361653716140       -0.09826196635505
N           -0.94643999425801       -1.33313922414732       -0.01286356683790
C           -1.55636500431059       -2.63143158172685       -0.03761809618527
H            3.74023646211537        1.22815712533535        1.06932218204454
H            4.01170585016682        1.07438395075853       -0.67915500503805
H            2.70026261496750        2.11773893253665       -0.06383690323196
H            3.60229464218537       -1.63146143998126        0.04899127270161
H           -1.65589487875981        3.07954688478752       -0.03232311694083
H           -2.80982607403779        2.08608267507878       -0.96811598497351
H           -2.87099801108390        2.06778655987059        0.79898332216261
H           -1.07813730243939       -3.26922185851811        0.71940231120831
H           -1.38383061294948       -3.12878683479740       -0.93992834504223
H           -2.73918789568678       -2.68764548844817        0.02683408320464
H            1.42783869613616       -2.93455404059024       -0.01233917284355
25
 energy: -43.830755810430 gnorm: 0.045574278742 xtb: 6.6.1 (8d0f1dd)
C            3.24511515013518        1.18723482211636        0.09261005778846
N            2.31242192728353        0.10498479450047        0.03966355585000
C            2.61627577758520       -1.23033047586927        0.03204564314070
N            1.44644378768618       -1.93805019009967        0.00173586953493
C            0.40558870880273       -1.07187045990246       -0.00801783222208
C            0.93155642098411        0.22054999254821        0.01778455254691
C            0.11101251396897        1.38455870648687       -0.00363284349792
O            0.50211329136122        2.55771424572608       -0.00052697190402
N           -1.25792091719873        1.04089958232169       -0.03564343614179
C           -2.21286718004807        2.13947610067677       -0.06121994121784
C           -1.81008927902517       -0.20502860402981       -0.05506616371401
O           -3.01258794704305       -0.38358328146990       -0.10111431474681
N           -0.94989931510042       -1.32522745421921       -0.01546367187383
C           -1.52440951679300       -2.64564922993101       -0.05460856958492
H            3.74117823916261        1.22876144299097        1.06924124856293
H            4.00841721858330        1.07546973440849       -0.68042671043019
H            2.69524473503895        2.11574626104800       -0.06161745770398
H            3.59831377682891       -1.64628978387210        0.04826061034434
H           -1.64615570199011        3.06798557535794       -0.03291675305748
H           -2.81246650116692        2.08700856425251       -0.96947725070357
H           -2.87481848970764        2.06955425091142        0.80047837690544
H           -1.10337096393316       -3.26621071341175        0.74580754049364
H           -1.35036734439069       -3.14185041367461       -0.99800166279005
H           -2.64241109053547       -2.60267969884407        0.07344084451324
H            1.40141141466732       -2.94154362276341       -0.01322396614564
25
 energy: -43.832794186094 gnorm: 0.019027988663 xtb: 6.6.1 (8d0f1dd)
C            3.24897109905530        1.19177545072963        0.09204168638532
N            2.31531817127447        0.11232651565254        0.03647851477071
C            2.62365744472226       -1.22862591230713        0.03167842162244
N            1.44683389780706       -1.93667065630416        0.00257377781603
C            0.40221625953370       -1.07489936991635       -0.00531620602021
C            0.92722672324341        0.21959603760446        0.01533605969482
C            0.12009088485497        1.38181289037569       -0.00487383914987
O            0.50741060193181        2.55856894130389       -0.00066879923106
N           -1.25592103784239        1.04263677602696       -0.03703809518408
C           -2.20895227944413        2.14199029625955       -0.06125404832810
C           -1.81044761245465       -0.20083167949841       -0.05442971927711
O           -3.01191342000849       -0.37531050518240       -0.09424075093040
N           -0.95618474998652       -1.32236771147785       -0.00820067953793
C           -1.55143352351853       -2.64658875518801       -0.03735293431280
H            3.74261596897351        1.23030743281685        1.06903224678212
H            4.01350432184259        1.07573178693264       -0.67991091565135
H            2.70066619452998        2.11916967190208       -0.06486202369412
H            3.60567739737326       -1.63740733183963        0.04883151468669
H           -1.64871000050971        3.07465612029093       -0.03225767118714
H           -2.80961400057225        2.08846706671026       -0.96862597231324
H           -2.87115299715125        2.06960983687875        0.80046477556890
H           -1.10359840754504       -3.26541365381728        0.74196188327171
H           -1.36551035169296       -3.13705349773051       -0.98710253390552
H           -2.65484724290777       -2.65942365752418        0.03902858493679
H            1.41182537364710       -2.94042594743981       -0.01118252286613
25
 energy: -43.832834198821 gnorm: 0.013722206782 xtb: 6.6.1 (8d0f1dd)
C            3.24893292022924        1.18993966618162        0.09548910419393
N            2.31742838259798        0.11196204315161        0.03750988385986
C            2.62752335816373       -1.22921657090344        0.03164251338108
N            1.45212200322418       -1.93679737794932       -0.00185510053378
C            0.40839230866632       -1.07714903867348       -0.01274635579028
C            0.92872279833377        0.21952881732819        0.01506849724266
C            0.12375309019815        1.38171402757370       -0.00277695490448
O            0.50268840471113        2.55979728219061        0.00465380982265
N           -1.25522570494666        1.04192943887221       -0.03958242290350
C           -2.21168168461819        2.13807858469897       -0.06268670579248
C           -1.80407631368526       -0.20370557589740       -0.06181535473983
O           -3.00406228342568       -0.38509737612604       -0.10514450114665
N           -0.94899029027086       -1.32192766741142       -0.01642955765130
C           -1.56259275237631       -2.64102213314410       -0.03055557366292
H            3.74204093711144        1.22628546793591        1.07237653358876
H            4.01119603565206        1.07557397727331       -0.67868621280934
H            2.69804624851164        2.11615777853650       -0.05898291631350
H            3.60812255928696       -1.63640720616462        0.04977266932628
H           -1.65528039913720        3.07285865017412       -0.03242119345219
H           -2.81240009748088        2.08401297816968       -0.97010790934909
H           -2.87514984893440        2.06394441850612        0.79810421262119
H           -1.08596964470774       -3.26159327757224        0.72859194188050
H           -1.38284167115790       -3.13443970973617       -0.97636189129093
H           -2.67640838778322       -2.63236716879476        0.06358001869037
H            1.42343874699345       -2.94042988296107       -0.01652578032054
25
 energy: -43.833145287877 gnorm: 0.007871422499 xtb: 6.6.1 (8d0f1dd)
C            3.24695627772515        1.18804532456342        0.09123897423027
N            2.31458316311572        0.11052465708161        0.03846390599259
C            2.62195640067449       -1.23088872988867        0.03465877634090
N            1.44648917055068       -1.93616976103340        0.00471377635019
C            0.40580362736857       -1.07551850995602       -0.00603027080152
C            0.92641736680312        0.22081656351157        0.01895823526116
C            0.12256036496266        1.38311623103846       -0.00251644331112
O            0.49969116989737        2.56063580553620       -0.00149060193919
N           -1.25780395198426        1.04326382221349       -0.03531753194971
C           -2.21045198301676        2.14195941919375       -0.06015733625005
C           -1.80665508014347       -0.20326134164477       -0.05511620363659
O           -3.00712310974343       -0.38481836070412       -0.09833620754370
N           -0.94965802317151       -1.32115217673511       -0.01436109983379
C           -1.55352405259649       -2.64535551941694       -0.03936348186304
H            3.74150283721912        1.22889997480645        1.06716942932336
H            4.00885604323810        1.07232923068389       -0.68297358013359
H            2.69750590736906        2.11512785897085       -0.06564253722227
H            3.60135084648698       -1.64042068420180        0.04918896006823
H           -1.64809299667402        3.07338696849087       -0.03274403994109
H           -2.81179532523913        2.08882566988615       -0.96727327527025