25
 energy: 0.000000000000 xtb: 6.6.1 (8d0f1dd)
C            3.23720163006194        1.16630919979326        0.08434469647475
N            2.29877817382611        0.07527477071623        0.03981603040599
C            2.58028210190900       -1.21425402444508        0.03006176031096
N            1.43813958087363       -1.93419271955128        0.00098261760884
C            0.39035688448383       -1.05887472636071       -0.00790371836672
C            0.93510056364412        0.21347819449412        0.01709077491437
C            0.09450143893243        1.40504303904423       -0.00410947031874
O            0.49712751527797        2.54126714362870       -0.00342325688240
N           -1.25076640035757        1.06271879480407       -0.03085478223738
C           -2.21907211982101        2.15522099834493       -0.05001256985998
C           -1.81739487048744       -0.20012725993278       -0.04692818574614
O           -2.99983886758376       -0.37846417018721       -0.07008878229737
N           -0.92618586207120       -1.30210215599479       -0.03682761578324
C           -1.46982264913417       -2.64643102187190       -0.06029820460571
H            3.71247264356769        1.21471455160235        1.06488849150277
H            4.00791497605742        1.03430808813993       -0.67357694370751
H            2.69910007168542        2.09770118228144       -0.09130154882931
H            3.56654120610678       -1.63682992603973        0.04233140067262
H           -1.67107961066214        3.09322851271934       -0.02552706933167
H           -2.82428953597071        2.09428624779827       -0.95318082946668
H           -2.87644029173232        2.07745725625962        0.81450067533302
H           -1.17061996399332       -3.19584890659852        0.83242232437030
H           -1.14560257411436       -3.17511610292205       -0.95688275822323
H           -2.55549792440841       -2.55659984320617       -0.07459039797972
H            1.38130855184625       -2.94313852034425       -0.01389874181052
25
 energy: -1.822567592199 xtb: 6.6.1 (8d0f1dd)
C            3.25124369128988        1.19414301525464        0.09425393165982
N            2.31934312054332        0.10666753397244        0.04186683188533
C            2.61951626894882       -1.21717480635570        0.03238170443606
N            1.45246282846241       -1.93507941714204        0.00031952782213
C            0.40626611466910       -1.06332185096106       -0.01167961140821
C            0.94003686508615        0.22059067601026        0.01623196501313
C            0.11347257227552        1.39463924846946       -0.00339439791724
O            0.50952752497016        2.56037231780392        0.00149675917168
N           -1.24653545830402        1.04897673705888       -0.03658110113192
C           -2.20871293778847        2.14255952205626       -0.06204772015333
C           -1.81079108245264       -0.20099108268203       -0.05139124144508
O           -3.00651488960489       -0.38162732577536       -0.08332182318465
N           -0.93524585880453       -1.30797225281075       -0.03371077983332
C           -1.54066254866061       -2.63367540929689       -0.04214688054808
H            3.74398366320552        1.22974418562845        1.06969387066548
H            4.01175987324660        1.07667504927819       -0.67946997997961
H            2.70041216001441        2.11998605357144       -0.06053265605828
H            3.60317417836689       -1.63125357016601        0.04918650519243
H           -1.65247959880477        3.07671670236812       -0.03401482935155
H           -2.80773702714881        2.08499434306686       -0.97028381133336
H           -2.87115974634224        2.06806301577507        0.79949404694473
H           -1.11574367307696       -3.23978208099666        0.76361569835650
H           -1.29609346280815       -3.14465928641457       -0.93854411206216
H           -2.66955184565726       -2.64047561120841       -0.02116675051471
H            1.40224393631074       -2.93908710433251       -0.01322125007847
25
 energy: 9.969701827900 xtb: 6.6.1 (8d0f1dd)
C            3.26706638504050        1.22919152178548        0.10936669669271
N            2.34159926107254        0.14283238322896        0.04593993758531
C            2.66610149115000       -1.21143041257710        0.03862032247397
N            1.47900304183774       -1.92915032974054        0.00208834648102
C            0.42602177321724       -1.07663958514668       -0.01231564993073
C            0.94383443131257        0.22473214332087        0.01617108674451
C            0.14118898637655        1.37559330135853       -0.00219818316738
O            0.51867800592358        2.56480367273839        0.01058232212914
N           -1.23873330774523        1.03287865586509       -0.04752601339297
C           -2.19153841470417        2.12795812516456       -0.08328630600537
C           -1.79251129821865       -0.20396309974785       -0.06126780987403
O           -2.99613717830678       -0.38531270380788       -0.11011179791170
N           -0.94555463158969       -1.32137568970184       -0.02355820847754
C           -1.63738100151626       -2.62305919081510       -0.01114259388387
H            3.79206316814465        1.24715096950398        1.07265515262173
H            4.01242547513221        1.14504287047135       -0.68873875385257
H            2.70303698503904        2.15331531391815       -0.00722334094437
H            3.65071832797048       -1.60762609095845        0.06205113606677
H           -1.62669012121268        3.05761143446217       -0.04888112010899
H           -2.78037148746540        2.07212286872825       -0.99884862824453
H           -2.86320305769402        2.05483083895621        0.77168717138315
H           -1.02957679584604       -3.31131134501264        0.65476193029288
H           -1.55906535870094       -3.09745098576392       -0.94718897140382
H           -2.82152667341822       -2.74077444883239        0.09672748499322
H            1.45276666213715       -2.93094161522553       -0.01133031411928
25
 energy: 26.825501878214 xtb: 6.6.1 (8d0f1dd)
C            3.27864915226998        1.26024788909959        0.12182341300338
N            2.36082180583337        0.16803674963752        0.04999044948054
C            2.70464028667744       -1.19946010700090        0.04511628757193
N            1.51410593764089       -1.92233586499653        0.00842903985406
C            0.44645098667291       -1.09536881417100       -0.00309573730833
C            0.95122345782325        0.22207083492625        0.01941993369378
C            0.16453022761729        1.36369689796395        0.00028230221197
O            0.52448635507373        2.56336238594354        0.01857770967661
N           -1.22830585605269        1.02188599911556       -0.05878605107895
C           -2.17559448821151        2.11540991072374       -0.10581528341050
C           -1.77081079844790       -0.21246646949875       -0.07292905715337
O           -2.97794419551064       -0.39405224214250       -0.14111575229334
N           -0.94667983141745       -1.34245429179622       -0.00352417982983
C           -1.71436449242875       -2.62615298936970        0.02327166486279
H            3.83646759711079        1.26003391672959        1.06997028677071
H            4.00679162775785        1.21470844109621       -0.70016575603148
H            2.70452944054811        2.18519335454654        0.04774466506118
H            3.69559544960857       -1.57595351352081        0.07364264364844
H           -1.60587253830775        3.04181040648526       -0.06464709267907
H           -2.75344579494992        2.05877005387895       -1.02844799001110
H           -2.85630317922903        2.04134031761487        0.74202372324412
H           -0.97594063207458       -3.38122777224033        0.53128583289233
H           -1.84402272403509       -3.03683577937676       -0.96670423180109
H           -2.94568476957880       -2.81597301339161        0.22792618135792
H            1.51889164354606       -2.92525769808439       -0.00723910558550
25
 energy: 41.963128530462 xtb: 6.6.1 (8d0f1dd)
C            3.28631416912476        1.28205594781641        0.12696296780290
N            2.37537851634175        0.17987013161490        0.05136103469021
C            2.72982311930975       -1.18400038968116        0.04820504182077
N            1.54966629488752       -1.91445990610762        0.01808184164460
C            0.46292090282281       -1.11395813942678        0.01655081637488
C            0.96099191933981        0.21454355494006        0.02594374535841
C            0.18104960991822        1.35937458739369        0.00370658744998
O            0.52734436242466        2.55557261399827        0.02549376881039
N           -1.21689005125798        1.01587394848185       -0.06692735078032
C           -2.16248903152237        2.10603157877985       -0.12228262610928
C           -1.75018714756193       -0.22386096910793       -0.08570498269417
O           -2.95550598285860       -0.40556815416743       -0.17248660148292
N           -0.94306846374170       -1.36534650737924        0.02236283705684
C           -1.76682006537660       -2.63847255006418        0.04962840384892
H            3.87345223886027        1.26598511277393        1.05807575231206
H            3.99563364227280        1.27317523536884       -0.71514642432871
H            2.70639815712908        2.20811641767656        0.09276124069144
H            3.72982442301133       -1.54292849597373        0.07780583008219
H           -1.59144110202301        3.03077279239298       -0.07508329848722
H           -2.73161398184161        2.04821799449008       -1.04983347569194
H           -2.84978032853798        2.02969579146181        0.71978417731005
H           -0.98612817298139       -3.42292756144741        0.40446379275325
H           -2.05618186730874       -2.95723477209782       -0.93684745785626
H           -3.04294339643985       -2.89144022132179        0.31370496498570
H            1.58646690394512       -2.92005943824207       -0.00354668941452
25
 energy: 51.280227996370 xtb: 6.6.1 (8d0f1dd)
C            3.28915002702871        1.28768064789725        0.12704233984061
N            2.38244691828411        0.17635861793461        0.05130156670746
C            2.73403869483978       -1.16944773036586        0.05146430688573
N            1.57360229273808       -1.90705549709341        0.03004296673159
C            0.47154388616122       -1.12284114540379        0.03796139293303
C            0.97080187039687        0.20789978213236        0.03303028458253
C            0.18729410077382        1.36365696836950        0.00412526981341
O            0.52775515282049        2.54732951313105        0.02615289871664
N           -1.20686472448150        1.01412535464612       -0.06958824593118
C           -2.15585210619933        2.10056484470594       -0.13433024752651
C           -1.73692067641373       -0.23517732568121       -0.08774112781474
O           -2.93671459285406       -0.41842982817154       -0.19402721629238
N           -0.93466868383203       -1.37962169246509        0.05001582694255
C           -1.77256085761240       -2.65761873264723        0.06298581413806
H            3.88863395700590        1.26335155063393        1.04543762428796
H            3.98367748982463        1.29682317235217       -0.72203295592455
H            2.70992421809443        2.21182190812238        0.11269011338095
H            3.74087890346022       -1.52048914243060        0.08307087197371
H           -1.58798162044715        3.02662261988532       -0.08577156443392
H           -2.72024721327002        2.04086992212497       -1.06398817059400
H           -2.84690432485323        2.02565434494120        0.70442392154576
H           -0.99564912474316       -3.44099779340541        0.27201072114809
H           -2.18647880030332       -2.84098396383860       -0.89825774988018
H           -3.09738124368834       -2.96704541123123        0.38549853493302
H            1.63069112520611       -2.91402238197074        0.00551671998361
25
 energy: 59.414946038930 xtb: 6.6.1 (8d0f1dd)
C            3.28948273043006        1.28282798210138        0.12421705480797
N            2.38418325704227        0.16723043772613        0.05171836895522
C            2.72606116784579       -1.15936852227329        0.05758590427826
N            1.58270987483524       -1.90319676639514        0.04771980108046
C            0.47536680132545       -1.11977388526216        0.06136631059826
C            0.97756891212968        0.20786294957039        0.04140975946739
C            0.18688195992767        1.36946916039932        0.00156165867677
O            0.52863076593783        2.54540798722970        0.01855874775665
N           -1.19925373381050        1.01254716343408       -0.06897164181368
C           -2.15436786846970        2.09686431828531       -0.14626701183892
C           -1.73047334652755       -0.24288028143124       -0.07681325874724
O           -2.92462921001691       -0.42895176160580       -0.20103859542500
N           -0.92109921859490       -1.38001459357658        0.08609044403155
C           -1.74084177182068       -2.67080995193645        0.06927831571252
H            3.88767161887045        1.25582953140777        1.03830365278780
H            3.97543374090653        1.28969184921952       -0.72494891205395
H            2.71039802174495        2.20302014329389        0.11091403834113
H            3.73423443518317       -1.51316803668707        0.09353491510145
H           -1.59297610108088        3.02738456310133       -0.10183684635095
H           -2.71692282223474        2.03312237620485       -1.07656894974714
H           -2.84799588677614        2.02838625232347        0.69093735492197
H           -0.95212498596107       -3.47151434341325        0.12070079931291
H           -2.28627836227571       -2.68769534538887       -0.86857293939051
H           -3.12165153799079       -3.04392552648152        0.45141388275321
H            1.64220622731656       -2.90931709767369        0.02674104293112
25
 energy: 70.901058143943 xtb: 6.6.1 (8d0f1dd)
C            3.28748382192459        1.27668772449986        0.11909933364161
N            2.38306763068793        0.15452331568673        0.04871389986379
C            2.71363186131383       -1.14904285146184        0.05449048271482
N            1.58759585367264       -1.90314397049116        0.05796590156219
C            0.47605258292568       -1.11416626130759        0.07610573958417
C            0.98290878890510        0.20821793774648        0.04860039528285
C            0.18217840397821        1.37253675346743        0.00112166746299
O            0.53111087299803        2.54166094412898        0.01648439008852
N           -1.19060925427666        1.00892665849214       -0.06702524208079
C           -2.15224793925700        2.09295719035391       -0.14689328769205
C           -1.72673040505857       -0.25047276908688       -0.07514434542723
O           -2.91392020519584       -0.43584287796684       -0.20621694647218
N           -0.90296321429727       -1.37701858830920        0.10545907210574
C           -1.69718007937017       -2.67993109459400        0.05917263361957
H            3.88484993482388        1.24742245217496        1.03186773330828
H            3.96807846995079        1.28101118177898       -0.73232151490161
H            2.70561576736957        2.19530996322538        0.10673290162406
H            3.72241536745950       -1.51061808504426        0.09242732858861
H           -1.59693411533635        3.02816770798005       -0.10405198639882
H           -2.71546540171525        2.02910140757555       -1.07666711775510
H           -2.84609657151860        2.02672747760293        0.69032944323202
H           -0.97232103895886       -3.43507517637080        0.00321815668897
H           -2.29734760526891       -2.58570782275706       -0.75400785657700
H           -3.14085997987940       -3.12462639806098        0.43954466498626
H            1.63990112205925       -2.90857621709067        0.03802844909755
25
 energy: 78.124631736093 xtb: 6.6.1 (8d0f1dd)
C            3.28988246330144        1.27610539557365        0.11921416071167
N            2.38587868667581        0.15446636738729        0.04884525092506
C            2.71466112803421       -1.14637493844802        0.05878403897064
N            1.59020949505907       -1.90436920769245        0.06973935243373
C            0.48130402595217       -1.10779338053777        0.08611108730256
C            0.98612581072955        0.21421240025103        0.05295453927790
C            0.18161914298306        1.37373365107256       -0.00143638051230
O            0.53495439552400        2.54711197349062        0.00601569193999
N           -1.18601641128337        1.00773129286389       -0.06745386705647
C           -2.15181726739883        2.09087717036129       -0.15337775464170
C           -1.72075036082637       -0.25221612500335       -0.06818189431064
O           -2.90648096013828       -0.43827401821342       -0.20716959802666
N           -0.88665166633837       -1.37236918439683        0.12792726549352
C           -1.66842438252473       -2.67614759134409        0.06238988506904
H            3.88000303245162        1.25025601426187        1.03647251274360
H            3.97386514771873        1.27020020675087       -0.72927214399958
H            2.70528089362540        2.19264315355363        0.09602669690789
H            3.72120268807639       -1.51392923676041        0.10150100296561
H           -1.60095763662497        3.02953310060163       -0.11419643680992
H           -2.71501636390169        2.02268484897736       -1.08307159114540
H           -2.84628786056762        2.02693158039123        0.68361513505382
H           -0.90982126398853       -3.45689425098183       -0.12749853243299
H           -2.38857841138062       -2.47071321911138       -0.69247513003648
H           -3.18461239563750       -3.21896535623788        0.46775686687287
H            1.63264273841552       -2.90941204463739        0.05381373845151
25
 energy: 88.327287143212 xtb: 6.6.1 (8d0f1dd)
C            3.29447590390618        1.27873357401330        0.12487609086901
N            2.39036333925257        0.16121169391530        0.05094372691573
C            2.72330274793091       -1.14647350516912        0.06182726545342
N            1.59109319338491       -1.90488058365964        0.06820906849077
C            0.48837181408927       -1.09758084141914        0.07275107898963
C            0.99011222206482        0.22420541140034        0.05084847997675
C            0.18243987688216        1.37596366049584       -0.00405579637972
O            0.54233656913648        2.55619683905551       -0.00142388098366
N           -1.18065208997004        1.01208739063638       -0.06841630008420
C           -2.15109193149399        2.09293434428015       -0.15300243705217
C           -1.71127303897776       -0.24801650297062       -0.06921286169919
O           -2.89912078439475       -0.42950415298907       -0.20648133288782
N           -0.86597496204036       -1.36564476581752        0.11513532728344
C           -1.63666915596552       -2.66409124862741        0.06001791893581
H            3.87129793225735        1.25976609406536        1.05173690949440
H            3.99016846232509        1.25846130918103       -0.71570843346051
H            2.70808003529486        2.19443834582634        0.08309185902191
H            3.72588701482213       -1.51961736215625        0.10787335726870
H           -1.60446713108319        3.03403555218905       -0.11508949999621
H           -2.71559164724850        2.02095089789182       -1.08195978538370
H           -2.84481963948087        2.02470689251491        0.68424200101520
H           -0.85235680204561       -3.43763014453104       -0.21277346317632
H           -2.47050790598349       -2.41719663853746       -0.60322157111299
H           -3.27075173903566       -3.36381655731777        0.47335904552139
H            1.61756238430914       -2.91021110009824        0.05346712912758
25
 energy: 101.477453653981 xtb: 6.6.1 (8d0f1dd)
C            3.30242147341718        1.28856570678425        0.13529710751385
N            2.39806499857479        0.18962285698121        0.06097529799077
C            2.75686978466543       -1.15887665016556        0.06779560498788
N            1.58556393286134       -1.91093499205300        0.05701901890564
C            0.50487849415160       -1.07536084505484        0.03215244200444
C            0.99330243741198        0.24781212378301        0.04717539377739
C            0.18131766318185        1.37363118729715       -0.00052931661950
O            0.55670593542804        2.57934238432721       -0.01058916819322
N           -1.17844903010513        1.02357152136716       -0.06570691859912
C           -2.15274813464883        2.10054677660840       -0.14692739640104
C           -1.69433269905506       -0.23264341215414       -0.06592677443898
O           -2.89602830443474       -0.40410109952212       -0.19282388751035
N           -0.82228829104070       -1.34891638341174        0.06000158238117
C           -1.57619454721707       -2.60959292492417        0.04366918908243
H            3.86104722740437        1.28088801092178        1.08330527097669
H            4.02367842456582        1.23947688165799       -0.69748692094564
H            2.70901598153645        2.20592498168428        0.06133018857607
H            3.74656875020857       -1.53760936865333        0.10955413803262
H           -1.60698167135696        3.04059388324036       -0.11083357776286
H           -2.71850896458682        2.02010432518028       -1.07579530369610
H           -2.84498553949588        2.02141335449133        0.69060063975665
H           -0.75939146470782       -3.40780739184034       -0.24339512638221
H           -2.56200458507164       -2.43228199393744       -0.47450541585288
H           -3.46945693325081       -3.58702141559576        0.42061266630395
H            1.57414972950015       -2.91731891483987        0.04206516225961
25
 energy: 107.164329747754 xtb: 6.6.1 (8d0f1dd)
C            3.30553099312210        1.29371188150414        0.13635180412395
N            2.39986190399844        0.21616316459784        0.06894997170715
C            2.78722501331090       -1.17363767156894        0.06807909474754
N            1.58112651400527       -1.91883643014875        0.04828115222007
C            0.51858825737390       -1.05920056386852        0.00871268896582
C            0.99416595965288        0.26597456485366        0.04549183778057
C            0.17434782552314        1.36558296919959        0.00428114353277
O            0.56414435948356        2.59722845507442       -0.00919764207609
N           -1.18510289047716        1.02924316053615       -0.06372679582685
C           -2.15554488703853        2.10598685748815       -0.13913088185849
C           -1.68726892084470       -0.22251915014962       -0.06319012464091
O           -2.90246149853887       -0.39640933161364       -0.17322992205940
N           -0.78638641581570       -1.33866658632149        0.01934992534469
C           -1.49827918624366       -2.53862591941236        0.01965434549021
H            3.86203199556603        1.28943115408001        1.09490515935616
H            4.04076078250050        1.23090111523475       -0.69761482372613
H            2.70861117618804        2.21507618046038        0.05159531119615
H            3.76453747906668       -1.55007127513811        0.10191693141890
H           -1.60320178551936        3.04030173844092       -0.10355365738717
H           -2.72165210592750        2.02225437064549       -1.06818782659422
H           -2.84548011605217        2.02035734123068        0.69913977948969
H           -0.73090389236901       -3.41049829572319       -0.16418805757719
H           -2.55097461395245       -2.48607426046215       -0.39627352738793
H           -3.66642871791482       -3.68364224099363        0.30635208347460
H            1.54496743883861       -2.92500262577371        0.03226592643328
25
 energy: 102.307826293693 xtb: 6.6.1 (8d0f1dd)
C            3.30743328223858        1.28955159101531        0.13345914303601
N            2.39936938718062        0.21629212763492        0.06894527496733
C            2.78680507400008       -1.17339108928103        0.06321330592161
N            1.59012015508712       -1.91708990904154        0.04017681116363
C            0.52653172022069       -1.05105149246082        0.00231803719392
C            1.00542753787941        0.27330856132279        0.04008836357540
C            0.16976448427666        1.36870173622893        0.00033607016611
O            0.56752708861716        2.60385632217215        0.00169224248833
N           -1.18464879436128        1.03232563573417       -0.06644255376498
C           -2.15497168393530        2.10823930553394       -0.13117766580907
C           -1.68724835144175       -0.21989678772476       -0.07661066621582
O           -2.90008619448803       -0.40708849896477       -0.16367073862933
N           -0.76700750983181       -1.34121884672846       -0.00271677011885
C           -1.39837868195333       -2.49986384917892       -0.00466225197273
H            3.86260605924720        1.28678747916546        1.08912222367282
H            4.04175767150565        1.23202206928897       -0.69655018831387
H            2.71506462031125        2.21215735754849        0.05231260730136
H            3.76453807538630       -1.54714496333153        0.09750750378610
H           -1.60254739074944        3.04223330435006       -0.09386504559944
H           -2.72318387153098        2.02783495858278       -1.05843653891737
H           -2.84296655032179        2.02060534605412        0.70791682493088
H           -0.72530395889844       -3.41444512805611       -0.11013451012452
H           -2.51630052239998       -2.50108048190700       -0.28054256937257
H           -3.87431136417740       -3.73141043220285        0.19244551780380
H            1.55222438607492       -2.92120571358221        0.02230946897849
25
 energy: 87.087434263594 xtb: 6.6.1 (8d0f1dd)
C            3.31100753685111        1.28131552599445        0.12841101752237
N            2.40266273633644        0.18473481234934        0.06459659536538
C            2.75192977112502       -1.15600127627325        0.05603248010664
N            1.61159561790989       -1.89796656209035        0.02700545049666
C            0.52727079653412       -1.05068027996357        0.00181474871040
C            1.02882573058524        0.26891259964303        0.03250680970595
C            0.17841919715717        1.38737799896497       -0.00189834998870
O            0.56382514322261        2.59248168499948        0.01477385562621
N           -1.17547327337435        1.03663766418126       -0.06316562142474
C           -2.15200748375122        2.10761969156293       -0.12192642526228
C           -1.69802790827864       -0.21429617309127       -0.09025748514195
O           -2.89206486640157       -0.42270391338877       -0.16098276516945
N           -0.78422145782090       -1.35171126813897       -0.02567319657044
C           -1.34512632824206       -2.52635142668891       -0.03627582679421
H            3.86432395293807        1.27983444619592        1.06969019745849
H            4.02731964492352        1.24550908099904       -0.69424704390359
H            2.72472309337357        2.20031159095649        0.06281216324878
H            3.74846631485672       -1.52777595644330        0.09091722816667
H           -1.60459370554960        3.04542948493574       -0.08150837659804
H           -2.72329950052431        2.03349720906634       -1.04670294068942
H           -2.83980369034769        2.02204950211242        0.71797998165736
H           -0.75251943808650       -3.42333551537880       -0.02145006256256
H           -2.39817362803027       -2.57288147614523       -0.19712218641212
H           -4.05448737861350       -3.65074223744032        0.09389842856532
H            1.59164379114324       -2.90223660474659        0.00780522003452
25
 energy: 88.412271084911 xtb: 6.6.1 (8d0f1dd)
C            3.31972299546037        1.27964686853305        0.13136944580885
N            2.41864086357787        0.15217010345457        0.06643515996218
C            2.72577363242067       -1.11860574259196        0.05690597452369
N            1.64502049815963       -1.87278901527565        0.01638037224364
C            0.53869233471051       -1.03818431322180       -0.00750196413553
C            1.05614535676864        0.27688189208816        0.02521349646792
C            0.19511048490303        1.41348766761451       -0.00447021971752
O            0.55995202039441        2.58363156487654        0.02542363724057
N           -1.15216804405462        1.04030917769994       -0.06453888474783
C           -2.14639550830079        2.10427051613870       -0.11666153414330
C           -1.68737295036744       -0.21431053428203       -0.10662738758744
O           -2.86286686724009       -0.44072223619594       -0.16685022837658
N           -0.76402783383043       -1.34536522230872       -0.05493818601687
C           -1.28707723954965       -2.57188695844628       -0.04974831788230
H            3.86472679968205        1.27363841183740        1.06896879387168
H            4.02152139977054        1.25246246752053       -0.69104610619350
H            2.72453381234388        2.19178992253822        0.07285474579489
H            3.73759389123355       -1.49616256775637        0.08876794434394
H           -1.61298821195142        3.05173298932812       -0.07190704451642
H           -2.72200435341979        2.03576982898002       -1.03931614596009
H           -2.83548000399100        2.01599362699216        0.72334045452326
H           -0.71831581943666       -3.42501412443503       -0.05893818875765
H           -2.47238832711259       -2.62086700778466       -0.00696336875834
H           -4.25990458814571       -3.65732726669351       -0.00363953462613
H            1.62577032591121       -2.88152144643790       -0.00547901721386
25