25
 energy: 0.000000000000 xtb: 6.6.1 (8d0f1dd)
C            3.23720132972391        1.16630909158653        0.08434468864950
N            2.29877796055224        0.07527476373246        0.03981602671198
C            2.58028186251803       -1.21425391179017        0.03006175752192
N            1.43813944744728       -1.93419254010258        0.00098261751768
C            0.39035684826767       -1.05887462812143       -0.00790371763344
C            0.93510047688824        0.21347817468824        0.01709077332874
C            0.09450143016486        1.40504290868848       -0.00410946993748
O            0.49712746915594        2.54126690785742       -0.00342325656480
N           -1.25076628431515        1.06271869620815       -0.03085477937476
C           -2.21907191394203        2.15522079838987       -0.05001256521996
C           -1.81739470187490       -0.20012724136556       -0.04692818139228
O           -2.99983858926755       -0.37846413507442       -0.07008877579474
N           -0.92618577614240       -1.30210203518959       -0.03682761236648
C           -1.46982251276835       -2.64643077634382       -0.06029819901142
H            3.71247229913541        1.21471443890471        1.06488839270555
H            4.00791460421487        1.03430799217987       -0.67357688121503
H            2.69909982127087        2.09770098766290       -0.09130154035862
H            3.56654087521359       -1.63682977417947        0.04233139674524
H           -1.67107945562430        3.09322822573871       -0.02552706696334
H           -2.82428927394145        2.09428605349656       -0.95318074103337
H           -2.87644002486466        2.07745706351925        0.81450059976605
H           -1.17061985538665       -3.19584861009707        0.83242224714061
H           -1.14560246782873       -3.17511580834413       -0.95688266944647
H           -2.55549768731684       -2.55659960601237       -0.07459039105944
H            1.38130842369251       -2.94313824728853       -0.01389874052104
25
 energy: -5.593790139505 xtb: 6.6.1 (8d0f1dd)
C            3.26684827137801        1.16206245925278        0.08932061091759
N            2.31740513582703        0.10086578914943        0.03388593075265
C            2.60855448318379       -1.24691847655496        0.02868454125941
N            1.42240160938537       -1.94178189879982       -0.00635535000666
C            0.40951827955867       -1.05321008630833       -0.00742837791525
C            0.92789424458434        0.23573655368619        0.01968406124494
C            0.11446915728530        1.39618538510420        0.00573360972060
O            0.50415127478083        2.56842620585132        0.00698488580772
N           -1.29323873983845        1.07687299140814       -0.02367035086771
C           -2.28590119452169        2.16041194463041       -0.05820374326018
C           -1.81698236790323       -0.18079876112371       -0.03651085983643
O           -3.01351320016153       -0.38970681120134       -0.05751079636532
N           -0.93037807957858       -1.28294831858602       -0.02924625555357
C           -1.45810181090136       -2.63081129296071       -0.05664798635562
H            3.74117048488744        1.20708546608909        1.07395341438728
H            4.03996350830996        1.01834450016695       -0.66954372181483
H            2.73485375935381        2.09220649033926       -0.09003049521259
H            3.58425546027255       -1.66667763604287        0.03697159042929
H           -1.75151611100955        3.10942082349352       -0.03595561203468
H           -2.89737305194468        2.10445582302526       -0.95931268913756
H           -2.95345628730536        2.09660870807085        0.80100701232132
H           -1.14917730223362       -3.18937072002718        0.83116941417617
H           -1.12972421937817       -3.16497594558418       -0.95279515115847
H           -2.54388123441140       -2.54812019549951       -0.06823767267806
H            1.35721904369926       -2.94648386874484       -0.02544052447054
25
 energy: -3.219791473180 xtb: 6.6.1 (8d0f1dd)
C            3.29300743935011        1.14995759935670        0.09259528258759
N            2.33328878944018        0.09786091402710        0.03218273191189
C            2.61852142332655       -1.25641839801829        0.02293378044561
N            1.42558596140497       -1.94304236039444       -0.02043813834777
C            0.42121431088743       -1.04413792829999       -0.00680488113705
C            0.93817634496801        0.24596001752055        0.02718445632324
C            0.11557902573587        1.40828189874944        0.02239018089147
O            0.51434034808171        2.57686328317545        0.03387364673134
N           -1.31637002884585        1.10499188433768       -0.01712748490581
C           -2.35241060247945        2.17190915008795       -0.06886235781857
C           -1.81482130968391       -0.16469450379360       -0.02471889017357
O           -3.00749347298334       -0.39680214410001       -0.03962211746662
N           -0.92052155463140       -1.26512221246250       -0.02117646532060
C           -1.44514779821328       -2.61771510421820       -0.05318791453340
H            3.76645896452154        1.19359271670797        1.07804056783825
H            4.06837756337376        1.00034326974797       -0.66396003088247
H            2.76982972559184        2.08348423201310       -0.08727507062307
H            3.59167202107611       -1.68790143165883        0.02750128350997
H           -1.84574003721103        3.13756653930590       -0.04955517029618
H           -2.96763741683013        2.10174033130525       -0.96783041710744
H           -3.02960434471171        2.10808413937734        0.78377595034009
H           -1.13092543196485       -3.18161778410634        0.83011756097917
H           -1.11754485683780       -3.15075002017699       -0.95111967759980
H           -2.53104123792858       -2.53897052628770       -0.06141346693295
H            1.34709524440173       -2.94780377706244       -0.04473761551464
25
 energy: 0.918704488587 xtb: 6.6.1 (8d0f1dd)
C            3.31794086438893        1.13620466526049        0.09523705830006
N            2.35030483553707        0.09183207648979        0.02836012121624
C            2.62984244570841       -1.26716872635078        0.01612882196819
N            1.43300415162548       -1.94681934751768       -0.03303908527930
C            0.43441431951165       -1.03939067902600       -0.00736733109421
C            0.95109453980134        0.25020173218030        0.03164311807836
C            0.12295887809864        1.41800791310089        0.03483803154642
O            0.53578627689156        2.57971089796494        0.05699093628699
N           -1.33728773353173        1.13500972994175       -0.01294374279764
C           -2.42022210112333        2.18514745117469       -0.08046541323502
C           -1.81092008252450       -0.14631746538069       -0.01394926689564
O           -2.99936999283795       -0.40062164614925       -0.02272976512697
N           -0.90953690814564       -1.24802347382433       -0.01360649085611
C           -1.43193081477428       -2.60534387069611       -0.04945684489552
H            3.78774479432881        1.17870090041988        1.08247993034389
H            4.09630118938104        0.97917371807408       -0.65733793538197
H            2.80620507286871        2.07480604606616       -0.08616509515717
H            3.59918659439551       -1.70979050206817        0.01738228771191
H           -1.93690024453703        3.16360749332726       -0.06257402090375
H           -3.03954515063666        2.09715480693601       -0.97725314796435
H           -3.10563281814316        2.11536873686030        0.76629740715029
H           -1.11165274109904       -3.17279415829665        0.83007972240742
H           -1.10487707048045       -3.13806394427312       -0.94866841469342
H           -2.51813630835795       -2.53380506162078       -0.05412816772814
H            1.34868946366241       -2.95190346003340       -0.06630509294315
25
 energy: 6.876821342980 xtb: 6.6.1 (8d0f1dd)
C            3.34221055204485        1.12138976477366        0.09761256170944
N            2.36701864379002        0.08404273795174        0.02298699605344
C            2.64117021082147       -1.27825344203918        0.00713725834278
N            1.44228508263231       -1.95112604360544       -0.04381175749117
C            0.44771042787562       -1.03746343191913       -0.00900780741007
C            0.96420648834588        0.25188106962386        0.03148625620544
C            0.13388143702995        1.42636600140017        0.04122974654174
O            0.56029840614074        2.58018534735517        0.07759490233275
N           -1.35947772928934        1.16650524037920       -0.01232380899020
C           -2.48833960341141        2.20499093971733       -0.09399814997424
C           -1.80759749790736       -0.12608610364430       -0.00415032975104
O           -2.99099148871140       -0.40311159062659       -0.00591371164372
N           -0.89840368847636       -1.23176548495583       -0.00656468127925
C           -1.41765478751262       -2.59473619354353       -0.04497348836526
H            3.80850138154333        1.16136811450862        1.08659500200659
H            4.12279007608301        0.95567454608029       -0.65114410320926
H            2.84372338308420        2.06632736365988       -0.08451847275561
H            3.60616099364622       -1.73155925506782        0.00361413640881
H           -2.02749364793141        3.19529991440803       -0.07728169529703
H           -3.10967980209546        2.09938401847715       -0.98989467033735
H           -3.18138033126602        2.12841762553407        0.74692780292372
H           -1.09019721862033       -3.16543895849122        0.83043984489233
H           -1.09108160913726       -3.12773729364847       -0.94505111991551
H           -2.50431645604772       -2.53427620371956       -0.04526575249450
H            1.35829461753939       -2.95683203610632       -0.08621161871104
25
 energy: 14.523358960168 xtb: 6.6.1 (8d0f1dd)
C            3.36680894906535        1.10571881077586        0.10037643970736
N            2.38465822473790        0.07494070298868        0.01731992126662
C            2.65415271590830       -1.28909854033495       -0.00203403643063
N            1.45430382388728       -1.95502540517662       -0.05004687862474
C            0.46194049325361       -1.03737801046294       -0.01244734412854
C            0.97895205716691        0.25211006823384        0.02800159779598
C            0.14917090040809        1.43232655042788        0.04094398087529
O            0.58634938947822        2.57859727714763        0.09211563672333
N           -1.38196623862098        1.19722094981170       -0.01823534998404
C           -2.55917545978374        2.22557421772098       -0.10680469139413
C           -1.80477845776740       -0.10460036783058        0.00170904619522
O           -2.98217030234292       -0.40455843002872        0.01170229353837
N           -0.88600208573616       -1.21579040367564       -0.00277727778730
C           -1.40486702119581       -2.58261874069821       -0.04082267951538
H            3.82988508054121        1.14310110000618        1.09093838122289
H            4.14994089567618        0.93253497675035       -0.64411708589209
H            2.88062359397793        2.05630564401566       -0.08248518535627
H            3.61484640247944       -1.75194938565328       -0.01319032232844
H           -2.11667837274723        3.22431367560409       -0.09266522425664
H           -3.18165208094848        2.10540451901398       -1.00221853276321
H           -3.25731166003327        2.14403521347298        0.72990614367680
H           -1.07116236903924       -3.15715671751969        0.83055320370680
H           -1.08007747747820       -3.11435834147250       -0.94294461944786
H           -2.49166884464782       -2.52904036477609       -0.03600364872935
H            1.37406246185691       -2.96127480611469       -0.10111979790694
25
 energy: 23.310269572342 xtb: 6.6.1 (8d0f1dd)
C            3.39064101351429        1.08891055188272        0.10355904452118
N            2.40345709869655        0.06339590812270        0.01132277987109
C            2.66833263639499       -1.30202391305501       -0.01159005212065
N            1.46694737571381       -1.96052262321923       -0.05219725121558
C            0.47639881645780       -1.03862615373958       -0.02261427553037
C            0.99707538534718        0.24902234554561        0.02341733809820
C            0.17155763730625        1.43472367143328        0.03877256371080
O            0.61701158832382        2.57500645831789        0.10419860437582
N           -1.38307233227277        1.21834255098513       -0.02713279494560
C           -2.62801794366841        2.24604670809083       -0.11779530711715
C           -1.79740980563293       -0.08476415810983        0.00276780391514
O           -2.96974382480570       -0.39983562326501        0.02808413674477
N           -0.87189858908511       -1.20409312794230       -0.00669851564066
C           -1.39170839689645       -2.57227697498632       -0.03750031555612
H            3.84917131224894        1.12416795976442        1.09616766844830
H            4.17685725354397        0.90963443021790       -0.63605492818752
H            2.91533114845426        2.04417246777973       -0.08031961758085
H            3.62486890156798       -1.77263943807565       -0.03227069099018
H           -2.20541625781622        3.25331200533136       -0.10812073638900
H           -3.25243992959711        2.11213585179246       -1.01210087358740
H           -3.33052532917920        2.15887174034204        0.71509235562012
H           -1.05129166913478       -3.14863082580154        0.83088770870153
H           -1.06915636117288       -3.10257013265651       -0.94136493976920
H           -2.47864308807241       -2.52405357352595       -0.02638790253009
H            1.39269675876934       -2.96648877526963       -0.11207552499430
25
 energy: 33.700386550494 xtb: 6.6.1 (8d0f1dd)
C            3.41352286894308        1.07316044084836        0.10734069458392
N            2.42135132442072        0.05409270258074        0.00625233387139
C            2.68397131672693       -1.30919824075627       -0.00624453644545
N            1.48299802706625       -1.96771710314227       -0.05266644915932
C            0.49295885464109       -1.04546344655845       -0.02539223417349
C            1.01541309112244        0.24217117685350        0.02199703005375
C            0.19602092923894        1.43399423330870        0.03944828348364
O            0.64991256218763        2.56993383573160        0.11463982000034
N           -1.36755289504247        1.22670969247930       -0.02439106223939
C           -2.70099646856712        2.26884085664613       -0.12341694192366
C           -1.78186764977938       -0.07276063101259        0.00464775931605
O           -2.95188621795461       -0.39439996093585        0.03608423402226
N           -0.85460185438797       -1.20214420663140       -0.01031504241768
C           -1.37888219000333       -2.56666031287146       -0.03361773723344
H            3.86696650803526        1.10562223899536        1.10220145266079
H            4.20281632714918        0.88693733669728       -0.62720603171911
H            2.94908473688045        2.03250836075001       -0.07847779913788
H            3.63520475065042       -1.78892707445533       -0.05488121624633
H           -2.29294418595899        3.28096138050726       -0.11977696783666
H           -3.32407828965629        2.12301505518223       -1.01829984805540
H           -3.40614893030522        2.17229067238724        0.70575140484502
H           -1.03218472789432       -3.14198622303070        0.83307284117991
H           -1.05855109853663       -3.09444624173959       -0.93923613261962
H           -2.46590584599676       -2.52095132271567       -0.01655483510859
H            1.41480847860194       -2.97275882094887       -0.11033493936957
25
 energy: 53.353538170722 xtb: 6.6.1 (8d0f1dd)
C            3.43781476953082        1.05397814035759        0.11038430764207
N            2.44782246725016        0.02722796481459        0.00922562426872
C            2.70593180893168       -1.31404947934722        0.00473324186460
N            1.51100703124536       -1.98637196393583       -0.05003828809871
C            0.51295716339159       -1.05586993361891       -0.02318642219037
C            1.06243526815557        0.21138687672471        0.02005556444079
C            0.20291219823458        1.41992369928909        0.04813824660475
O            0.68735857453746        2.53968565440648        0.12120457108616
N           -1.21302490387186        1.17993368930400        0.00116423464777
C           -2.92710235252176        2.39700095170501       -0.13890788313131
C           -1.73138619559702       -0.05753445723153        0.01128669308744
O           -2.90175077700548       -0.36759482244676        0.04010528139994
N           -0.81606488321444       -1.22406382283432       -0.01030814465280
C           -1.36067186038573       -2.57280256591997       -0.02965779812824
H            3.88405002130308        1.08532398518133        1.10701496876567
H            4.22894093102541        0.86113292082441       -0.61850300840387
H            2.98146260475248        2.01681678103603       -0.07767583095284
H            3.65048537494034       -1.80299137401864       -0.07697503999984
H           -2.39961555214679        3.33296875032201       -0.13229714404112
H           -3.45214319013476        2.15656446112010       -1.04388873200929
H           -3.53698832558758        2.20587801635803        0.71701428272520
H           -1.01289684904194       -3.14547912441647        0.83603083498637
H           -1.04776065124921       -3.09318649867706       -0.93941786864707
H           -2.44891503322534       -2.51798482074208       -0.00648587758590
H            1.43798736651886       -2.98844650409487       -0.10051964487048
25
 energy: 55.817491278402 xtb: 6.6.1 (8d0f1dd)
C            3.46123190110040        1.03403156916809        0.11387235664914
N            2.46882273512124        0.00563309528912        0.01225380867365
C            2.72269667492919       -1.32325289691575       -0.00336405374713
N            1.53621077412465       -1.99952929933589       -0.05131153941036
C            0.53115859701775       -1.06849220127921       -0.01992225637655
C            1.09370351265255        0.19439080762874        0.02493306295854
C            0.22715448508572        1.41150469126675        0.05242967350970
O            0.72152446140014        2.52604520112235        0.12794372629568
N           -1.15511856074552        1.16857036271034        0.00916620489140
C           -3.05919025281501        2.45864813240247       -0.14334955306353
C           -1.70440584772799       -0.04255582998124        0.01503201535225
O           -2.87137026751825       -0.35738236753519        0.04444938308842
N           -0.78994735387664       -1.23515275349314       -0.00875819727311
C           -1.34665688553076       -2.57280835370313       -0.02550713764683
H            3.90092485170198        1.06406075758332        1.11265632661683
H            4.25422768271557        0.83345226408770       -0.60944895086983
H            3.01609053519145        2.00177775084842       -0.07697211331889
H            3.66559046560726       -1.80842916915129       -0.10378919014407
H           -2.49073606308168        3.36442623979249       -0.14024989898436
H           -3.54553002966795        2.18324171766820       -1.05230289817779
H           -3.63237247782139        2.22453748361750        0.72218679434463
H           -0.99493845419524       -3.14318955134026        0.83882876254204
H           -1.03791362664182       -3.08735632038993       -0.93853605454230
H           -2.43542056071878       -2.51568688081541        0.00334691462679
H            1.46121095970559       -3.00202365892568       -0.09763154998365
25
 energy: 56.777609396864 xtb: 6.6.1 (8d0f1dd)
C            3.48316598348114        1.01436205098467        0.11676285035139
N            2.48629493622664       -0.01235270376354        0.01191916260523
C            2.73659014662378       -1.33322021590266       -0.01901894195678
N            1.55678477277831       -2.01277104083185       -0.05319409679215
C            0.54784531710542       -1.08222166250565       -0.01479417167056
C            1.11836690847303        0.17943592344115        0.02911206539196
C            0.25276130500693        1.40135483314228        0.05851113215368
O            0.75323747238434        2.51302487329594        0.13341535680429
N           -1.11307840953784        1.15784676815194        0.01609556516519
C           -3.16709050817379        2.50950606195230       -0.14729378978143
C           -1.68163643984062       -0.03420163949692        0.01902996979694
O           -2.84679964426803       -0.35062064037539        0.04638778576835
N           -0.76801441292933       -1.24565124841153       -0.00651192907889
C           -1.33379111114686       -2.57299965001006       -0.02185261402395
H            3.91606016654046        1.04240211485461        1.11813521784978
H            4.27862831439973        0.80560497958638       -0.60035559131805
H            3.05172615869937        1.98772953494040       -0.07781757143818
H            3.68478332504205       -1.80308720521659       -0.11557602072481
H           -2.57995024458009        3.39747217736960       -0.14542240208085
H           -3.62839402294758        2.21618974078846       -1.05963305580096
H           -3.71973974971351        2.25715623414194        0.72346713173105
H           -0.97760204911892       -3.13891693779376        0.84223904998022
H           -1.02661321419651       -3.08169147671090       -0.93786320903910
H           -2.42287006095883       -2.51438527075587        0.01246082040420
H            1.48286130181829       -3.01596602020574       -0.09525136468753
25
 energy: 57.136581956208 xtb: 6.6.1 (8d0f1dd)
C            3.50322635109335        0.99502658242387        0.11901892491096
N            2.50429263716812       -0.03145604948094        0.01018789882030
C            2.75276735741465       -1.34691657547647       -0.03742636074630
N            1.57617037424668       -2.02750194502066       -0.05621337409086
C            0.56474812816669       -1.09677054732474       -0.00907860130859
C            1.14189142757245        0.16331330160376        0.03336903485299
C            0.28095098857925        1.38959282289562        0.06498562980221
O            0.78750236977116        2.49842511960737        0.13770049737438
N           -1.07427551350933        1.14763785396939        0.02344395370542
C           -3.26642505319807        2.55835845929901       -0.15067081820262
C           -1.65970380421680       -0.02763942442653        0.02255235262321
O           -2.82432956044769       -0.34122239542031        0.04895139201334
N           -0.74744452944763       -1.25776135372810       -0.00771164257608
C           -1.32030746333600       -2.57707064605753       -0.02284184938491
H            3.92703597140626        1.02153195385081        1.12417709422779
H            4.30283434306464        0.78015240384565       -0.59068135021410
H            3.08402988238517        1.97311939397935       -0.08070599932569
H            3.70737844454573       -1.81155619277446       -0.11551487767794
H           -2.66280981644742        3.43014604835579       -0.14658100646936
H           -3.70813357046245        2.25596875569436       -1.06702151109183
H           -3.80438395248771        2.29768805035487        0.72472267166989
H           -0.96139133217077       -3.13478809753496        0.84419613202457
H           -1.02038018676816       -3.09348099085070       -0.93898003384028
H           -2.40900662090447       -2.51310318105516        0.01913896129892
H            1.50233737304239       -3.03143241398257       -0.09537895149738
25
 energy: 57.204206880773 xtb: 6.6.1 (8d0f1dd)
C            3.52298819171090        0.97436763012790        0.12378077160990
N            2.52235897505604       -0.05149594788735        0.01227428148567
C            2.76949497212567       -1.36412377919403       -0.04849131490132
N            1.59393375470116       -2.04368652879184       -0.05750857515002
C            0.58233161907970       -1.11200267876542       -0.00546786103867
C            1.16415862505389        0.14695487373277        0.03627506209584
C            0.30955110784703        1.37687863320712        0.06606082836724
O            0.81990943163775        2.48355903286508        0.13958994837755
N           -1.03965243620699        1.13699711616570        0.03063086415021
C           -3.36068026311298        2.61193891905922       -0.15399516549928
C           -1.63898351040737       -0.02349823703110        0.02408386294999
O           -2.80300467868474       -0.33389284182600        0.05032623477891
N           -0.72678059363109       -1.27200553019587       -0.00872666991084
C           -1.30709097513704       -2.58507826361258       -0.02579591058350
H            3.94060118114250        0.99863295345495        1.13140325822563
H            4.32389023055246        0.75116295183015       -0.58133653738962
H            3.11682051210926        1.95711164937966       -0.08089089932581
H            3.72603350376213       -1.82888251675422       -0.10787300540801
H           -2.74638739982433        3.47255221453547       -0.14514419127744
H           -3.78360580594896        2.29716271638974       -1.07418259107826
H           -3.88430794870207        2.33919364215533        0.72592879067700
H           -0.94846579515865       -3.14643848217485        0.83915596345408
H           -1.02028761481106       -3.10614334223562       -0.94433258092681
H           -2.39463459290254       -2.50891479797901        0.02094732649101
H            1.51915777368666       -3.04800138933901       -0.09606788571208
25
 energy: 57.149523740276 xtb: 6.6.1 (8d0f1dd)
C            3.54250918158931        0.95303898320343        0.12670116138451
N            2.53928196209300       -0.07220452211042        0.01417597994940
C            2.78458653418638       -1.38334458394883       -0.05405918958941
N            1.60909941744243       -2.06248595111105       -0.05802299117567
C            0.59866306998294       -1.13023747371174       -0.00499214035459
C            1.18465704546591        0.12921336744512        0.03632081124134
C            0.33823236588563        1.36263134567608        0.06857823733721
O            0.85189941883019        2.46754553286709        0.14295104087223
N           -1.00556016082300        1.12615620293331        0.03795870936541
C           -3.44949013833300        2.66458736803538       -0.15727902830007
C           -1.61844686179071       -0.02061964605335        0.02603268324873
O           -2.78208841744913       -0.32647051499739        0.05044386845688
N           -0.70798071051306       -1.28859220978227       -0.00946541055729
C           -1.29820747428876       -2.59585920514176       -0.02805737690719
H            3.95279061881808        0.97601895285018        1.13723732279565
H            4.34464282705812        0.72057662780532       -0.57338881730335
H            3.15070640107616        1.94074261441122       -0.08559041439162
H            3.73975073111331       -1.84982056404618       -0.08668079954688
H           -2.83072440512753        3.51906851725673       -0.14759906856230
H           -3.85664293699720        2.34117878491282       -1.08062923736282
H           -3.96202470474842        2.38555783571719        0.72626899071387
H           -0.95131771336081       -3.16535986444735        0.83684973663130
H           -1.02127736478140       -3.12114535123545       -0.94719657545727
H           -2.38383949588080       -2.50230648345684        0.01889895666664
H            1.52542622082971       -3.06778037572496       -0.09078701604239
25
 energy: 57.023898570040 xtb: 6.6.1 (8d0f1dd)
C            3.56146911635562        0.93193079459662        0.12878997905393
N            2.55475293047411       -0.09230455294461        0.01871784932215
C            2.80006801898574       -1.40238022507723       -0.05233327840321
N            1.62293112977819       -2.08027688361808       -0.05857398505555
C            0.61209686610548       -1.14663605048984       -0.00435171085177
C            1.20333949300304        0.11174278821505        0.03767878863048
C            0.36348420528176        1.34706936269916        0.07445874588056
O            0.88074149553833        2.45009017277179        0.14149516758284
N           -0.97407002587220        1.11598405324512        0.04740730883504
C           -3.53437527700106        2.71677038771157       -0.16037695657761
C           -1.59983657891021       -0.01740506211813        0.03165071019918
O           -2.76310925899327       -0.31801971083101        0.05146450913209
N           -0.69210016608920       -1.30486659742715       -0.00945701632243
C           -1.29243375989683       -2.60689208787221       -0.03036133744575
H            3.96415178805952        0.95400112150866        1.14241878914390
H            4.36425647651678        0.68876425518308       -0.56632444635576
H            3.18351550004504        1.92359763995881       -0.09393231290661
H            3.75386459407572       -1.87251949504658       -0.07921103986836
H           -2.91457215653961        3.56845257313828       -0.14989971303451
H           -3.92741647458361        2.38781250874282       -1.08751322140413
H           -4.03722718642748        2.43503756892011        0.72742949909747
H           -0.95801232768587       -3.18339560504515        0.83518508541735
H           -1.02490411318558       -3.13482100945227       -0.95097433694906
H           -2.37582848717424       -2.49407720229160        0.01494866458345
H            1.53306542357140       -3.08658394292417       -0.09449990326926
25