72
 energy: -99.268323402273 gnorm: 0.003507382533 xtb: 6.6.1 (8d0f1dd)
N           -1.84640857392344        2.79230117662050        2.25806411366925
C           -1.80250779893081        2.12814402423392        1.20142554843661
C           -2.96395851032407        1.91698722584417        0.26866511709004
C           -3.44224321182305        0.47498419632801        0.36535180835395
C           -4.39303525406018       -0.00002943581318       -0.53240787773555
C           -4.85379333084443       -1.31091240695530       -0.46891404486635
O           -5.77651986019504       -1.84548175475750       -1.31274904547607
C           -6.58644019170104       -1.14610728598003       -2.06305901103292
C           -4.34609008970998       -2.19873026114833        0.51656458747500
O           -4.84718167994832       -3.44615883701519        0.49477796388003
C           -4.44652826203819       -4.36592765749872        1.48720630981116
C           -3.40578583359954       -1.71240317583526        1.41366689650175
C           -2.96769231624373       -0.39601367286702        1.33942412773615
C           -2.42677098924727        2.19446349555786       -1.15973092116650
C           -1.48840003915829        1.10627544888445       -1.71358705477955
C           -0.15149164661698        1.09816506167514       -1.07762663509131
N            0.50609188441424        0.01570074748609       -0.67373984859472
C            1.88529649069722        0.11328361730369       -0.25796804461500
C            2.85289924262353       -0.33908644308460       -1.36808770329340
C            4.27243400695117       -0.13614010376328       -0.91806726448662
C            4.91292195713481        1.07368876950004       -1.13079024334798
C            6.21236191048834        1.27562168977329       -0.69244806909782
C            6.89719330042009        0.26969333315143       -0.02581835624878
O            8.15735127076093        0.35271816321156        0.43887947017889
C            8.88989131463231        1.53855099926416        0.23138783565858
C            6.24573865679236       -0.97403736411391        0.20267118755048
O            6.98229985415283       -1.89551827347209        0.85472880952030
C            6.43548539299664       -3.16956165196138        1.09731128176153
C            4.94561785201917       -1.15175968496834       -0.24339862332482
C           -0.09169679458376       -1.29739058178004       -0.69433622564293
C           -4.17072804282060        2.85550041734669        0.57208419696109
C           -4.80076613625262        2.53490548061864        1.92548391957997
C           -3.80830063304389        4.33670831689184        0.50863331458563
H           -4.77418082385080        0.64697734802852       -1.30579287576762
H           -6.64256141801618       -0.07182432150218       -2.02921093080012
H           -7.22353792846171       -1.72046684405225       -2.71167729503778
H           -7.26136451154839       -0.43337245149273       -4.91534703860599
H           -4.68739045266835       -4.00087360772787        2.48929696729820
H           -5.01140164092111       -5.27405550804531        1.28723907328620
H           -3.37607248749772       -4.58275978126539        1.42103795173704
H           -3.01539942291492       -2.35110515332737        2.18941695073059
H           -2.25659967838430       -0.04693896500113        2.07226962315664
H           -3.27226433177342        2.28742544913268       -1.84034872294897
H           -1.90031019101618        3.14957090726521       -1.15908844462812
H           -1.97311911922494        0.13393987305569       -1.64649727531960
H           -1.34262263220626        1.33306668647355       -2.77755613183399
H           -0.88149511753081        1.64991733314448        0.81182823688567
H            0.40363161499826        2.02482933348121       -1.07961177578879
H            2.03716059119722       -0.50474936548993        0.63106160529978
H            2.11067394795543        1.14893053761020        0.00484725409576
H            2.65826132232886        0.25202619254392       -2.26453434552262
H            2.67717846417345       -1.38975714572270       -1.60163473749927
H            4.40532481888604        1.86919619277861       -1.65491784958214
H            6.68721571357587        2.22443105669414       -0.88044934096349
H            8.41872425233601        2.39256614325257        0.72744807015525
H            9.00860336823719        1.75419718200156       -0.83463134787905
H            9.86752684085438        1.35877368510056        0.67428497556808
H            7.21747740152195       -3.73125944188729        1.60447494699013
H            5.55484101497022       -3.11167264125704        1.74526581694752
H            6.17215869333684       -3.67781364721908        0.16451915275120
H            4.44529875677579       -2.09385575740664       -0.08227191637659
H           -0.25274551685460       -1.64317184305753       -1.71772018377062
H           -1.05128611896345       -1.28766678645700       -0.17146487290706
H            0.56886247538578       -1.99909024378346       -0.19153110456221
H           -4.91993405603465        2.66037323736052       -0.20357073200555
H           -4.08995374907133        2.72976664573739        2.72175568072652
H           -5.11414983733646        1.49497454751240        1.97802183581410
H           -5.67406261691087        3.16331149820790        2.07824752776705
H           -3.04167198360694        4.57248368707922        1.24026183690667
H           -3.46408092560970        4.62871281052878       -0.47996654571986
H           -4.69008403834325        4.92825963242000        0.74039940404555
H           -0.98937901980667        2.88840947510703        2.79381388000706
