72
 energy: 24.537435223659 xtb: 6.6.1 (8d0f1dd)
N           -1.87287437093522        3.04943904798995        2.50279285582259
C           -1.86923306761395        2.20140412962669        1.57988985987837
C           -2.93200220509889        2.04920720690369        0.54833590428295
C           -3.58975325103140        0.69696146364965        0.58580955208140
C           -4.52092378946438        0.36844425388253       -0.39126232702327
C           -4.96295298687461       -0.92543109436968       -0.54159686334050
O           -5.88238940212728       -1.35963982425502       -1.45030137640197
C           -6.49258513390983       -0.37336071743850       -2.22264249184191
C           -4.48910902173919       -1.91435308777256        0.32883908247348
O           -4.96748963609789       -3.16220295224717        0.11169677000690
C           -4.47488118600073       -4.11915797535015        0.99460956570227
C           -3.61314008808412       -1.57284937414513        1.32779995444863
C           -3.14180377181522       -0.27844293568576        1.44359225678853
C           -2.12620901965695        2.15465222273353       -0.81592431540687
C           -1.28701801737133        1.04291716952281       -1.43771161667513
C            0.07022755308216        0.98410246463814       -0.88366974701775
N            0.72098415674970       -0.13705934583056       -0.40285270277479
C            2.12696794430075       -0.08752914497809       -0.12329613763863
C            3.00403169467277       -0.66968089541893       -1.25232382177806
C            4.44757133492218       -0.53409996743106       -0.87961782679263
C            5.15024903528180        0.62429752956395       -1.14735611443143
C            6.45966102373997        0.78818929064821       -0.71093430434200
C            7.09668903912695       -0.22867529827877       -0.01766832572259
O            8.37395252441748       -0.20300902589480        0.45889919183385
C            9.12752724551788        0.95514888776722        0.22965783903085
C            6.39258696609424       -1.42121023264840        0.24092207507172
O            7.07229742098114       -2.38964542582193        0.91295215821253
C            6.40792389625875       -3.60202010782917        1.15677109963662
C            5.08977410954805       -1.55134250725155       -0.18635623514248
C            0.08950292729646       -1.42749489361933       -0.43910767917248
C           -4.04410672508853        3.11555565478897        0.52628916452711
C           -4.66080652646192        3.23966780455840        1.87888992831594
C           -3.53327749169790        4.45119899355806        0.10466400097015
H           -4.87359308326404        1.15474310207970       -1.02938624591392
H           -6.95490047016949        0.39473836530843       -1.60030313622795
H           -7.25544081370711       -0.90699008624721       -2.79501218957922
H           -5.77751907610814        0.12115440919965       -2.88275902603230
H           -4.67472470884165       -3.87011692929427        2.03154932628042
H           -4.95791779190109       -5.03253836997227        0.74662955754870
H           -3.39570734903100       -4.22204263600141        0.95038403590214
H           -3.26268039205595       -2.33167013079851        1.99136664856191
H           -2.37713655793549       -0.03331583894532        2.16320460215831
H           -2.82965697131582        2.39729585845572       -1.58841367888329
H           -1.40469578167567        2.93581629287481       -0.66903262387626
H           -1.75514421105761        0.10540528466982       -1.25441435626701
H           -1.30892592757222        1.20903147939218       -2.51226144121380
H           -1.01937675249098        1.56146672423208        1.37220766212994
H            0.66505100275950        1.86128125210233       -1.02339188993972
H            2.33927476656460       -0.63477613143874        0.79941777905623
H            2.42021505841407        0.95426805091973        0.02757342062712
H            2.77371805249507       -0.10700307831459       -2.15223947560765
H            2.74401566414560       -1.71243760165845       -1.43887345461558
H            4.65341382813451        1.41719013622201       -1.67512999379803
H            6.96743983034882        1.71734767359591       -0.91955250026642
H            8.66039731594663        1.83267274419182        0.68140530024366
H            9.22839435517731        1.16126077263786       -0.85626901456854
H           10.10440658763626        0.77418784099828        0.67491491917572
H            7.12890665898056       -4.23268866651919        1.66354904883201
H            5.52361386771302       -3.46758681075128        1.80088807694686
H            6.08498534117108       -4.09310965829434        0.22707985062621
H            4.54493932179952       -2.45339991176956        0.01081509887750
H           -0.14683813009171       -1.78662927034155       -1.45742452731475
H           -0.83105009870915       -1.38378492386055        0.13194440222239
H            0.71296606288698       -2.15090919261972        0.06661151177245
H           -4.91077486949449        2.60919100025606        0.13682059658721
H           -3.86229318928884        3.36557517623363        2.58425214417133
H           -5.14916744652426        2.30215321548632        2.07352402161771
H           -5.40362170867936        4.03182879096891        1.76481878552443
H           -2.64295566282648        4.72079239525555        0.64579934356177
H           -3.25227213925953        4.38814059090779       -0.94154933653205
H           -4.29328672300776        5.18433895246920        0.36621592612184
H           -1.07928956340058        2.97437033740230        3.13045678396787
