25
 energy: -42.094286347657 gnorm: 0.009545658227 xtb: 6.6.1 (8d0f1dd)
C            3.16360364947440        1.39970254109772        0.01449405020626
N            2.33830175180788        0.26815137926343       -0.02499352610880
C            2.56970645931910       -2.28416306245169       -0.02078553200695
N            1.29377100236720       -2.22754167177083       -0.01095509032851
C            0.45752399459433       -1.11009839271021       -0.00793514401707
C            1.05387437834718        0.17164660014548       -0.00566243454584
C            0.13481944221357        1.35947670929445        0.00001244935485
O            0.55015692261538        2.49324672491038       -0.00104730602336
N           -1.20250109217459        1.05794347831829       -0.00057017453693
C           -2.15702307835755        2.16190446276261        0.00117828143343
C           -1.77464266525865       -0.20042425776434        0.00300382532630
O           -2.96282151657849       -0.36532980563972        0.00979959775132
N           -0.88681653869793       -1.28861908319670       -0.00125666554160
C           -1.47998661281162       -2.61313456218111       -0.00029315119383
H            3.63433322825318        1.46195325567581        1.00155209352751
H            3.95948051788244        1.27601841052081       -0.72324409366732
H            2.60660835141840        2.32413689347778       -0.17436294520736
H            3.22322151726275       -1.41961452912311       -0.03225868346388
H           -1.60529831160951        3.09834700628401        0.01149375695637
H           -2.78525202802255        2.10233946462922       -0.88737465559042
H           -2.79710843732230        2.08912545775888        0.88012087146453
H           -1.20568549900886       -3.16553298411980        0.90017466289499
H           -1.20236442448277       -3.16732917526794       -0.89851685346326
H           -2.56275819737360       -2.48136422631490       -0.00173180185552
H            0.79728870024259       -3.12260209199857        0.00033008653505
