25
 energy: -42.104588245484 gnorm: 0.002827788544 xtb: 6.6.1 (8d0f1dd)
C            3.29466631932543        1.08714565041674       -0.00529802256267
N            2.33828776374877        0.01276579641025       -0.01012612122347
C            2.60197307224432       -1.29030372932667       -0.04702895241390
N            1.44581294723754       -1.99361514770472       -0.02264003463537
C            0.41278467764689       -1.10650087435782        0.03278027732593
C            0.96941907796127        0.16659367347027        0.04310877183430
C            0.17204198700610        1.35490372140881        0.08906349092128
O            0.55224848474993        2.50424587596046        0.08098512118892
N           -1.22954118571613        1.03898124814746        0.15193978654129
C           -2.08580888077428        2.06816229412429        0.24144999389290
C           -1.79947973645876       -0.26473608852157        0.12173239548925
O           -2.98865809544343       -0.42425380926983        0.14666338212772
N           -0.91516153637186       -1.33920821563481        0.06375489944898
C           -1.45345300010989       -2.68788227459913        0.03710328698903
H            3.79453729630972        1.14540442339054        0.96300469854654
H            4.04366310590336        0.92814474400741       -0.77923413313910
H            2.76997762336757        2.02489879094236       -0.18361912716808
H            3.58028270246588       -1.72510374449442       -0.09275970533736
H           -1.67249939119247        3.05834045505417        0.26614479380317
H           -4.09707187044150        3.45555641613893       -1.40203837492581
H           -3.13748464210129        1.86111581493004        0.28720013086497
H           -1.13231004947422       -3.24308663520571        0.91849433000780
H           -1.13986217109162       -3.20291200124997       -0.87041218318043
H           -2.53985296283544       -2.60957066503020        0.04423096819755
H            1.37591997814407       -3.00084717740695       -0.04332805469337
