25
 energy: 0.000000000000 xtb: 6.6.1 (8d0f1dd)
C            3.23720132972391        1.16630909158653        0.08434468864950
N            2.29877796055224        0.07527476373246        0.03981602671198
C            2.58028186251803       -1.21425391179017        0.03006175752192
N            1.43813944744728       -1.93419254010258        0.00098261751768
C            0.39035684826767       -1.05887462812143       -0.00790371763344
C            0.93510047688824        0.21347817468824        0.01709077332874
C            0.09450143016486        1.40504290868848       -0.00410946993748
O            0.49712746915594        2.54126690785742       -0.00342325656480
N           -1.25076628431515        1.06271869620815       -0.03085477937476
C           -2.21907191394203        2.15522079838987       -0.05001256521996
C           -1.81739470187490       -0.20012724136556       -0.04692818139228
O           -2.99983858926755       -0.37846413507442       -0.07008877579474
N           -0.92618577614240       -1.30210203518959       -0.03682761236648
C           -1.46982251276835       -2.64643077634382       -0.06029819901142
H            3.71247229913541        1.21471443890471        1.06488839270555
H            4.00791460421487        1.03430799217987       -0.67357688121503
H            2.69909982127087        2.09770098766290       -0.09130154035862
H            3.56654087521359       -1.63682977417947        0.04233139674524
H           -1.67107945562430        3.09322822573871       -0.02552706696334
H           -2.82428927394145        2.09428605349656       -0.95318074103337
H           -2.87644002486466        2.07745706351925        0.81450059976605
H           -1.17061985538665       -3.19584861009707        0.83242224714061
H           -1.14560246782873       -3.17511580834413       -0.95688266944647
H           -2.55549768731684       -2.55659960601237       -0.07459039105944
H            1.38130842369251       -2.94313824728853       -0.01389874052104
25
 energy: -5.224854432831 xtb: 6.6.1 (8d0f1dd)
C            3.25687482423755        1.16868495155442        0.08716035268538
N            2.31301692126706        0.09281689336533        0.03763253454486
C            2.60445903932298       -1.23552499156116        0.02862319502792
N            1.43183486673463       -1.94195441191059       -0.00140685431144
C            0.39904352416491       -1.05656848062909       -0.00831080186552
C            0.93202623198494        0.22207492393531        0.01623453379772
C            0.09273634864614        1.39324433100968       -0.00088101154504
O            0.48949544150562        2.55843882784671        0.00409411392287
N           -1.27712109396523        1.05538954407620       -0.03197574210403
C           -2.23904026298893        2.15809896486732       -0.05324138614948
C           -1.83472435622710       -0.20018467354565       -0.04485336749656
O           -3.03060642539298       -0.39009569125783       -0.06491159256082
N           -0.93376252258768       -1.29879121812299       -0.03508646988816
C           -1.46226774467862       -2.64493205679994       -0.05928283682808
H            3.72635791403020        1.22139344591181        1.07290106816315
H            4.03406776562176        1.02252618678520       -0.66451556759268
H            2.72020927381839        2.09509797589799       -0.10349335553353
H            3.58346885714696       -1.66287306756293        0.03815394646200
H           -1.67565083774789        3.08773430170013       -0.02740696373259
H           -2.84756447187146        2.11953197310858       -0.95730133181095
H           -2.90323383300786        2.10159081948635        0.80955377481690
H           -1.14972560372736       -3.20032686741878        0.82743245140659
H           -1.13755390458989       -3.17138911617764       -0.95908886297155
H           -2.54740554023561       -2.55877085073059       -0.06538803371627
H            1.36727989351192       -2.94618292508384       -0.01760788052610
25
 energy: -5.315069662810 xtb: 6.6.1 (8d0f1dd)
C            3.29156171698409        1.15844882298208        0.09110240651800
N            2.32626999369292        0.10631579573961        0.03295240971446
C            2.62112909812494       -1.25488381862524        0.02519486341005
N            1.42038590817193       -1.94167142036859       -0.00699893313648
C            0.40526110685414       -1.04917622529745       -0.00962914098022
C            0.92667914074674        0.23497693549037        0.01536871913970
C            0.08062862350985        1.37742707902388        0.00683810075118
O            0.45605884997765        2.56244769818511        0.02208531514309
N           -1.32162912286681        1.05113933621058       -0.03356952052272
C           -2.27345525524903        2.16955597469347       -0.06053340749230
C           -1.85876258515249       -0.20039092587543       -0.03873739202981
O           -3.05793835176345       -0.41462935643094       -0.05172535426837
N           -0.94171894293927       -1.28919962713561       -0.03063609632290
C           -1.44251780476856       -2.64273844640873       -0.05703173811227
H            3.74622173493890        1.22789768634943        1.08612439009527
H            4.08981848427690        0.98581478249872       -0.63755954455777
H            2.77694346639661        2.08910340731301       -0.13316600076885
H            3.59281171979770       -1.69161692349587        0.02714646285558
H           -1.68687000339334        3.08594558674914       -0.03151965025348
H           -2.88569389521033        2.16333278260748       -0.96620139929511
H           -2.95157725782743        2.14453104311793        0.79624873844593
H           -1.10055906906569       -3.20765086012570        0.81592069552039
H           -1.12226295043693       -3.15963477795032       -0.96623324513942
H           -2.52827868594359       -2.57249571059784       -0.04176018269867
H            1.34970838611705       -2.94382004990507       -0.02664658382071
25
 energy: -0.849789035753 xtb: 6.6.1 (8d0f1dd)
C            3.34628565685362        1.13169694502232        0.09685646713026
N            2.33813527139026        0.11877972399266        0.02536597517100
C            2.62867714721298       -1.27209915701960        0.01864864384167
N            1.40434365564488       -1.93503272542606       -0.01790718869726
C            0.40755009163582       -1.03517558156246       -0.01213775715830
C            0.91828748610177        0.25535006720833        0.01539237693071
C            0.05351034922507        1.36765871270048        0.02233573385351
O            0.39581291827337        2.56868538075175        0.05543614420083
N           -1.38875563831185        1.05380907770326       -0.03482228958242
C           -2.32833065758792        2.19204419472188       -0.07397311242134
C           -1.89593758968843       -0.20103546878644       -0.02583641386854
O           -3.09245717020898       -0.45554086901392       -0.02671532424051
N           -0.95035085069323       -1.27303079919981       -0.02190812416238
C           -1.40523343528820       -2.64166996050080       -0.05292753867392
H            3.76518288490728        1.22907618020396        1.11025510277976
H            4.18463578841904        0.90096519211765       -0.58200499591579
H            2.88811204215752        2.07868687513798       -0.19377622793609
H            3.59299481324587       -1.72321488483419        0.00366182762039
H           -1.71383717038368        3.09146933846901       -0.03863715992176
H           -2.94038421185469        2.22663347940779       -0.98392195112012
H           -3.02811813875738        2.20807909483032        0.77082375679327
H           -1.00673588708469       -3.21814549346455        0.79441055629346
H           -1.09775596069270       -3.13490245995780       -0.98249121171814
H           -2.49261948937361       -2.60726793483382        0.00582200407905
H            1.32920239983038       -2.93679013892399       -0.04491538108273
25
 energy: 12.706536590362 xtb: 6.6.1 (8d0f1dd)
C            3.42591935998237        1.08760424268965        0.10576394123804
N            2.35297604037435        0.13377240243465        0.01319992198686
C            2.63515673429075       -1.29406042607902        0.00852096892332
N            1.38363832106371       -1.92444813846568       -0.03479173506361
C            0.40955190492608       -1.01605968322583       -0.01529547189196
C            0.90557000126761        0.28392705512102        0.01706059407302
C            0.01143371343528        1.35615657280775        0.04775094131761
O            0.30278494232772        2.57364067285192        0.10972577639302
N           -1.49321707219055        1.06166955155898       -0.03864232898732
C           -2.41082406864895        2.23170018938249       -0.09552167115847
C           -1.95405037364285       -0.20234009695884       -0.00573413673928
O           -3.14163973236904       -0.52162320589594        0.01347121793016
N           -0.96166335542768       -1.24881959702600       -0.00730830657737
C           -1.34650675080185       -2.64142704205009       -0.04639217319128
H            3.78292321634765        1.23462561295470        1.14805820816708
H            4.32531876391812        0.76451297947229       -0.49015131095035
H            3.06046769161943        2.05812377387009       -0.29295363927666
H            3.59059443865589       -1.76467140318661       -0.03737171634848
H           -1.75320154220570        3.10397204239476       -0.04886983947781
H           -3.01928887176653        2.32747422688214       -1.01278099438048
H           -3.14161739597973        2.30852013482898        0.73056231068413
H           -0.86012944127394       -3.23376902969509        0.75927250467360
H           -1.06384711481418       -3.09680698695274       -1.00881759982115
H           -2.43505205159184       -2.66553816072291        0.08261880923552
H            1.30691694747636       -2.92710689824675       -0.07434035856355
25
 energy: 28.431368083379 xtb: 6.6.1 (8d0f1dd)
C            3.48836471053615        1.04273425554088        0.11344561981758
N            2.36487409253250        0.13569739746711        0.00134828525604
C            2.63566716781613       -1.30857417804221        0.00056971594756
N            1.37745902789986       -1.91605422712056       -0.04743240473273
C            0.41238778716371       -1.00740014376674       -0.01466339163284
C            0.89844897786001        0.30101587593952        0.02335714302971
C           -0.02094961696203        1.34874795748282        0.07217722144484
O            0.22096458550824        2.56107713735332        0.16209033559465
N           -1.59424296786721        1.07688456658021       -0.05062853966590
C           -2.48403488037467        2.27886611137752       -0.11650058451125
C           -2.00826574059737       -0.20344987376488        0.00946094314153
O           -3.17409710523661       -0.59019946124404        0.04893769173904
N           -0.96542079686780       -1.22791445530782        0.00802731406838
C           -1.29416737873247       -2.64074576204885       -0.04008557463172
H            3.79206541671697        1.24699854293843        1.17180775290721
H            4.42445811421066        0.65376781296433       -0.40798630013549
H            3.20745989894954        2.02246615835859       -0.37009573619424
H            3.58804328941846       -1.79135718452970       -0.08156882193793
H           -1.78699478839078        3.12273551917441       -0.05671494043169
H           -3.08473166665275        2.42676050039336       -1.03903616891408
H           -3.23353192719410        2.40418803588337        0.69388038904563
H           -0.74407600165467       -3.23983698656625        0.72770831775375
H           -1.04178524725079       -3.06737747390280       -1.02789198427127
H           -2.37724730882503       -2.71662899013406        0.14622412296850
H            1.31156666296658       -2.92337234628209       -0.09939649346070
25
 energy: 38.620522078362 xtb: 6.6.1 (8d0f1dd)
C            3.51695872872470        0.99767782816197        0.11599575177632
N            2.37441941325534        0.10711039206498       -0.01158207596174
C            2.62003429221948       -1.30249697592244       -0.00013044548351
N            1.40202563560022       -1.90870929280124       -0.05192071630421
C            0.41477435996143       -1.01765820281789       -0.00931984396725
C            0.90928545779244        0.29476673466367        0.03520703754076
C           -0.02304982727845        1.35662505873470        0.08824319096874
O            0.16751014326468        2.51676228600819        0.21106518385133
N           -1.68313362131178        1.10739357687472       -0.08118813550239
C           -2.53893036820477        2.33349879297622       -0.13334088507833
C           -2.05462439542125       -0.20059435484918        0.01192926546344
O           -3.16836890757642       -0.65624540524658        0.07437274440213
N           -0.95230899792292       -1.21202341473121        0.02241562213381
C           -1.26020844401080       -2.63676337772127       -0.03412633400307
H            3.78697513675422        1.26376367005062        1.16140633145670
H            4.43749380739836        0.59763867933676       -0.34863225570248
H            3.30065136909035        1.95645079886499       -0.39607992258618
H            3.58133105681237       -1.78418258648078       -0.12194339588080
H           -1.81946800696496        3.15004781552254       -0.05967206603603
H           -3.12276239559161        2.50460830022392       -1.05546718703957
H           -3.27861978217936        2.47410262264169        0.66903626989853
H           -0.69829139610390       -3.22287002318908        0.70435178728408
H           -1.04510662701373       -3.05380167166791       -1.02932438131860
H           -2.32326431600723       -2.74763833503549        0.17767399478603
H            1.36889198968615       -2.92843412691799       -0.11193562250310
25
 energy: 52.091335965618 xtb: 6.6.1 (8d0f1dd)
C            3.57107734758110        0.95635725460715        0.12001242508846
N            2.39724654915163        0.10234176015840       -0.01821154240868
C            2.62553351995457       -1.29710508120689       -0.00416543908573
N            1.41182479511254       -1.90304139872624       -0.06784189813378
C            0.41656895680633       -1.00667923988481       -0.01909734542976
C            0.92168451751916        0.30468007211640        0.02941039295445
C           -0.03071601833448        1.36414235008337        0.09451841011194
O            0.11469888664048        2.54002562363108        0.30451868110377
N           -1.75829718074719        1.11433026486068       -0.10241065054397
C           -2.60950402785266        2.36021219900800       -0.15202062972279
C           -2.10526223138803       -0.19675368353084        0.01042484350276
O           -3.19989552543486       -0.70373777431680        0.10849120003572
N           -0.94969147758014       -1.19642508638480        0.02600968944822
C           -1.22775594230565       -2.63161756385102       -0.02524741174179
H            3.78947557979681        1.25370555685938        1.16889129232311
H            4.50535370752854        0.47161216296413       -0.27224148687498
H            3.42979094985560        1.90037789975717       -0.46326759320759
H            3.58305971817732       -1.78038747014837       -0.15509315060886
H           -1.89009938154215        3.16998592697233       -0.06791942075056
H           -3.18614690418061        2.57301784407647       -1.07759137914960
H           -3.36401517114938        2.53740396072108        0.63792345412536
H           -0.60684639394069       -3.21001735481312        0.68215180728810
H           -1.03822610104680       -3.02918625912687       -1.03416455022741
H           -2.27740685100004       -2.78268236291217        0.23369988160565
H            1.38976298335121       -2.92153081216986       -0.12974566750742
25
 energy: 61.113108966907 xtb: 6.6.1 (8d0f1dd)
C            3.60355152799062        0.92847101900743        0.11790866659744
N            2.43084467221733        0.08551819474257       -0.01692265164644
C            2.63648451102366       -1.26419839086466       -0.00830719045172
N            1.44085150770090       -1.90462830805603       -0.08518871241791
C            0.41531705954770       -0.99702292085133       -0.03698119077141
C            0.96025666896171        0.29849983477534        0.02034112721031
C            0.00466320507676        1.37996162810386        0.09276694203810
O            0.12710399464729        2.56684976839761        0.41428139260827
N           -1.79758814064144        1.11476945979190       -0.13103081952159
C           -2.67192902246608        2.36620275666178       -0.16860033161378
C           -2.15320385074106       -0.17775511667973        0.00025310867104
O           -3.22610189123453       -0.70622808316477        0.13168021198912
N           -0.93920735696888       -1.19124406038650        0.01922548599449
C           -1.22296828632530       -2.62626280185132       -0.01706519277379
H            3.77681632803560        1.23573283478353        1.15127558056139
H            4.51332943458160        0.36749814737585       -0.20734197607786
H            3.51421557366080        1.81778333854733       -0.51008339581812
H            3.59196061647016       -1.73662764090895       -0.17116203026699
H           -1.98228273802266        3.19250970452056       -0.07126707507764
H           -3.24181867675534        2.60028753421177       -1.09524212805800
H           -3.43417885296634        2.55421502483395        0.61592034979671
H           -0.56004377080254       -3.18677881740972        0.66583456697010
H           -1.05511208373178       -3.01881068546531       -1.02628290331538
H           -2.24859740215761       -2.79451663823707        0.27736020188601
H            1.42985127787207       -2.91519699313422       -0.13433812431772
25
 energy: 78.687442519155 xtb: 6.6.1 (8d0f1dd)
C            3.65232238953768        0.89201796580617        0.12521226178940
N            2.45294070862551        0.07961280653561       -0.01471832230035
C            2.64873849787881       -1.25908317387320       -0.01979202601493
N            1.45642788452576       -1.90698306722845       -0.10174156683832
C            0.42088012030023       -0.98945745419886       -0.03990255246366
C            0.97695445566421        0.30186869719694        0.03731913779462
C            0.01831223605784        1.38138441793683        0.13050392548217
O            0.13466255247154        2.54192895273760        0.43765227557310
N           -1.87168675057707        1.13351539219325       -0.14238995235921
C           -2.75569515084251        2.39855001156071       -0.18698420347351
C           -2.20897996624698       -0.15485166210242        0.01540106441638
O           -3.26137384195198       -0.72917502073041        0.15940087406497
N           -0.93183024424344       -1.17889366689370        0.02529506215699
C           -1.19268032458120       -2.62301071408002       -0.01536961068834
H            3.76894838711061        1.25536654470540        1.16222943590561
H            4.56471918252949        0.26555654939515       -0.11982734560475
H            3.63873024091518        1.75226493315930       -0.58966079199678
H            3.60539096394468       -1.73056452332115       -0.20770737611080
H           -2.06168813299938        3.22486452494453       -0.06783000045581
H           -3.31682819794419        2.66048649973787       -1.11769312435871
H           -3.53293757740989        2.59731185883901        0.58610340250554
H           -0.49006290384776       -3.18455558795175        0.63419618518943
H           -1.05961226497339       -3.00617465392208       -1.03809495478233
H           -2.20287931811743       -2.81660291405846        0.33157054865598
H            1.45944135914632       -2.91634792764406       -0.15613843389204
25
 energy: 89.530433780732 xtb: 6.6.1 (8d0f1dd)
C            3.67934719974095        0.87530608393527        0.12851710700817
N            2.47444068575576        0.06997472511328       -0.00209420549851
C            2.66657607225284       -1.25714416771676       -0.03834523626427
N            1.47873652938654       -1.92282618212376       -0.11045406225869
C            0.43126737157200       -0.98998942594382       -0.04091873875017
C            1.00587112939886        0.29195807722648        0.05649722366341
C            0.06227893359913        1.38344832066949        0.15376027510640
O            0.19254342894225        2.52025487671791        0.43106531279813
N           -1.90968688568075        1.15400879902270       -0.15184951273478
C           -2.82440594766445        2.42064403220064       -0.19666412922222
C           -2.25500658098095       -0.11592476333494        0.02109663941753
O           -3.29290291261705       -0.70636977588902        0.16516114636975
N           -0.91429951586752       -1.18190858440343        0.02419942721160
C           -1.18101428914101       -2.62497319303134       -0.01491997292644
H            3.77648176641204        1.27716692525394        1.14595466537448
H            4.56056831607373        0.24766907021360       -0.06733850493353
H            3.70237099973187        1.68517467365071       -0.60991912146934
H            3.62645453285357       -1.72734442722318       -0.22197064188771
H           -2.13713238538306        3.26076595076240       -0.06272176924739
H           -3.37949427518927        2.68092883618899       -1.12911050033706
H           -3.60985578520384        2.59787462525480        0.57305110540961
H           -0.47736622776429       -3.19061761414205        0.61492305574204
H           -1.07685940319301       -3.01779812407088       -1.03822256972306
H           -2.17568993892480       -2.81190690055475        0.36193371375303
H            1.48899148686312       -2.92934304903253       -0.16459679440637
25
 energy: 103.018902242281 xtb: 6.6.1 (8d0f1dd)
C            3.70342247425778        0.86557320363565        0.12552314843281
N            2.50127968357613        0.05677167398589        0.01978403380191
C            2.69820375907406       -1.26765069680090       -0.06443280718771
N            1.51899028274742       -1.95222190145272       -0.11421982228915
C            0.45578681098562       -1.00601432410963       -0.04304340664885
C            1.04853003512442        0.26800604397144        0.07270213811529
C            0.13527888850283        1.37476625332315        0.15412470971202
O            0.25710286576028        2.49237602463320        0.45781519934810
N           -1.97586286924864        1.18855513987657       -0.17776840027245
C           -2.91990808333078        2.46794678291027       -0.19921519666196
C           -2.33268137022810       -0.05372700173057        0.01382530802507
O           -3.34067833716768       -0.67397453979739        0.16520371296952
N           -0.87865189660314       -1.19978500928492        0.01619718650806
C           -1.16607234104508       -2.63529470553368       -0.01445905513949
H            3.76953493113276        1.34467550122741        1.11371575625267
H            4.56041585678985        0.22471846537366        0.02238016782384
H            3.78179064144532        1.60200821198736       -0.66371376965824
H            3.66569901992468       -1.73710094715344       -0.22929717261478
H           -2.22191720732295        3.31132253419746       -0.05626501083713
H           -3.47018450232435        2.72365873267416       -1.12892766707455
H           -3.69716425922674        2.61118870113318        0.57742873880350
H           -0.48018976230569       -3.20948917292179        0.59301598840751
H           -1.10280142694608       -3.05010971315161       -1.03129912159604
H           -2.13979713577700       -2.79841880559293        0.38858752926125
H            1.54208824717777       -2.95875166265604       -0.17062827528661
25
 energy: 111.341442579472 xtb: 6.6.1 (8d0f1dd)
C            3.72540511390754        0.85483441744713        0.12025714713323
N            2.53570647473461        0.03115856310620        0.05071795400086
C            2.73092002936291       -1.27492431728552       -0.08175611020991
N            1.56423716421799       -1.97724532819441       -0.10742770774597
C            0.47924984183320       -1.02282314261520       -0.03502526026708
C            1.09712516674535        0.23982294642121        0.09970236931155
C            0.20155587160550        1.36160788491391        0.13320545943078
O            0.30591046054464        2.45262299176584        0.49553954885890
N           -2.06909670416957        1.22489595541296       -0.21357340525348
C           -3.01568040169341        2.52481747904617       -0.20453636540921
C           -2.42887839415921        0.00968348238005        0.00306915191678
O           -3.39624465100004       -0.67523201186322        0.17875962506343
N           -0.83886172652044       -1.21143194427031        0.00799733155670
C           -1.14794527741112       -2.64275438409346       -0.01716518664538
H            3.75873010566884        1.39675717913899        1.07606032894124
H            4.56726719828547        0.19614484591472        0.11043616030710
H            3.84981636311041        1.51998102630998       -0.71268303286927
H            3.70550174149689       -1.74315216968208       -0.24883143470373
H           -2.29080653817952        3.35179879866127       -0.05727243366929
H           -3.55852030601022        2.79114700459969       -1.13165878504808
H           -3.77689007143252        2.65883168962803        0.58405959677457
H           -0.45227913945919       -3.23355175007134        0.56417290032547
H           -1.12437931404925       -3.06528161899614       -1.03563395372721
H           -2.10989876035494       -2.79470997049975        0.42283614165654
H            1.60027005789879       -2.98396883843094       -0.17421612753385
25
 energy: 115.616095050725 xtb: 6.6.1 (8d0f1dd)
C            3.74520939277827        0.84702160276948        0.11091959204900
N            2.57152974343012        0.00052651915669        0.06312899526233
C            2.76609665060649       -1.28599171397120       -0.10088322725736
N            1.61329304081561       -2.00399108028834       -0.10188812583714
C            0.50471823291415       -1.04250394917524       -0.02604819577753
C            1.14666451293814        0.20940245288932        0.11442523918092
C            0.25463271761597        1.34180122463667        0.13063139472974
O            0.33507538282499        2.41258853253023        0.53624214406006
N           -2.17120988631708        1.25702314477413       -0.23643364472264
C           -3.09926551197843        2.58232456957339       -0.20997938034236
C           -2.53387300422184        0.07205606138000       -0.00143399500199
O           -3.45208329137102       -0.67104918847159        0.17900574835497
N           -0.79706121133790       -1.22650092871809        0.00692106218949
C           -1.12789419987686       -2.65442577866648       -0.01660703880779
H            3.74680008708003        1.43541634927339        1.03909140900236
H            4.57886570326527        0.19230992304136        0.18070172803038
H            3.89777279090031        1.45036587267907       -0.75684138731786
H            3.74603721280295       -1.75224859624797       -0.25417812405070
H           -2.33996023929562        3.38383991829472       -0.06245502740917
H           -3.63436699096505        2.86094096114697       -1.13419151699022
H           -3.84331768117509        2.71897016273407        0.59138318185273
H           -0.44192385585883       -3.26310020868492        0.54636411595577
H           -1.13194476956802       -3.08033400972262       -1.03349645894622
H           -2.07902821975884       -2.78541587902295        0.43658845756679
H            1.65744769872506       -3.00999717316638       -0.17393303357892
25
 energy: 113.400985822367 xtb: 6.6.1 (8d0f1dd)
C            3.76960573263138        0.86832946052171        0.07821859813411
N            2.65190239444377       -0.07858062590370        0.06501927971965
C            2.85106312814712       -1.33947819576843       -0.14442486549497
N            1.73067021130363       -2.06076445212580       -0.07675554104503
C            0.57854266224040       -1.09376848590957        0.00076778206875
C            1.27093622626955        0.14249065002790        0.11890760087914
C            0.37304395670013        1.27401752516545        0.10198694705633
O            0.34268942438296        2.34263419384962        0.63047413527861
N           -2.45095422097350        1.34170139315057       -0.27101815471350
C           -3.22957049512487        2.71796271395100       -0.22293710277990
C           -2.83097005362152        0.25767994161434       -0.01594169561548
O           -3.57974572317536       -0.68329569698102        0.16775367285085
N           -0.65984625430589       -1.28096923454003        0.00336493714451
C           -1.08966303292697       -2.68598773359444       -0.01960201683544
H            3.74565984369569        1.44998907756571        0.92503824573755
H            4.60308439406775        0.28520205561880        0.26211595941940
H            3.88803418432550        1.35497709726054       -0.74173917587530
H            3.83421736843462       -1.80088344712592       -0.21683732301043
H           -2.37664336737792        3.41061768808171       -0.09379562498554
H           -3.72893420696284        2.98597787470150       -1.14107796971677
H           -3.91110853834095        2.85284118925807        0.61394442297894
H           -0.41482909169817       -3.35826251868635        0.54243596647336
H           -1.12969531672933       -3.10026769064995       -1.03323472969011
H           -2.07474326649508       -2.75084714685228        0.45471663543408
H            1.74946834606267       -3.06228684388568       -0.16034607121820
25