25
 energy: 0.000000000000 xtb: 6.6.1 (8d0f1dd)
C            3.23720163006194        1.16630919979326        0.08434469647475
N            2.29877817382611        0.07527477071623        0.03981603040599
C            2.58028210190900       -1.21425402444508        0.03006176031096
N            1.43813958087363       -1.93419271955128        0.00098261760884
C            0.39035688448383       -1.05887472636071       -0.00790371836672
C            0.93510056364412        0.21347819449412        0.01709077491437
C            0.09450143893243        1.40504303904423       -0.00410947031874
O            0.49712751527797        2.54126714362870       -0.00342325688240
N           -1.25076640035757        1.06271879480407       -0.03085478223738
C           -2.21907211982101        2.15522099834493       -0.05001256985998
C           -1.81739487048744       -0.20012725993278       -0.04692818574614
O           -2.99983886758376       -0.37846417018721       -0.07008878229737
N           -0.92618586207120       -1.30210215599479       -0.03682761578324
C           -1.46982264913417       -2.64643102187190       -0.06029820460571
H            3.71247264356769        1.21471455160235        1.06488849150277
H            4.00791497605742        1.03430808813993       -0.67357694370751
H            2.69910007168542        2.09770118228144       -0.09130154882931
H            3.56654120610678       -1.63682992603973        0.04233140067262
H           -1.67107961066214        3.09322851271934       -0.02552706933167
H           -2.82428953597071        2.09428624779827       -0.95318082946668
H           -2.87644029173232        2.07745725625962        0.81450067533302
H           -1.17061996399332       -3.19584890659852        0.83242232437030
H           -1.14560257411436       -3.17511610292205       -0.95688275822323
H           -2.55549792440841       -2.55659984320617       -0.07459039797972
H            1.38130855184625       -2.94313852034425       -0.01389874181052
25
 energy: -5.224829628152 xtb: 6.6.1 (8d0f1dd)
C            3.25687512640083        1.16868505998158        0.08716036077186
N            2.31301713586198        0.09281690197661        0.03763253803630
C            2.60445928095704       -1.23552510618954        0.02862319768350
N            1.43183499957606       -1.94195459207942       -0.00140685444196
C            0.39904356118700       -1.05656857865441       -0.00831080263657
C            0.93202631845560        0.22207494453877        0.01623453530391
C            0.09273635724995        1.39324446027080       -0.00088101162678
O            0.48949548691957        2.55843906521115        0.00409411430271
N           -1.27712121245277        1.05538964199214       -0.03197574507065
C           -2.23904047072051        2.15809916508940       -0.05324139108906
C           -1.83472452644744       -0.20018469211820       -0.04485337165792
O           -3.03060670656374       -0.39009572744976       -0.06491159858313
N           -0.93376260921942       -1.29879133862102       -0.03508647314338
C           -1.46226788034353       -2.64493230218897       -0.05928284232817
H            3.72635825975074        1.22139355922911        1.07290116770376
H            4.03406813989072        1.02252628165218       -0.66451562924448
H            2.72020952619142        2.09509817027503       -0.10349336513534
H            3.58346918961068       -1.66287322183941        0.03815395000181
H           -1.67565099320985        3.08773458817105       -0.02740696627533
H           -2.84756473606013        2.11953216975253       -0.95730142062656
H           -2.90323410236137        2.10159101446577        0.80955384992492
H           -1.14972571039552       -3.20032716433571        0.82743252817334
H           -1.13755401012880       -3.17138941040981       -0.95908895195300
H           -2.54740577657641       -2.55877108812583       -0.06538803978278
H            1.36728002036413       -2.94618319842204       -0.01760788215971
25
 energy: -5.315028246651 xtb: 6.6.1 (8d0f1dd)
C            3.29156202236552        1.15844893045956        0.09110241497021
N            2.32627020951742        0.10631580560328        0.03295241277169
C            2.62112934130560       -1.25488393504968        0.02519486574756
N            1.42038603995116       -1.94167160051116       -0.00699893378582
C            0.40526114445308       -1.04917632263694       -0.00962914187358
C            0.92667922672131        0.23497695729084        0.01536872056556
C            0.08062863099034        1.37742720681752        0.00683810138560
O            0.45605889228945        2.56244793592148        0.02208531719210
N           -1.32162924548368        1.05113943373220       -0.03356952363720
C           -2.27345546617353        2.16955617597850       -0.06053341310841
C           -1.85876275760302       -0.20039094446711       -0.03873739562375
O           -3.05793863546999       -0.41462939489903       -0.05172535906730
N           -0.94171903030919       -1.28919974674377       -0.03063609916523
C           -1.44251793860113       -2.64273869159424       -0.05703174340351
H            3.74622208250235        1.22789780027017        1.08612449086270
H            4.08981886371825        0.98581487395972       -0.63755960370867
H            2.77694372403327        2.08910360113389       -0.13316601312360
H            3.59281205312822       -1.69161708043912        0.02714646537415
H           -1.68687015989619        3.08594587305411       -0.03151965317778
H           -2.88569416293653        2.16333298331514       -0.96620148893644
H           -2.95157753166610        2.14453124208122        0.79624881231955
H           -1.10055917117233       -3.20765115772213        0.81592077121912
H           -1.12226305455719       -3.15963507109196       -0.96623333478370
H           -2.52827892050986       -2.57249594926644       -0.04176018657306
H            1.34970851133903       -2.94382032302405       -0.02664658629290
25
 energy: -0.849730515982 xtb: 6.6.1 (8d0f1dd)
C            3.34628596731218        1.13169705001784        0.09685647611632
N            2.33813548831558        0.11877973501269        0.02536597752438
C            2.62867739109393       -1.27209927504122        0.01864864557184
N            1.40434378593576       -1.93503290495271       -0.01790719035864
C            0.40755012944712       -1.03517567760301       -0.01213775828441
C            0.91828757129779        0.25535009089896        0.01539237835877
C            0.05351035418960        1.36765883958784        0.02233573592575
O            0.39581295499573        2.56868561906684        0.05543614934403
N           -1.38875576715652        1.05380917547257       -0.03482229281313
C           -2.32833087360360        2.19204439809330       -0.07397311928435
C           -1.89593776558795       -0.20103548743792       -0.02583641626557
O           -3.09245745711807       -0.45554091127766       -0.02671532671908
N           -0.95035093886399       -1.27303091730787       -0.02190812619495
C           -1.40523356566163       -2.64167020558718       -0.05292754358438
H            3.76518323422989        1.22907629423404        1.11025520578597
H            4.18463617665726        0.90096527570655       -0.58200504991250
H            2.88811231010807        2.07868706799244       -0.19377624591408
H            3.59299514659338       -1.72321504470901        0.00366182796012
H           -1.71383732938846        3.09146962528646       -0.03863716350640
H           -2.94038448465490        2.22663368598831       -0.98392204240551
H           -3.02811841969729        2.20807929968941        0.77082382830803
H           -1.00673598048669       -3.21814579203464        0.79441062999654
H           -1.09775606253927       -3.13490275080484       -0.98249130287079
H           -2.49261972063153       -2.60726817672848        0.00582200461920
H            1.32920252314987       -2.93679041139075       -0.04491538524985
25
 energy: 12.706620840876 xtb: 6.6.1 (8d0f1dd)
C            3.42591967782911        1.08760434359438        0.10576395105051
N            2.35297625867656        0.13377241484566        0.01319992321151
C            2.63515697877285       -1.29406054613815        0.00852096971387
N            1.38363844943361       -1.92444831701033       -0.03479173829148
C            0.40955194292310       -1.01605977749286       -0.01529547331103
C            0.90557008528374        0.28392708146294        0.01706059565585
C            0.01143371449607        1.35615669862797        0.04775094574780
O            0.30278497041922        2.57364091162674        0.10972578657306
N           -1.49321721072684        1.06166965005756       -0.03864233257244
C           -2.41082429231813        2.23170039643308       -0.09552168002069
C           -1.95405055493391       -0.20234011573136       -0.00573413727128
O           -3.14164002384115       -0.52162325429061        0.01347121917998
N           -0.96166344464798       -1.24881971288781       -0.00730830725541
C           -1.34650687572679       -2.64142728711393       -0.04639217749541
H            3.78292356731616        1.23462572749964        1.14805831468055
H            4.32531916520849        0.76451305040156       -0.49015135642515
H            3.06046797556063        2.05812396481677       -0.29295366645604
H            3.59059477178070       -1.76467156690764       -0.03737171981572
H           -1.75320170486259        3.10397233037217       -0.04886984401181
H           -3.01928915188728        2.32747444281836       -1.01278108834333
H           -3.14161768744977        2.30852034900670        0.73056237846356
H           -0.86012952107422       -3.23376932971468        0.75927257511667
H           -1.06384721351479       -3.09680727426540       -1.00881769341628
H           -2.43505227750882       -2.66553840802371        0.08261881690065
H            1.30691706872828       -2.92710716981513       -0.07434036546063
25
 energy: 28.431467199748 xtb: 6.6.1 (8d0f1dd)
C            3.48836503417638        1.04273435228270        0.11344563034273
N            2.36487431193857        0.13569741005672        0.00134828538113
C            2.63566741234559       -1.30857429944788        0.00056971600042
N            1.37745915569646       -1.91605440488644       -0.04743240913337
C            0.41238782542384       -1.00740023723037       -0.01466339299327
C            0.89844906121547        0.30101590386689        0.02335714519672
C           -0.02094961890567        1.34874808261569        0.07217722814123
O            0.22096460600869        2.56107737496254        0.16209035063292
N           -1.59424311577639        1.07688466649040       -0.05062854436307
C           -2.48403511083613        2.27886632280403       -0.11650059531983
C           -2.00826592691837       -0.20344989264036        0.00946094401929
O           -3.17409739972002       -0.59019951600101        0.04893769627934
N           -0.96542088643671       -1.22791456923012        0.00802731481313
C           -1.29416749880152       -2.64074600704949       -0.04008557835074
H            3.79206576853366        1.24699865863129        1.17180786162409
H            4.42445852469889        0.65376787361899       -0.40798633798726
H            3.20746019652825        2.02246634599706       -0.37009577053064
H            3.58804362230658       -1.79135735072656       -0.08156882950565
H           -1.78699495418291        3.12273580889264       -0.05671494569354
H           -3.08473195284510        2.42676072554107       -1.03903626531280
H           -3.23353222719170        2.40418825893688        0.69388045342181
H           -0.74407607068786       -3.23983728714881        0.72770838526839
H           -1.04178534390457       -3.06737775848507       -1.02789207963607
H           -2.37724752937905       -2.71662924217492        0.14622413653474
H            1.31156678464988       -2.92337261750399       -0.09939650268241
25
 energy: 38.620598804522 xtb: 6.6.1 (8d0f1dd)
C            3.51695905501780        0.99767792072359        0.11599576253807
N            2.37441963354700        0.10711040200237       -0.01158207703629
C            2.62003453529857       -1.30249709676428       -0.00013044549561
N            1.40202576567604       -1.90870946988568       -0.05192072112126
C            0.41477439844298       -1.01765829723323       -0.00931984483192
C            0.90928554215327        0.29476676201126        0.03520704080717
C           -0.02304982941695        1.35662518459839        0.08824319915568
O            0.16751015880578        2.51676251950600        0.21106520343334
N           -1.68313377746797        1.10739367961544       -0.08118814303479
C           -2.53893060375927        2.33349900947139       -0.13334089744931
C           -2.05462458604327       -0.20059437345974        0.01192926657020
O           -3.16836920152838       -0.65624546613110        0.07437275130221
N           -0.95230908627535       -1.21202352717918        0.02241562421347
C           -1.26020856092924       -2.63676362235243       -0.03412633716921
H            3.78697548809865        1.26376378729890        1.16140643920857
H            4.43749421909600        0.59763873478392       -0.34863228804756
H            3.30065167531509        1.95645098037875       -0.39607995933331
H            3.58133138907775       -1.78418275201200       -0.12194340719435
H           -1.81946817576986        3.15004810777472       -0.05967207157223
H           -3.12276268531233        2.50460853259412       -1.05546728496272
H           -3.27862008636007        2.47410285218167        0.66903633196975
H           -0.69829146088932       -3.22287032219750        0.70435185263177
H           -1.04510672397565       -3.05380195499066       -1.02932447681629
H           -2.32326453155287       -2.74763858995331        0.17767401127010
H            1.36889211668793       -2.92843439860951       -0.11193563288816
25
 energy: 52.091432724852 xtb: 6.6.1 (8d0f1dd)
C            3.57107767889517        0.95635734333517        0.12001243622286
N            2.39724677156112        0.10234176965337       -0.01821154409829
C            2.62553376354386       -1.29710520154849       -0.00416543947219
N            1.41182492609750       -1.90304157528483       -0.06784190442795
C            0.41656899545437       -1.00667933328155       -0.01909734720156
C            0.92168460303034        0.30468010038372        0.02941039568306
C           -0.03071602118422        1.36414247664449        0.09451841888108
O            0.11469889728191        2.54002585928720        0.30451870935612
N           -1.75829734387684        1.11433036824497       -0.10241066004533
C           -2.60950426995478        2.36021241798156       -0.15202064382682
C           -2.10526242670808       -0.19675370178507        0.01042484446995
O           -3.19989582231177       -0.70373783960752        0.10849121010121
N           -0.94969156568973       -1.19642519738561        0.02600969186132
C           -1.22775605621324       -2.63161780800477       -0.02524741408417
H            3.78947593137323        1.25370567317450        1.16889140076941
H            4.50535412552203        0.47161220671892       -0.27224151213275
H            3.42979126806153        1.90037807606865       -0.46326763618820
H            3.58306005060308       -1.78038763532749       -0.15509316499795
H           -1.89009955690002        3.16998622107431       -0.06791942705192
H           -3.18614719978196        2.57301808279351       -1.07759147912536
H           -3.36401548325283        2.53740419613397        0.63792351331002
H           -0.60684645024212       -3.21001765262910        0.68215187057614
H           -1.03822619737037       -3.02918654016588       -1.03416464617416
H           -2.27740706229116       -2.78268262108127        0.23369990328764
H            1.38976311228934       -2.92153108322091       -0.12974567954484
25
 energy: 61.113208454406 xtb: 6.6.1 (8d0f1dd)
C            3.60355186231755        0.92847110514824        0.11790867753666
N            2.43084489774396        0.08551820267670       -0.01692265321647
C            2.63648475562895       -1.26419850815327       -0.00830719122244
N            1.44085164137887       -1.90462848476185       -0.08518872032147
C            0.41531709807960       -0.99702301335219       -0.03698119420242
C            0.96025675805150        0.29849986246928        0.02034112909750
C            0.00466320550940        1.37996175613265        0.09276695064474
O            0.12710400643963        2.56685000654239        0.41428143104408
N           -1.79758830741639        1.11476956321694       -0.13103083167824
C           -2.67192927035981        2.36620297619112       -0.16860034725602
C           -2.15320405050899       -0.17775513317133        0.00025310869452
O           -3.22610219054279       -0.70622814868654        0.13168022420602
N           -0.93920744410578       -1.19124417090663        0.01922548777817
C           -1.22296839978871       -2.62626304550827       -0.01706519435705
H            3.77681667843753        1.23573294943119        1.15127568737336
H            4.51332985331505        0.36749818147125       -0.20734199531444
H            3.51421589969940        1.81778350719593       -0.51008344314216
H            3.59196094972172       -1.73662780202816       -0.17116204614690
H           -1.98228292193303        3.19251000071223       -0.07126708168959
H           -3.24181897752176        2.60028777545881       -1.09524222967135
H           -3.43417917157937        2.55421526180652        0.61592040693999
H           -0.56004382276176       -3.18677911306970        0.66583462874428
H           -1.05511218162198       -3.01881096554170       -1.02628299853089
H           -2.24859761077587       -2.79451689750412        0.27736022761867
H            1.42985141052947       -2.91519726359764       -0.13433813678122
25
 energy: 78.687550051777 xtb: 6.6.1 (8d0f1dd)
C            3.65232272838942        0.89201804856498        0.12521227340623
N            2.45294093620215        0.07961281392185       -0.01471832366587
C            2.64873874362099       -1.25908329068724       -0.01979202785118
N            1.45642801964886       -1.90698324415274       -0.10174157627760
C            0.42088015934825       -0.98945754599782       -0.03990255616570
C            0.97695454630318        0.30186872520343        0.03731914125698
C            0.01831223775680        1.38138454609762        0.13050393758994
O            0.13466256496514        2.54192918857030        0.43765231617719
N           -1.87168692422667        1.13351549735748       -0.14238996556973
C           -2.75569540650781        2.39855023409114       -0.18698422082136
C           -2.20898017118965       -0.15485167646910        0.01540106584525
O           -3.26137414453267       -0.72917508838113        0.15940088885371
N           -0.93183033069591       -1.17889377626799        0.02529506450379
C           -1.19268043523458       -2.62301095743525       -0.01536961211429
H            3.76894873678257        1.25536666117462        1.16222954373384
H            4.56471960603073        0.26555657403271       -0.11982735672198
H            3.63873057850589        1.75226509572929       -0.58966084670378
H            3.60539129844227       -1.73056468387784       -0.20770739538128
H           -2.06168832427675        3.22486482413799       -0.06783000674888
H           -3.31682850566977        2.66048674656999       -1.11769322805500
H           -3.53293790518546        2.59731209980998        0.58610345688249
H           -0.49006294931436       -3.18455588340547        0.63419624402829
H           -1.05961236328110       -3.00617493282614       -1.03809505109373
H           -2.20287952249410       -2.81660317537461        0.33157057941812
H            1.45944149454900       -2.91634819821426       -0.15613844837811
25
 energy: 89.530531337114 xtb: 6.6.1 (8d0f1dd)
C            3.67934754109998        0.87530616514360        0.12851711893161
N            2.47444091532710        0.06997473160533       -0.00209420569280
C            2.66657631964994       -1.25714428435090       -0.03834523982183
N            1.47873666657937       -1.92282636051793       -0.11045407250629
C            0.43126741158372       -0.98998951779213       -0.04091874254649
C            1.00587122272063        0.29195810431349        0.05649722890506
C            0.06227893937719        1.38344844902176        0.15376028937183
O            0.19254344680586        2.52025511053976        0.43106535279110
N           -1.90968706285589        1.15400890608825       -0.15184952682293
C           -2.82440620970454        2.42064425678088       -0.19666414746814
C           -2.25500679019384       -0.11592477409010        0.02109664137481
O           -3.29290321812291       -0.70636984142393        0.16516116169292
N           -0.91429960069354       -1.18190869405744        0.02419942945675
C           -1.18101439871205       -2.62497343656864       -0.01491997431067
H            3.77648211678293        1.27716704374574        1.14595477169279
H            4.56056873918986        0.24766909319161       -0.06733851118100
H            3.70237134322698        1.68517482999627       -0.60991917805584
H            3.62645486930537       -1.72734458748112       -0.22197066248149
H           -2.13713258365993        3.26076625328669       -0.06272177506653
H           -3.37949458872882        2.68092908491769       -1.12911060509262
H           -3.60985612011566        2.59787486627798        0.57305115857561
H           -0.47736627205293       -3.19061791015818        0.61492311279280
H           -1.07685950310086       -3.01779840405333       -1.03822266604630
H           -2.17569014077892       -2.81190716143521        0.36193374733218
H            1.48899162500738       -2.92934332080838       -0.16459680967718
25
 energy: 103.018986914130 xtb: 6.6.1 (8d0f1dd)
C            3.70342281785044        0.86557328394099        0.12552316007848
N            2.50127991563751        0.05677167925300        0.01978403563741
C            2.69820400940548       -1.26765081440981       -0.06443281316560
N            1.51899042367488       -1.95222208257413       -0.11421983288613
C            0.45578685327218       -1.00601441744468       -0.04304341064229
C            1.04853013240396        0.26800606883625        0.07270214486038
C            0.13527890105361        1.37476638086993        0.15412472401126
O            0.25710288961353        2.49237625586853        0.45781524182285
N           -1.97586305256339        1.18855525014723       -0.17776841676528
C           -2.91990835423128        2.46794701187912       -0.19921521514456
C           -2.33268158664743       -0.05372700671520        0.01382530930774
O           -3.34067864710601       -0.67397460232677        0.16520372829664
N           -0.87865197812188       -1.19978512059745        0.01619718801079
C           -1.16607244922985       -2.63529495002858       -0.01445905648096
H            3.76953528085914        1.34467562598245        1.11371585957995
H            4.56041627989184        0.22471848622238        0.02238016990021
H            3.78179099230875        1.60200836061698       -0.66371383123565
H            3.66569936001747       -1.73710110831656       -0.22929719388830
H           -2.22191741346590        3.31132284141224       -0.05626501605723
H           -3.47018482427788        2.72365898536722       -1.12892777181314
H           -3.69716460223878        2.61118894339160        0.57742879237564
H           -0.48018980685629       -3.20948947068877        0.59301604342579
H           -1.10280152926076       -3.05010999613183       -1.03129921727694
H           -2.13979733430109       -2.79841906522201        0.38858756531326
H            1.54208839024819       -2.95875193716033       -0.17062829111700
25
 energy: 111.341518864936 xtb: 6.6.1 (8d0f1dd)
C            3.72540545953969        0.85483449675616        0.12025715829033
N            2.53570670999001        0.03115856599700        0.05071795870632
C            2.73092028272965       -1.27492443556925       -0.08175611779500
N            1.56423730934332       -1.97724551163742       -0.10742771771280
C            0.47924988629659       -1.02282323750973       -0.03502526351662
C            1.09712526853340        0.23982296867128        0.09970237856164
C            0.20155589030526        1.36160801123989        0.13320547178919
O            0.30591048892611        2.45262321931300        0.49553959483360
N           -2.06909689613429        1.22489606905521       -0.21357342506819
C           -3.01568068147938        2.52481771329132       -0.20453638438549
C           -2.42887861950341        0.00968348327846        0.00306915220153
O           -3.39624496609364       -0.67523207450926        0.17875964164822
N           -0.83886180434757       -1.21143205666341        0.00799733229867
C           -1.14794538391411       -2.64275462928045       -0.01716518823792
H            3.75873045439278        1.39675730872602        1.07606042877496
H            4.56726762202311        0.19614486411246        0.11043617055304
H            3.84981672028507        1.51998116732936       -0.71268309898991
H            3.70550208528246       -1.74315233140662       -0.24883145778958
H           -2.29080675071382        3.35179910963132       -0.05727243898286
H           -3.55852063615928        2.79114726355411       -1.13165889004006
H           -3.77689042184129        2.65883193630663        0.58405965096190
H           -0.45227918142032       -3.23355205007078        0.56417295266777
H           -1.12437941836586       -3.06528190338397       -1.03563404981029
H           -2.10989895610515       -2.79471022978473        0.42283618088604
H            1.60027020636715       -2.98396911527481       -0.17421614369711
25
 energy: 115.616159715946 xtb: 6.6.1 (8d0f1dd)
C            3.74520974024780        0.84702168135366        0.11091960233979
N            2.57152998200910        0.00052651920554        0.06312900111925
C            2.76609690723681       -1.28599183328173       -0.10088323661701
N            1.61329319049220       -2.00399126621275       -0.10188813529002
C            0.50471827974043       -1.04250404589569       -0.02604819819421
C            1.14666461932231        0.20940247231706        0.11442524979696
C            0.25463274124005        1.34180134912505        0.13063140684934
O            0.33507541391230        2.41258875636311        0.53624219381103
N           -2.17121008775556        1.25702326139705       -0.23643366665826
C           -3.09926579951918        2.58232480915388       -0.20997939982363
C           -2.53387323930714        0.07205606806515       -0.00143399513503
O           -3.45208361164517       -0.67104925072956        0.17900576496260
N           -0.79706128528690       -1.22650104250924        0.00692106283161
C           -1.12789430451957       -2.65442602493631       -0.01660704034854
H            3.74680043469714        1.43541648244710        1.03909150540621
H            4.57886612807898        0.19230994088331        0.18070174479536
H            3.89777315252422        1.45036600723976       -0.75684145753538
H            3.74603756034928       -1.75224875881645       -0.25417814763260
H           -2.33996045639026        3.38384023223745       -0.06245503320356
H           -3.63436732815095        2.86094122657667       -1.13419162221718
H           -3.84331803774682        2.71897041499214        0.59138323671952
H           -0.44192389685923       -3.26310051142577        0.54636416664583
H           -1.13194487458653       -3.08033429550696       -1.03349655483099
H           -2.07902841264497       -2.78541613744566        0.43658849807218
H            1.65744785249819       -3.00999745242508       -0.17393304971592
25
 energy: 116.535364631577 xtb: 6.6.1 (8d0f1dd)
C            3.76049604906835        0.84419668008921        0.10099081984105
N            2.60260294957600       -0.02586763750957        0.06166990006379
C            2.80089145961326       -1.30314025983262       -0.11506369372721
N            1.65931912323869       -2.03033751600776       -0.09783117331729
C            0.53176349819884       -1.06397706016945       -0.02028523834985
C            1.18766222711922        0.18320005934037        0.11849937625035
C            0.29049502348266        1.31741287027657        0.13234553075282
O            0.34295817137239        2.37487438231594        0.57134528879126
N           -2.26966226232194        1.28778771320179       -0.25233914781438
C           -3.16126001768174        2.63970342906833       -0.21524613172092
C           -2.63531322912978        0.12460984975000       -0.00338560593705
O           -3.50545378538202       -0.67207815562971        0.17760345071223
N           -0.75869048840867       -1.24370869843389        0.00938139861639
C           -1.10911066647784       -2.66843069285318       -0.01590403770247
H            3.73975907983754        1.45647636446308        1.00637533318455
H            4.59399798666061        0.20944818836373        0.22653182961527
H            3.92148966837332        1.40273951609635       -0.77940277855311
H            3.78562930008577       -1.76745730608627       -0.24590046618848
H           -2.36882262696279        3.41169091703818       -0.07135779637223
H           -3.69088292745323        2.92916531099558       -1.13592486159559
H           -3.88911266039889        2.78580443453601        0.59708190781437
H           -0.43220043908308       -3.29758639149080        0.53643092457932
H           -1.13103658194156       -3.09144917573071       -1.03370052183680
H           -2.05956440405599       -2.77818544997139        0.44586273274999
H            1.70626022060741       -3.03586276964801       -0.17074314370863
25