25
 energy: -43.834773036519 gnorm: 0.093453383114 xtb: 6.6.1 (8d0f1dd)
C            3.24773670124734        1.18753240671044        0.08688584945693
N            2.31151855307630        0.09755385730700        0.03838156537710
C            2.60802866832346       -1.22513819455720        0.03043235562472
N            1.46309096877836       -1.93254253930567        0.00344603321970
C            0.41860529972972       -1.06478442868011       -0.00836466145056
C            0.94460311000343        0.22588225439904        0.01164109357520
C            0.10961652645018        1.39137482325877       -0.00540163155621
O            0.50084370504387        2.56018046101248       -0.00418607522765
N           -1.25437408942789        1.04257981814808       -0.03110566738126
C           -2.21684742756544        2.14119290808823       -0.04987985444856
C           -1.80042560629273       -0.21993364703201       -0.04761920475751
O           -3.00919495363518       -0.39786423062613       -0.07049341177902
N           -0.91993851574130       -1.33931846917623       -0.03763724013997
C           -1.56019084175270       -2.64333901466315       -0.06225907569888
H            3.72759240097378        1.23492563395604        1.06811050362138
H            4.02002416748050        1.06837830796137       -0.67750005352219
H            2.70071794669503        2.12525945827277       -0.08202279768994
H            3.59825355287003       -1.64685363846316        0.04378006478238
H           -1.66043920599539        3.07727853975756       -0.02545577873685
H           -2.81950559997006        2.07872819271240       -0.95451851208750
H           -2.87104025694801        2.06105010422690        0.81662315980262
H           -1.26022172106873       -3.22183923287769        0.82914756095960
H           -1.23477776491093       -3.20086888442017       -0.95758545425543
H           -2.60424429188638       -2.51198498144612       -0.07552770374463
H            1.40995114626223       -2.93368126647140       -0.00857431069834
25
 energy: -43.838479817647 gnorm: 0.032627953044 xtb: 6.6.1 (8d0f1dd)
C            3.24956884385822        1.19051816313588        0.08887106646533
N            2.31673574978355        0.10513165762198        0.03593629441116
C            2.61626099364958       -1.23376191841867        0.03073074528712
N            1.44581740504658       -1.93609701098035        0.00288946028052
C            0.41116944673752       -1.06344765426770       -0.00922319894901
C            0.93578609584564        0.22573830536971        0.01040306834783
C            0.11180433542430        1.38379387908919       -0.00688904167496
O            0.49467888225556        2.56056990679258       -0.00577132855328
N           -1.26062050058155        1.03722179708662       -0.03161015027622
C           -2.21809763360763        2.13433390624087       -0.04969467291696
C           -1.80734180331613       -0.21300528372936       -0.04772602339986
O           -3.01039773576700       -0.39239735690062       -0.07052144369016
N           -0.92847548331810       -1.32452110790859       -0.03787683110101
C           -1.52953712213921       -2.64241462114385       -0.06156671517524
H            3.73296951126499        1.23790621166796        1.06915381237732
H            4.01738862633539        1.07165819677996       -0.67868017388558
H            2.69661845211583        2.11685503217791       -0.07855252843978
H            3.59737441271125       -1.65560131852860        0.04458448294583
H           -1.64913697995500        3.06164957578607       -0.02524449088298
H           -2.82254278955519        2.08067352086493       -0.95447298317349
H           -2.87403529459051        2.06354878365945        0.81708479611167
H           -1.24451539451920       -3.21651499209154        0.82880208258452
H           -1.21913710161829       -3.19591877190656       -0.95638035188867
H           -2.59819772646121       -2.50327995065986       -0.07520136506343
H            1.38524528214011       -2.93887071164539       -0.00872775649552
25
 energy: -43.838531071739 gnorm: 0.020735482709 xtb: 6.6.1 (8d0f1dd)
C            3.24987838884065        1.19787551896333        0.08692272160066
N            2.32128415618787        0.11577557666265        0.03242619605190
C            2.63287913725006       -1.22956955074914        0.03173538018027
N            1.45342055922644       -1.93758085652514        0.00381999920955
C            0.41540925455197       -1.07300848095051       -0.00822039047863
C            0.93123569233032        0.22166979179693        0.01126570334030
C            0.12093492999217        1.37678763749665       -0.00397606724561
O            0.49714941899331        2.55761606625061       -0.00165356478276
N           -1.25953993969299        1.03308595384621       -0.03035009686882
C           -2.21480323205255        2.13200196107091       -0.04973523339979
C           -1.80242975079748       -0.21394017853734       -0.04715687655122
O           -3.00182271133291       -0.39957068791209       -0.07089021608765
N           -0.92992837962048       -1.32518869113099       -0.03700235572878
C           -1.53511119696910       -2.64329640407378       -0.06172049753153
H            3.72842147304877        1.24066175011099        1.06982573838298
H            4.02231537292162        1.07010536928784       -0.67464564318773
H            2.70473908614220        2.12425084694993       -0.08546183659338
H            3.61071807855837       -1.64024397550024        0.04311313407071
H           -1.66274455550428        3.07081424417044       -0.02514930992436
H           -2.81936631866868        2.07591138770097       -0.95440156038735
H           -2.87254832965875        2.05850761579727        0.81540936390596
H           -1.27898158241345       -3.22302198663295        0.82745076948725
H           -1.25298587525341       -3.20136589532759       -0.95702517199930
H           -2.61877448376600       -2.49338122486553       -0.07593496009258
H            1.41003327942585       -2.94112754980740       -0.00832847212495
25
 energy: -43.839094790150 gnorm: 0.009589983930 xtb: 6.6.1 (8d0f1dd)
C            3.24757309369108        1.19125883835623        0.08785827901080
N            2.31579422703681        0.11222721859857        0.03334430349672
C            2.62314759981665       -1.23252058824735        0.03222327654615
N            1.44546273762825       -1.93614374072897        0.00356005533996
C            0.41135251139496       -1.07002204776286       -0.00844193240787
C            0.92770269211290        0.22417656195656        0.01151759774673
C            0.11949121764081        1.38148970805684       -0.00638104459948
O            0.49428570632342        2.56104773912648       -0.00571136811714
N           -1.26256197319736        1.03771157204058       -0.03185331166002
C           -2.21507407938339        2.13896962425261       -0.04986195718241
C           -1.80607475909090       -0.21135560170233       -0.04775169696684
O           -3.00696774653736       -0.39757689964533       -0.07045128520813
N           -0.93240092859841       -1.32314465463787       -0.03749658776090
C           -1.52614397411088       -2.64638319535177       -0.06139089928038
H            3.73007600588398        1.23135885407573        1.06906652737969
H            4.01761116025119        1.06624799772155       -0.67728017001214
H            2.70299414536811        2.12058122370157       -0.07874086393083
H            3.59893772169468       -1.64885476512339        0.04340178969947
H           -1.65828513525861        3.07543433020072       -0.02588033583034
H           -2.82084849689099        2.08393148122552       -0.95399106668880
H           -2.87123105487716        2.06643163557128        0.81680059475790
H           -1.25240721534938       -3.21767657879424        0.82819536166071
H           -1.22714287264852       -3.19719276398189       -0.95589748391527
H           -2.60861104383095       -2.51721198213686       -0.07546193194850
H            1.40270293267057       -2.93901572867934       -0.00905909688395
25
 energy: -43.839095483474 gnorm: 0.009000870881 xtb: 6.6.1 (8d0f1dd)
C            3.24816320765310        1.19107243932350        0.08781069682396
N            2.31772398234211        0.10845053552167        0.03469568755184
C            2.62107036197180       -1.23538008947967        0.03306216470191
N            1.44483278431985       -1.93616306240933        0.00354284525574
C            0.41360579194162       -1.06886290584634       -0.00885151726070
C            0.93156177168393        0.22439485595845        0.01189811423323
C            0.12116886208125        1.38223592175292       -0.00573030093235
O            0.49378209051456        2.56081062117934       -0.00393864214073
N           -1.26096786871457        1.03615138023341       -0.03126995244551
C           -2.21703360352395        2.13199912693842       -0.04956418103187
C           -1.80483840825042       -0.21258771323954       -0.04779177539801
O           -3.00712178406819       -0.39794648663272       -0.07070391602052
N           -0.92918659224426       -1.32250567951248       -0.03798018837869
C           -1.52996172224795       -2.64030594342058       -0.06196040046762
H            3.73208625924779        1.24205626827561        1.06823531023638
H            4.01869739394196        1.07386916930504       -0.67847283305337
H            2.69626244170462        2.11725384197675       -0.08114934271970
H            3.59755753559143       -1.65606512817266        0.04440789411044
H           -1.65147922473769        3.06211722286888       -0.02445547427735
H           -2.82109041220366        2.07607686030701       -0.95509881924817
H           -2.87398508433586        2.05835695261112        0.81684633042883
H           -1.25492240990589       -3.21294380860745        0.82851749018264
H           -1.22947725504271       -3.19202515920273       -0.95743623045439
H           -2.60564525183428       -2.49741112316491       -0.07574992921756
H            1.39857960585491       -2.93887985847168       -0.00854627723330
25
 energy: -43.839217658286 gnorm: 0.002790292458 xtb: 6.6.1 (8d0f1dd)
C            3.24891956696371        1.19157240547871        0.08867457556618
N            2.31748295061594        0.11093040530041        0.03330325358565
C            2.62284151545335       -1.23311113823043        0.03162523514112
N            1.44557474610726       -1.93540001889308        0.00267652048506
C            0.41299623668207       -1.06974211947525       -0.00924079474576
C            0.92984729933520        0.22454735704143        0.01088671969669
C            0.12108679592673        1.38171212923297       -0.00640077168215
O            0.49293268175927        2.56075378615975       -0.00499937273757
N           -1.26239165926167        1.03639524469259       -0.03153878434622
C           -2.21661630622074        2.13495191257652       -0.04988028263850
C           -1.80548148112882       -0.21244347425366       -0.04745370364165
O           -3.00725882635513       -0.39754802896418       -0.07022120109140
N           -0.93069858413033       -1.32349456249651       -0.03758833078794
C           -1.52937513680178       -2.64412113895540       -0.06116370386795
H            3.73120252064601        1.23671376503878        1.07014502259701
H            4.02023831637147        1.06992635281069       -0.67600500985961
H            2.70234680892737        2.12044357756431       -0.08000965988761
H            3.60027901248911       -1.65014314714696        0.04253178807960
H           -1.65465850765120        3.06751362606144       -0.02589319169965
H           -2.82204505298578        2.08062332073177       -0.95441097651019
H           -2.87332367700450        2.06381696317170        0.81668827167401
H           -1.25706987536612       -3.21890497037124        0.82823681947912
H           -1.23177914330077       -3.19826181255313       -0.95560453962299
H           -2.60733887021408       -2.50444911725521       -0.07498608659527
H            1.40167114088293       -2.93851307917400       -0.00905504334485
25
 energy: -43.839204145925 gnorm: 0.003168708371 xtb: 6.6.1 (8d0f1dd)
C            3.24721103031207        1.19166499314359        0.08632138859184
N            2.31733802716161        0.11045154936752        0.03391424232335
C            2.62327725570318       -1.23382597545711        0.03411540899724
N            1.44558762313489       -1.93618272464364        0.00497414007161
C            0.41297836683021       -1.07070693653136       -0.00768747681946
C            0.92939825134408        0.22381846688508        0.01262132231632
C            0.12288529970908        1.38144567065093       -0.00471529528879
O            0.49500164561077        2.56034751869835       -0.00324055906419
N           -1.26175748253985        1.03689725425674       -0.03096971421826
C           -2.21552473914233        2.13576618253406       -0.04934247142456
C           -1.80481424205088       -0.21171230415724       -0.04787031934974
O           -3.00634141065168       -0.39681336057559       -0.07170826600537
N           -0.93101843392034       -1.32319120716123       -0.03744492076866
C           -1.52933221951065       -2.64388997064696       -0.06261183024887
H            3.73076511028008        1.23725644759275        1.06701554912521
H            4.01667827784429        1.06921171953676       -0.68005002976984
H            2.69895172882926        2.11948014664299       -0.08217404308919
H            3.60065717986393       -1.64999381256226        0.04555340746858
H           -1.65754465896714        3.07098084000630       -0.02400363126968
H           -2.81989794373926        2.08049993091823       -0.95440499445942
H           -2.87258507235060        2.06189081663389        0.81656056711831
H           -1.25665437609982       -3.21731539679435        0.82716988915641
H           -1.23022082453721       -3.19556453948594       -0.95772318828751
H           -2.60838919787773       -2.50724946702191       -0.07714869077103
H            1.40273327650355       -2.93949760373757       -0.00683373108918
25
 energy: -43.839224948799 gnorm: 0.001293556157 xtb: 6.6.1 (8d0f1dd)
C            3.24801010727091        1.19144980059617        0.08845191134112
N            2.31751645946679        0.11045731832761        0.03347487614791
C            2.62286574465567       -1.23374100764590        0.03217688458581
N            1.44545776096134       -1.93575960398343        0.00266563017750
C            0.41307927727162       -1.07026573244266       -0.00902939822541
C            0.92958717186885        0.22429915376788        0.01129408888292
C            0.12247666767888        1.38172050425793       -0.00626405328489
O            0.49368257661404        2.56075436848172       -0.00507752958580
N           -1.26223671716945        1.03649419970832       -0.03162833568825
C           -2.21603014563068        2.13503709366027       -0.04993889035138
C           -1.80507621409968       -0.21219604871967       -0.04759608473615
O           -3.00669563995754       -0.39771695662111       -0.07021235586450
N           -0.93077050847581       -1.32316491451867       -0.03760275174861
C           -1.52969559098797       -2.64343952168979       -0.06122802909246
H            3.73039063280839        1.23645119024688        1.06979015636756
H            4.01894722224325        1.07018361431909       -0.67666468940222
H            2.70045867395396        2.11980693237296       -0.07972633779599
H            3.60017548373834       -1.65048107648740        0.04306666252555
H           -1.65615546789186        3.06907357816644       -0.02571401507649
H           -2.82108660456671        2.07949275875317       -0.95458538603820
H           -2.87245236585494        2.06222812804813        0.81661858319864
H           -1.25610076550301       -3.21628839072082        0.82881885916522
H           -1.23122553960438       -3.19591033535735       -0.95625014171996
H           -2.60809765594301       -2.50568297102536       -0.07486911445774
H            1.40235790889247       -2.93903384340241       -0.00965378607904
25
 energy: -43.839202215105 gnorm: 0.003184278866 xtb: 6.6.1 (8d0f1dd)
C            3.24953176228596        1.19147179794358        0.08720339658151
N            2.31758303140052        0.11084665355819        0.03354278007970
C            2.62210432370178       -1.23312318727946        0.03294837766516
N            1.44516663621668       -1.93488801397501        0.00462999384163
C            0.41287650258917       -1.06959858185877       -0.00829968169290
C            0.92954830261111        0.22508881592982        0.01170532852897
C            0.12133562357975        1.38206903924828       -0.00544209912851
O            0.49135202401590        2.56124976293883       -0.00366698519432
N           -1.26342498215434        1.03600825195041       -0.03102490751415
C           -2.21681620680698        2.13490625075221       -0.04925999273541
C           -1.80586022145994       -0.21293765582463       -0.04765136986757
O           -3.00768241938100       -0.39847782829820       -0.07117274487274
N           -0.93069248952081       -1.32368132841348       -0.03752938469613
C           -1.52957737826472       -2.64439670488519       -0.06236586887709
H            3.73272575556819        1.23835245697711        1.06815775393631
H            4.02070752742848        1.06910706280044       -0.67759445434744
H            2.70349667705886        2.12054907927928       -0.08254760737898
H            3.59960293977230       -1.65037219794080        0.04357386759718
H           -1.65268060348352        3.06615880547738       -0.02474382042549
H           -2.82205762649839        2.08195840869760       -0.95406663559244
H           -2.87405620548516        2.06469875691001        0.81707496420026
H           -1.25780348788679       -3.22025909638574        0.82674911133823
H           -1.23078111388147       -3.19841854403977       -0.95666618752876
H           -2.60677884068095       -2.50444389990965       -0.07713061867922
H            1.40156294101487       -2.93809986556040       -0.00610646199267
25
 energy: -43.839225035710 gnorm: 0.001169707637 xtb: 6.6.1 (8d0f1dd)
C            3.24854538028192        1.19149643522258        0.08772806186193
N            2.31761594789196        0.11047148411839        0.03352951587575
C            2.62249396003346       -1.23356181425224        0.03266054834147
N            1.44535842041237       -1.93538500182536        0.00368522773139
C            0.41301506411391       -1.07004693793127       -0.00863705854521
C            0.92959503803926        0.22461831695400        0.01158632075889
C            0.12237074287282        1.38192589720679       -0.00569075430001
O            0.49302681695370        2.56093182997171       -0.00414491975844
N           -1.26273120027409        1.03641700851720       -0.03127643618810
C           -2.21641305601105        2.13507820722091       -0.04961980092051
C           -1.80532615156691       -0.21235978584232       -0.04764383580795
O           -3.00709100721396       -0.39764190023302       -0.07088125436660
N           -0.93070210556593       -1.32342510734850       -0.03755302004391
C           -1.52958736492683       -2.64403416216268       -0.06180096185489
H            3.73154641044182        1.23746476411004        1.06877878770061
H            4.01929901319464        1.06993498326139       -0.67757218023377
H            2.70134234401251        2.12004015998440       -0.08101355416457
H            3.60000175159638       -1.65046114480285        0.04353692288034
H           -1.65472565681581        3.06788650801735       -0.02508021402628
H           -2.82149560481027        2.08091324763050       -0.95440471991939
H           -2.87346793542447        2.06349952763600        0.81666005797524
H           -1.25698554450438       -3.21878590425551        0.82759889019377
H           -1.23104790897354       -3.19757596865991       -0.95635372362869
H           -2.60726329197475       -2.50498452199137       -0.07597798017237
H            1.40200840995673       -2.93864788245423       -0.00779716614355
25
 energy: -43.827339798657 gnorm: 0.134681264894 xtb: 6.6.1 (8d0f1dd)
C            3.25748468955353        1.20919899768184        0.08909205700586
N            2.32576865505992        0.11882117852829        0.03587741757467
C            2.63759028945672       -1.22779861822422        0.03149026941811
N            1.49089141153033       -1.92910227175414        0.00575346104036
C            0.44267816118392       -1.08085159292919       -0.00855142966125
C            0.96188559394243        0.21384009509135        0.00730995202422
C            0.12309390993499        1.37602666764178       -0.00682871814027
O            0.48913535902986        2.55737780761866       -0.00937241395938
N           -1.25416876577865        1.02208650468204       -0.03155987578456
C           -2.21282645642820        2.12759442907992       -0.04976339136285
C           -1.78021264311890       -0.23750808519575       -0.04797575454046
O           -2.99272888665665       -0.41885518814125       -0.07074860708090
N           -0.90744598153959       -1.37756416341704       -0.03795546267937
C           -1.65039273184520       -2.64733772212543       -0.06426685940451
H            3.74212775165739        1.25583914614083        1.06801137660359
H            4.02868705709123        1.10364337828590       -0.67978701015724
H            2.69983504358599        2.15148775896999       -0.06928622199907
H            3.63153292093003       -1.64135472642601        0.04617269120991
H           -1.64938488809208        3.06161487952586       -0.02545144621695
H           -2.81347209336614        2.06341758722498       -0.95466440058918
H           -2.86406051988806        2.04487861318386        0.81735694787280
H           -1.35113269129054       -3.24307936632878        0.82721149377692
H           -1.32523386282729       -3.22172783681161       -0.95973250258655
H           -2.64480853895511       -2.45930244015198       -0.07620949372505
H            1.44753964131749       -2.93137455362282       -0.00484570524171
25
 energy: -43.835310675155 gnorm: 0.037123063980 xtb: 6.6.1 (8d0f1dd)
C            3.25357132482719        1.20612513449059        0.09072748430512
N            2.32614484264002        0.11649326323267        0.03361253745195
C            2.63885505469150       -1.23130736014698        0.03203386457466
N            1.47082279339391       -1.93499765292905        0.00507336220555
C            0.42657919983653       -1.07881055187026       -0.00974850743463
C            0.94605679163837        0.21491621207124        0.00661565438913
C            0.12317631086821        1.37105577012154       -0.00888375999357
O            0.49074301103951        2.55252781014179       -0.00978859794218
N           -1.25603847685572        1.02256732830425       -0.03212196140152
C           -2.21300512059419        2.12110062296448       -0.04957333467941
C           -1.79100220544498       -0.22519168419033       -0.04804509498270
O           -2.99655091751394       -0.40339073794246       -0.07068173742856
N           -0.91833991910283       -1.35098757268128       -0.03829196599974
C           -1.58966488394110       -2.64889770903341       -0.06300209345944
H            3.74228354059103        1.25338786553658        1.06851497947543
H            4.02022861586739        1.10200274812766       -0.68065371367131
H            2.69546350316474        2.13444540839942       -0.06725668103673
H            3.62420047648782       -1.64268431361824        0.04694770437493
H           -1.64098800621089        3.04684296314719       -0.02529502385788
H           -2.81634992230869        2.06596462649913       -0.95446608170142
H           -2.86708197418395        2.04818427293183        0.81775343466295
H           -1.32420031692297       -3.23922158103519        0.82644149103816
H           -1.29837193763942       -3.21815038997516       -0.95782294416415
H           -2.63801290445304       -2.45294401001222       -0.07575866418339
H            1.42386354461292       -2.93905998400671       -0.00505397714408
25
 energy: -43.834896633202 gnorm: 0.026389629476 xtb: 6.6.1 (8d0f1dd)
C            3.25699808146476        1.21901396528668        0.08915620897193
N            2.33675505723283        0.12342460310380        0.03047140063658
C            2.65968376216068       -1.22215287502261        0.03267954895708
N            1.48550681688045       -1.93830777953559        0.00586837864146
C            0.43229226234113       -1.09110884251415       -0.00885962749389
C            0.94398612917636        0.21101679258999        0.00779079485004
C            0.12873442915130        1.36236055161622       -0.00701117111339
O            0.48777197636227        2.54695328372853       -0.00762882681133
N           -1.25173076351570        1.01219258088243       -0.03121078659943
C           -2.20772625526221        2.11082321096898       -0.04975174100534
C           -1.78636066241886       -0.23478714593425       -0.04749306418199
O           -2.98673913280068       -0.42123145022869       -0.07099867214150
N           -0.91756292303476       -1.35268654264178       -0.03734450203789
C           -1.59567665296410       -2.64390778248581       -0.06301770304386
H            3.74467669021090        1.26426977970335        1.06821860012939
H            4.03032217902438        1.11133293592280       -0.67586956934987
H            2.70676404420329        2.14656601552452       -0.07067331481792
H            3.64192059434894       -1.62788980870882        0.04512161506455
H           -1.65089732620917        3.04707352826916       -0.02525092089903
H           -2.81273740680553        2.05661593655210       -0.95420053912927
H           -2.86466954539011        2.03844808263434        0.81604857553058
H           -1.38105821091169       -3.24060879524423        0.82594620037574
H           -1.35450616791529       -3.21880495531301       -0.95967447362796
H           -2.66910207744071       -2.42628346319614       -0.07652331504929
H            1.45573752659895       -2.94235134743074       -0.00451672245822
25
 energy: -43.836313254103 gnorm: 0.008738645411 xtb: 6.6.1 (8d0f1dd)
C            3.25475640998614        1.21200562894281        0.08925693427702
N            2.33138240592483        0.12034069564943        0.03104914381653
C            2.64858602915205       -1.22641303376792        0.03324262209551
N            1.47509981920048       -1.93634934919780        0.00577760567878
C            0.42744322203065       -1.08646457884429       -0.00899463990621
C            0.94064745299858        0.21473122070834        0.00799918724178
C            0.12673657181072        1.36909533461611       -0.00810153200561
O            0.48550562191663        2.55344850094685       -0.00963897974988
N           -1.25563937914959        1.01898537614516       -0.03202082739681
C           -2.20855018574456        2.12191555469066       -0.04967239972520
C           -1.79048527946196       -0.23099335715103       -0.04808203823679
O           -2.99251320712442       -0.41719033890245       -0.07088159123480
N           -0.92128066618797       -1.35133985340126       -0.03778163256956
C           -1.58545028418594       -2.65073864781770       -0.06291055106463
H            3.74339945010500        1.25299729330418        1.06818406450431
H            4.02590654615293        1.10161561658409       -0.67851926766365
H            2.70353055125423        2.14218035989031       -0.06764742219429
H            3.62814637044599       -1.64130918589510        0.04585389619438
H           -1.64865181538564        3.05747983835258       -0.02554385957707
H           -2.81445803008260        2.06880645694393       -0.95377279660395
H           -2.86462471879396        2.05047799929659        0.81701748841485
H           -1.34447052014842       -3.23716658551238        0.82578812786674
H           -1.31868096602266       -3.21617049896148       -0.95795003566671
H           -2.65580298887740       -2.46059725960830       -0.07640447063537
H            1.44185001467432       -2.93937670848426       -0.00497065246221
25
 energy: -43.836286622526 gnorm: 0.008081898735 xtb: 6.6.1 (8d0f1dd)
C            3.25252426088497        1.21100407923695        0.09011836905127
N            2.33188838024943        0.11747461301989        0.03220777429834
C            2.64661315761125       -1.22925790108282        0.03355802070805
N            1.47331005086464       -1.93673489659172        0.00524151446445
C            0.42916773733551       -1.08546487581169       -0.00960037675882
C            0.94297945342300        0.21431756416876        0.00801612467538
C            0.13095830467532        1.36981932269024       -0.00817700582385
O            0.49121525734105        2.55285294070809       -0.00872487327539
N           -1.25276716755851        1.01989440459950       -0.03179730554784
C           -2.21067849856047        2.11591988437973       -0.04966761639881
C           -1.78847674235420       -0.22851804877587       -0.04799591667688
O           -2.99209199197613       -0.40982795151561       -0.07059719807120
N           -0.91930665136346       -1.34924336672438       -0.03819389191466
C           -1.58695184818534       -2.64467355033630       -0.06294902119218
H            3.74164432538841        1.25920767160718        1.06865604090539
H            4.02179349331543        1.10713307386873       -0.68032500182600
H            2.69234964676966        2.13636197834744       -0.06835065698489
H            3.62655427796180       -1.64579386976829        0.04624435731013
H           -1.64433381510288        3.04645764288717       -0.02508420480842
H           -2.81476874069851        2.05861935280975       -0.95504720071304