      -----------------------------------------------------------      
     |                   =====================                   |     
     |                           x T B                           |     
     |                   =====================                   |     
     |                         S. Grimme                         |     
     |          Mulliken Center for Theoretical Chemistry        |     
     |                    University of Bonn                     |     
      -----------------------------------------------------------      

   * xtb version 6.6.1 (8d0f1dd) compiled by 'conda@1efc2f54142f' on 2023-08-01

   xtb is free software: you can redistribute it and/or modify it under
   the terms of the GNU Lesser General Public License as published by
   the Free Software Foundation, either version 3 of the License, or
   (at your option) any later version.
   
   xtb is distributed in the hope that it will be useful,
   but WITHOUT ANY WARRANTY; without even the implied warranty of
   MERCHANTABILITY or FITNESS FOR A PARTICULAR PURPOSE.  See the
   GNU Lesser General Public License for more details.
   
   Cite this work as:
   * C. Bannwarth, E. Caldeweyher, S. Ehlert, A. Hansen, P. Pracht,
     J. Seibert, S. Spicher, S. Grimme, WIREs Comput. Mol. Sci., 2020, 11,
     e01493. DOI: 10.1002/wcms.1493
   
   for GFN2-xTB:
   * C. Bannwarth, S. Ehlert and S. Grimme., J. Chem. Theory Comput., 2019,
     15, 1652-1671. DOI: 10.1021/acs.jctc.8b01176
   for GFN1-xTB:
   * S. Grimme, C. Bannwarth, P. Shushkov, J. Chem. Theory Comput., 2017,
     13, 1989-2009. DOI: 10.1021/acs.jctc.7b00118
   for GFN0-xTB:
   * P. Pracht, E. Caldeweyher, S. Ehlert, S. Grimme, ChemRxiv, 2019, preprint.
     DOI: 10.26434/chemrxiv.8326202.v1
   for GFN-FF:
   * S. Spicher and S. Grimme, Angew. Chem. Int. Ed., 2020, 59, 15665-15673.
     DOI: 10.1002/anie.202004239
   
   for ALPB and GBSA implicit solvation:
   * S. Ehlert, M. Stahn, S. Spicher, S. Grimme, J. Chem. Theory Comput.,
     2021, 17, 4250-4261. DOI: 10.1021/acs.jctc.1c00471
   
   for DFT-D4:
   * E. Caldeweyher, C. Bannwarth and S. Grimme, J. Chem. Phys., 2017,
     147, 034112. DOI: 10.1063/1.4993215
   * E. Caldeweyher, S. Ehlert, A. Hansen, H. Neugebauer, S. Spicher,
     C. Bannwarth and S. Grimme, J. Chem. Phys., 2019, 150, 154122.
     DOI: 10.1063/1.5090222
   * E. Caldeweyher, J.-M. Mewes, S. Ehlert and S. Grimme, Phys. Chem. Chem. Phys.
     2020, 22, 8499-8512. DOI: 10.1039/D0CP00502A
   
   for sTDA-xTB:
   * S. Grimme and C. Bannwarth, J. Chem. Phys., 2016, 145, 054103.
     DOI: 10.1063/1.4959605
   
   in the mass-spec context:
   * V. Asgeirsson, C. Bauer and S. Grimme, Chem. Sci., 2017, 8, 4879.
     DOI: 10.1039/c7sc00601b
   * J. Koopman and S. Grimme, ACS Omega 2019, 4, 12, 15120-15133.
     DOI: 10.1021/acsomega.9b02011
   
   for metadynamics refer to:
   * S. Grimme, J. Chem. Theory Comput., 2019, 155, 2847-2862
     DOI: 10.1021/acs.jctc.9b00143
   
   for SPH calculations refer to:
   * S. Spicher and S. Grimme, J. Chem. Theory Comput., 2021, 17, 1701-1714
     DOI: 10.1021/acs.jctc.0c01306
   
   with help from (in alphabetical order)
   P. Atkinson, C. Bannwarth, F. Bohle, G. Brandenburg, E. Caldeweyher
   M. Checinski, S. Dohm, S. Ehlert, S. Ehrlich, I. Gerasimov, C. Hölzer
   A. Katbashev, J. Koopman, C. Lavigne, S. Lehtola, F. März, M. Müller,
   F. Musil, H. Neugebauer, J. Pisarek, C. Plett, P. Pracht, F. Pultar,
   J. Seibert, P. Shushkov, S. Spicher, M. Stahn, M. Steiner, T. Strunk,
   J. Stückrath, T. Rose, and J. Unsleber
   
 * started run on 2024/04/06 at 11:13:11.153     

           -------------------------------------------------
          |                Calculation Setup                |
           -------------------------------------------------

          program call               : xtb struc.xyz --opt loose --input .xc1 --gfn2
          hostname                   : n-62-30-23
          coordinate file            : struc.xyz
          omp threads                :                     1

   ID    Z sym.   atoms
    1    7 N      1, 17
    2    6 C      2-6, 8, 9, 11-16, 18-23, 25, 26, 28-33
    3    8 O      7, 10, 24, 27
    4    1 H      34-72
constraining bond 15 44 to    4.1400000 Å, actual value:    2.1611841 Å

           -------------------------------------------------
          |                 G F N 2 - x T B                 |
           -------------------------------------------------

        Reference                      10.1021/acs.jctc.8b01176
      * Hamiltonian:
        H0-scaling (s, p, d)           1.850000    2.230000    2.230000
        zeta-weighting                 0.500000
      * Dispersion:
        s8                             2.700000
        a1                             0.520000
        a2                             5.000000
        s9                             5.000000
      * Repulsion:
        kExp                           1.500000    1.000000
        rExp                           1.000000
      * Coulomb:
        alpha                          2.000000
        third order                    shell-resolved
        anisotropic                    true
        a3                             3.000000
        a5                             4.000000
        cn-shift                       1.200000
        cn-exp                         4.000000
        max-rad                        5.000000


          ...................................................
          :                      SETUP                      :
          :.................................................:
          :  # basis functions                 171          :
          :  # atomic orbitals                 171          :
          :  # shells                          105          :
          :  # electrons                       180          :
          :  max. iterations                   250          :
          :  Hamiltonian                  GFN2-xTB          :
          :  restarted?                      false          :
          :  GBSA solvation                  false          :
          :  PC potential                    false          :
          :  electronic temp.         5000.0000000     K    :
          :  accuracy                    1.0000000          :
          :  -> integral cutoff          0.2500000E+02      :
          :  -> integral neglect         0.1000000E-07      :
          :  -> SCF convergence          0.1000000E-05 Eh   :
          :  -> wf. convergence          0.1000000E-03 e    :
          :  Broyden damping             0.4000000          :
          ...................................................

 iter      E             dE          RMSdq      gap      omega  full diag
   1   -100.5973919 -0.100597E+03  0.374E+00    3.20       0.0  T
   2   -100.7362642 -0.138872E+00  0.221E+00    1.08       1.0  T
   3   -100.7049001  0.313641E-01  0.141E+00    3.29       1.0  T
   4   -100.7721690 -0.672689E-01  0.526E-01    1.50       1.0  T
   5   -100.7894292 -0.172602E-01  0.190E-01    1.98       1.0  T
   6   -100.7911978 -0.176856E-02  0.792E-02    1.77       1.0  T
   7   -100.7914750 -0.277198E-03  0.375E-02    1.83       1.0  T
   8   -100.7914914 -0.164582E-04  0.140E-02    1.83       1.0  T
   9   -100.7914976 -0.616739E-05  0.474E-03    1.82       2.5  T
  10   -100.7914988 -0.118227E-05  0.172E-03    1.82       6.8  T
  11   -100.7914989 -0.139928E-06  0.766E-04    1.82      15.4  T
  12   -100.7914989 -0.773143E-08  0.318E-04    1.82      37.0  T

   *** convergence criteria satisfied after 12 iterations ***

         #    Occupation            Energy/Eh            Energy/eV
      -------------------------------------------------------------
         1        2.0000           -0.8078051             -21.9815
       ...           ...                  ...                  ...
        84        1.9966           -0.5157491             -14.0342
        85        1.9959           -0.5128261             -13.9547
        86        1.9840           -0.4911498             -13.3649
        87        1.9795           -0.4872543             -13.2589
        88        1.9640           -0.4782114             -13.0128
        89        1.8920           -0.4602041             -12.5228
        90        1.8557           -0.4553147             -12.3897 (HOMO)
        91        0.3166           -0.3884132             -10.5693 (LUMO)
        92        0.0218           -0.3434697              -9.3463
        93        0.0041           -0.3169887              -8.6257
        94        0.0034           -0.3139726              -8.5436
        95        0.0029           -0.3112618              -8.4699
       ...           ...                  ...                  ...
       171                          0.5822580              15.8440
      -------------------------------------------------------------
                  HL-Gap            0.0669015 Eh            1.8205 eV
             Fermi-level           -0.4148687 Eh          -11.2892 eV

 SCC (total)                   0 d,  0 h,  0 min,  0.190 sec
 SCC setup                      ...        0 min,  0.001 sec (  0.655%)
 Dispersion                     ...        0 min,  0.002 sec (  0.934%)
 classical contributions        ...        0 min,  0.001 sec (  0.291%)
 integral evaluation            ...        0 min,  0.018 sec (  9.694%)
 iterations                     ...        0 min,  0.098 sec ( 51.529%)
 molecular gradient             ...        0 min,  0.070 sec ( 36.549%)
 printout                       ...        0 min,  0.001 sec (  0.338%)

         :::::::::::::::::::::::::::::::::::::::::::::::::::::
         ::                     SUMMARY                     ::
         :::::::::::::::::::::::::::::::::::::::::::::::::::::
         :: total energy             -98.704967939387 Eh    ::
         :: gradient norm              0.529805692629 Eh/a0 ::
         :: HOMO-LUMO gap              1.820481192090 eV    ::
         ::.................................................::
         :: SCC energy              -100.791498925389 Eh    ::
         :: -> isotropic ES            0.109302908418 Eh    ::
         :: -> anisotropic ES          0.005415138735 Eh    ::
         :: -> anisotropic XC          0.042392697176 Eh    ::
         :: -> dispersion             -0.075527661009 Eh    ::
         :: repulsion energy           1.386151658689 Eh    ::
         :: add. restraining           0.699162974807 Eh    ::
         :: total charge               1.000000000108 e     ::
         :::::::::::::::::::::::::::::::::::::::::::::::::::::

      ----------------------------------------------------------- 
     |                   =====================                   |
     |                        A N C O P T                        |
     |                   =====================                   |
     |               Approximate Normal Coordinate               |
     |                Rational Function Optimizer                |
      ----------------------------------------------------------- 

          ...................................................
          :                      SETUP                      :
          :.................................................:
          :   optimization level             loose          :
          :   max. optcycles                   200          :
          :   ANC micro-cycles                  20          :
          :   degrees of freedom               210          :
          :.................................................:
          :   RF solver                   davidson          :
          :   write xtbopt.log                true          :
          :   linear?                        false          :
          :   energy convergence         0.5000000E-04 Eh   :
          :   grad. convergence          0.4000000E-02 Eh/α :
          :   maxmium RF displ.          1.0000000          :
          :   Hlow (freq-cutoff)         0.1000000E-01      :
          :   Hmax (freq-cutoff)         5.0000000          :
          :   S6 in model hess.         20.0000000          :
          ...................................................

generating ANC from model Hessian ...
Using Lindh-Hessian (1995)
 Shifting diagonal of input Hessian by    8.9307893661987492E-002
 Lowest  eigenvalues of input Hessian
    0.010000    0.033653    0.000000    0.000000    0.000000    0.000000
    0.000000    0.000000    0.089371    0.089402    0.089488    0.089675
    0.089723    0.090042    0.090089    0.090319    0.090561    0.091164
 Highest eigenvalues
    2.113898    2.125266    2.130888    2.258751    2.263806    2.266363


........................................................................
.............................. CYCLE    1 ..............................
........................................................................

 iter      E             dE          RMSdq      gap      omega  full diag
   1   -100.7914989 -0.100791E+03  0.114E-04    1.82       0.0  T
   2   -100.7914989 -0.678995E-10  0.713E-05    1.82     165.2  T
   3   -100.7914989  0.665210E-10  0.496E-05    1.82     237.5  T
     SCC iter.                  ...        0 min,  0.026 sec
     gradient                   ...        0 min,  0.069 sec
 * total energy  :   -98.7049679 Eh     change       -0.4035485E-08 Eh
   gradient norm :     0.5298063 Eh/α   predicted     0.0000000E+00 (-100.00%)
   displ. norm   :     0.6314068 α      lambda       -0.3029774E+00
   maximum displ.:     0.1949314 α      in ANC's #131, #92, #128, ...

........................................................................
.............................. CYCLE    2 ..............................
........................................................................

 iter      E             dE          RMSdq      gap      omega  full diag
   1   -100.7438015 -0.100744E+03  0.413E-01    1.76       0.0  T
   2   -100.7438855 -0.839173E-04  0.248E-01    1.82       1.0  T
   3   -100.7432653  0.620164E-03  0.725E-02    1.70       1.0  T
   4   -100.7439008 -0.635498E-03  0.221E-02    1.83       1.0  T
   5   -100.7439436 -0.427979E-04  0.656E-03    1.80       1.8  T
   6   -100.7439442 -0.594808E-06  0.367E-03    1.81       3.2  T
   7   -100.7439447 -0.469951E-06  0.871E-04    1.80      13.5  T
   8   -100.7439447 -0.387814E-07  0.335E-04    1.80      35.2  T
     SCC iter.                  ...        0 min,  0.065 sec
     gradient                   ...        0 min,  0.070 sec
 * total energy  :   -98.9448195 Eh     change       -0.2398516E+00 Eh
   gradient norm :     0.3033495 Eh/α   predicted    -0.2118871E+00 ( -11.66%)
   displ. norm   :     0.6467502 α      lambda       -0.1785894E+00
   maximum displ.:     0.2136664 α      in ANC's #2, #131, #92, ...

........................................................................
.............................. CYCLE    3 ..............................
........................................................................

 iter      E             dE          RMSdq      gap      omega  full diag
   1   -100.6737685 -0.100674E+03  0.277E-01    1.69       0.0  T
   2   -100.6738299 -0.613833E-04  0.184E-01    1.83       1.0  T
   3   -100.6721967  0.163319E-02  0.141E-01    1.60       1.0  T
   4   -100.6740807 -0.188400E-02  0.346E-02    1.80       1.0  T
   5   -100.6741915 -0.110782E-03  0.829E-03    1.76       1.4  T
   6   -100.6741944 -0.290362E-05  0.387E-03    1.77       3.0  T
   7   -100.6741944 -0.521506E-07  0.149E-03    1.77       7.9  T
   8   -100.6741946 -0.113368E-06  0.535E-04    1.77      22.0  T
   9   -100.6741946 -0.593172E-08  0.231E-04    1.77      51.1  T
     SCC iter.                  ...        0 min,  0.073 sec
     gradient                   ...        0 min,  0.069 sec
 * total energy  :   -99.0820044 Eh     change       -0.1371849E+00 Eh
   gradient norm :     0.1665499 Eh/α   predicted    -0.1266456E+00 (  -7.68%)
   displ. norm   :     0.5989289 α      lambda       -0.9087903E-01
   maximum displ.:     0.2255402 α      in ANC's #2, #92, #131, ...

........................................................................
.............................. CYCLE    4 ..............................
........................................................................

 iter      E             dE          RMSdq      gap      omega  full diag
   1   -100.6145509 -0.100615E+03  0.248E-01    1.60       0.0  T
   2   -100.6139302  0.620649E-03  0.244E-01    1.86       1.0  T
   3   -100.6174571 -0.352689E-02  0.106E-01    1.69       1.0  T
   4   -100.6174298  0.273271E-04  0.515E-02    1.75       1.0  T
   5   -100.6175580 -0.128254E-03  0.126E-02    1.71       1.0  T
   6   -100.6175665 -0.844036E-05  0.707E-03    1.72       1.7  T
   7   -100.6175690 -0.251638E-05  0.315E-03    1.72       3.7  T
   8   -100.6175693 -0.333688E-06  0.112E-03    1.72      10.5  T
   9   -100.6175694 -0.434403E-07  0.575E-04    1.72      20.5  T
  10   -100.6175694 -0.990899E-08  0.142E-04    1.72      83.0  T
     SCC iter.                  ...        0 min,  0.081 sec
     gradient                   ...        0 min,  0.069 sec
 * total energy  :   -99.1481202 Eh     change       -0.6611585E-01 Eh
   gradient norm :     0.0828896 Eh/α   predicted    -0.6173975E-01 (  -6.62%)
   displ. norm   :     0.4945712 α      lambda       -0.3665962E-01
   maximum displ.:     0.1228651 α      in ANC's #2, #92, #58, ...

........................................................................
.............................. CYCLE    5 ..............................
........................................................................

 iter      E             dE          RMSdq      gap      omega  full diag
   1   -100.5833201 -0.100583E+03  0.286E-01    1.54       0.0  T
   2   -100.5804374  0.288273E-02  0.278E-01    1.83       1.0  T
   3   -100.5862400 -0.580266E-02  0.128E-01    1.59       1.0  T
   4   -100.5867218 -0.481759E-03  0.778E-02    1.66       1.0  T
   5   -100.5870983 -0.376556E-03  0.210E-02    1.66       1.0  T
   6   -100.5871303 -0.319444E-04  0.803E-03    1.64       1.5  T
   7   -100.5871328 -0.247466E-05  0.370E-03    1.65       3.2  T
   8   -100.5871333 -0.492842E-06  0.112E-03    1.64      10.5  T
   9   -100.5871333 -0.222382E-07  0.618E-04    1.64      19.1  T
  10   -100.5871333 -0.111940E-07  0.217E-04    1.64      54.3  T
     SCC iter.                  ...        0 min,  0.081 sec
     gradient                   ...        0 min,  0.069 sec
 * total energy  :   -99.1741610 Eh     change       -0.2604072E-01 Eh
   gradient norm :     0.0449069 Eh/α   predicted    -0.2281331E-01 ( -12.39%)
   displ. norm   :     0.4754476 α      lambda       -0.1598258E-01
   maximum displ.:     0.1850984 α      in ANC's #1, #27, #42, ...

........................................................................
.............................. CYCLE    6 ..............................
........................................................................

 iter      E             dE          RMSdq      gap      omega  full diag
   1   -100.5731074 -0.100573E+03  0.218E-01    1.44       0.0  T
   2   -100.5733886 -0.281195E-03  0.126E-01    1.59       1.0  T
   3   -100.5729330  0.455571E-03  0.899E-02    1.42       1.0  T
   4   -100.5735563 -0.623317E-03  0.481E-02    1.56       1.0  T
   5   -100.5737056 -0.149228E-03  0.262E-02    1.51       1.0  T
   6   -100.5737787 -0.731479E-04  0.749E-03    1.52       1.6  T
   7   -100.5737828 -0.403689E-05  0.274E-03    1.52       4.3  T
   8   -100.5737828 -0.574229E-07  0.149E-03    1.52       7.9  T
   9   -100.5737829 -0.119045E-06  0.447E-04    1.52      26.4  T
  10   -100.5737829 -0.247969E-08  0.225E-04    1.52      52.4  T
     SCC iter.                  ...        0 min,  0.081 sec
     gradient                   ...        0 min,  0.070 sec
 * total energy  :   -99.1858621 Eh     change       -0.1170111E-01 Eh
   gradient norm :     0.0392793 Eh/α   predicted    -0.9797761E-02 ( -16.27%)
   displ. norm   :     0.4542307 α      lambda       -0.1008508E-01
   maximum displ.:     0.1591680 α      in ANC's #27, #42, #19, ...

........................................................................
.............................. CYCLE    7 ..............................
........................................................................

 iter      E             dE          RMSdq      gap      omega  full diag
   1   -100.5680346 -0.100568E+03  0.206E-01    1.32       0.0  T
   2   -100.5668206  0.121401E-02  0.176E-01    1.39       1.0  T
   3   -100.5675662 -0.745522E-03  0.138E-01    1.46       1.0  T
   4   -100.5684011 -0.834916E-03  0.772E-02    1.30       1.0  T
   5   -100.5692680 -0.866944E-03  0.190E-02    1.41       1.0  T
   6   -100.5692988 -0.308163E-04  0.447E-03    1.40       2.6  T
   7   -100.5692998 -0.964850E-06  0.201E-03    1.39       5.9  T
   8   -100.5692999 -0.874416E-07  0.923E-04    1.40      12.8  T
   9   -100.5692999 -0.237784E-07  0.313E-04    1.39      37.7  T
     SCC iter.                  ...        0 min,  0.073 sec
     gradient                   ...        0 min,  0.069 sec
 * total energy  :   -99.1935625 Eh     change       -0.7700442E-02 Eh
   gradient norm :     0.0365952 Eh/α   predicted    -0.6082960E-02 ( -21.01%)
   displ. norm   :     0.4916500 α      lambda       -0.8595492E-02
   maximum displ.:     0.1788151 α      in ANC's #27, #42, #19, ...

........................................................................
.............................. CYCLE    8 ..............................
........................................................................

 iter      E             dE          RMSdq      gap      omega  full diag
   1   -100.5684328 -0.100568E+03  0.237E-01    1.23       0.0  T
   2   -100.5628546  0.557821E-02  0.278E-01    1.20       1.0  T
   3   -100.5684302 -0.557552E-02  0.157E-01    1.39       1.0  T
   4   -100.5703039 -0.187371E-02  0.688E-02    1.20       1.0  T
   5   -100.5708441 -0.540274E-03  0.197E-02    1.30       1.0  T
   6   -100.5708825 -0.383708E-04  0.596E-03    1.28       2.0  T
   7   -100.5708855 -0.295205E-05  0.262E-03    1.28       4.5  T
   8   -100.5708857 -0.255465E-06  0.110E-03    1.28      10.7  T
   9   -100.5708858 -0.586361E-07  0.305E-04    1.28      38.6  T
  10   -100.5708858 -0.189445E-08  0.179E-04    1.28      65.9  T
     SCC iter.                  ...        0 min,  0.081 sec
     gradient                   ...        0 min,  0.072 sec
 * total energy  :   -99.2003430 Eh     change       -0.6780458E-02 Eh
   gradient norm :     0.0370451 Eh/α   predicted    -0.5336613E-02 ( -21.29%)
   displ. norm   :     0.5468486 α      lambda       -0.8708721E-02
   maximum displ.:     0.1945983 α      in ANC's #27, #42, #19, ...

........................................................................
.............................. CYCLE    9 ..............................
........................................................................

 iter      E             dE          RMSdq      gap      omega  full diag
   1   -100.5750772 -0.100575E+03  0.236E-01    1.18       0.0  T
   2   -100.5678057  0.727155E-02  0.300E-01    1.08       1.0  T
   3   -100.5748600 -0.705436E-02  0.164E-01    1.32       1.0  T
   4   -100.5767287 -0.186863E-02  0.723E-02    1.12       1.0  T
   5   -100.5773660 -0.637275E-03  0.177E-02    1.21       1.0  T
   6   -100.5773951 -0.291399E-04  0.663E-03    1.20       1.8  T
   7   -100.5773981 -0.296845E-05  0.316E-03    1.20       3.7  T
   8   -100.5773984 -0.361850E-06  0.115E-03    1.20      10.3  T
   9   -100.5773985 -0.109742E-06  0.338E-04    1.20      34.9  T
  10   -100.5773985  0.119655E-09  0.254E-04    1.20      46.4  T
     SCC iter.                  ...        0 min,  0.081 sec
     gradient                   ...        0 min,  0.069 sec
 * total energy  :   -99.2075235 Eh     change       -0.7180539E-02 Eh
   gradient norm :     0.0494386 Eh/α   predicted    -0.5656646E-02 ( -21.22%)
   displ. norm   :     0.6333551 α      lambda       -0.1072702E-01
   maximum displ.:     0.2078342 α      in ANC's #27, #19, #42, ...

........................................................................
.............................. CYCLE   10 ..............................
........................................................................

 iter      E             dE          RMSdq      gap      omega  full diag
   1   -100.5887364 -0.100589E+03  0.257E-01    1.12       0.0  T
   2   -100.5817511  0.698534E-02  0.297E-01    0.99       1.0  T
   3   -100.5865972 -0.484610E-02  0.211E-01    1.28       1.0  T
   4   -100.5897929 -0.319575E-02  0.770E-02    1.03       1.0  T
   5   -100.5906709 -0.877945E-03  0.167E-02    1.15       1.0  T
   6   -100.5907062 -0.353099E-04  0.700E-03    1.13       1.7  T
   7   -100.5907091 -0.294788E-05  0.365E-03    1.13       3.2  T
   8   -100.5907097 -0.620886E-06  0.115E-03    1.13      10.2  T
   9   -100.5907098 -0.112680E-06  0.383E-04    1.13      30.7  T
  10   -100.5907098 -0.233189E-08  0.242E-04    1.13      48.6  T
     SCC iter.                  ...        0 min,  0.082 sec
     gradient                   ...        0 min,  0.070 sec
 * total energy  :   -99.2170013 Eh     change       -0.9477825E-02 Eh
   gradient norm :     0.0732592 Eh/α   predicted    -0.7515027E-02 ( -20.71%)
   displ. norm   :     0.7333261 α      lambda       -0.1588620E-01
   maximum displ.:     0.2127353 α      in ANC's #19, #27, #2, ...

........................................................................
.............................. CYCLE   11 ..............................
........................................................................

 iter      E             dE          RMSdq      gap      omega  full diag
   1   -100.6148670 -0.100615E+03  0.261E-01    1.08       0.0  T
   2   -100.6109903  0.387673E-02  0.244E-01    0.95       1.0  T
   3   -100.6099665  0.102377E-02  0.255E-01    1.25       1.0  T
   4   -100.6150563 -0.508976E-02  0.807E-02    0.98       1.0  T
   5   -100.6160324 -0.976100E-03  0.136E-02    1.08       1.0  T
   6   -100.6160545 -0.221052E-04  0.694E-03    1.06       1.7  T
   7   -100.6160578 -0.336251E-05  0.333E-03    1.07       3.5  T
   8   -100.6160583 -0.478889E-06  0.151E-03    1.07       7.8  T
   9   -100.6160585 -0.189096E-06  0.562E-04    1.07      21.0  T
  10   -100.6160585 -0.153242E-07  0.184E-04    1.07      64.0  T
     SCC iter.                  ...        0 min,  0.081 sec
     gradient                   ...        0 min,  0.070 sec
 * total energy  :   -99.2319381 Eh     change       -0.1493678E-01 Eh
   gradient norm :     0.1060943 Eh/α   predicted    -0.1221467E-01 ( -18.22%)
   displ. norm   :     0.7134745 α      lambda       -0.2742762E-01
   maximum displ.:     0.1721504 α      in ANC's #19, #58, #2, ...

........................................................................
.............................. CYCLE   12 ..............................
........................................................................

 iter      E             dE          RMSdq      gap      omega  full diag
   1   -100.6665987 -0.100667E+03  0.296E-01    1.03       0.0  T
   2   -100.6661037  0.495056E-03  0.199E-01    0.95       1.0  T
   3   -100.6593227  0.678097E-02  0.286E-01    1.21       1.0  T
   4   -100.6646824 -0.535972E-02  0.144E-01    0.88       1.0  T
   5   -100.6671767 -0.249431E-02  0.170E-02    1.01       1.0  T
   6   -100.6671657  0.109724E-04  0.139E-02    0.99       1.0  T
   7   -100.6671893 -0.236019E-04  0.407E-03    1.00       2.9  T
   8   -100.6671901 -0.762545E-06  0.204E-03    1.00       5.8  T
   9   -100.6671904 -0.263957E-06  0.779E-04    1.00      15.1  T
  10   -100.6671904 -0.328419E-07  0.221E-04    1.00      53.4  T
     SCC iter.                  ...        0 min,  0.081 sec
     gradient                   ...        0 min,  0.069 sec
 * total energy  :   -99.2526718 Eh     change       -0.2073368E-01 Eh
   gradient norm :     0.1409349 Eh/α   predicted    -0.2069477E-01 (  -0.19%)
   displ. norm   :     0.5297449 α      lambda       -0.2785929E-01
   maximum displ.:     0.1847978 α      in ANC's #1, #186, #19, ...

........................................................................
.............................. CYCLE   13 ..............................
........................................................................

 iter      E             dE          RMSdq      gap      omega  full diag
   1   -100.6932574 -0.100693E+03  0.240E-01    0.95       0.0  T
   2   -100.6926742  0.583196E-03  0.180E-01    0.85       1.0  T
   3   -100.6876474  0.502679E-02  0.247E-01    1.11       1.0  T
   4   -100.6922097 -0.456223E-02  0.122E-01    0.83       1.0  T
   5   -100.6938565 -0.164687E-02  0.170E-02    0.92       1.0  T
   6   -100.6938577 -0.112184E-05  0.142E-02    0.91       1.0  T
   7   -100.6938748 -0.171832E-04  0.403E-03    0.92       2.9  T
   8   -100.6938756 -0.712978E-06  0.199E-03    0.92       5.9  T
   9   -100.6938759 -0.314427E-06  0.645E-04    0.92      18.3  T
  10   -100.6938759 -0.214461E-07  0.179E-04    0.92      66.0  T
     SCC iter.                  ...        0 min,  0.081 sec
     gradient                   ...        0 min,  0.069 sec
 * total energy  :   -99.2745124 Eh     change       -0.2184060E-01 Eh
   gradient norm :     0.1288797 Eh/α   predicted    -0.1783873E-01 ( -18.32%)
   displ. norm   :     0.4457833 α      lambda       -0.4061500E-01
   maximum displ.:     0.1629080 α      in ANC's #187, #186, #2, ...

........................................................................
.............................. CYCLE   14 ..............................
........................................................................

 iter      E             dE          RMSdq      gap      omega  full diag
   1   -100.6996373 -0.100700E+03  0.222E-01    0.88       0.0  T
   2   -100.6996217  0.155734E-04  0.141E-01    0.83       1.0  T
   3   -100.6962054  0.341635E-02  0.197E-01    1.00       1.0  T
   4   -100.6982708 -0.206542E-02  0.116E-01    0.77       1.0  T
   5   -100.6998786 -0.160785E-02  0.960E-03    0.87       1.2  T
   6   -100.6998835 -0.480940E-05  0.693E-03    0.86       1.7  T
   7   -100.6998869 -0.340746E-05  0.231E-03    0.86       5.1  T
   8   -100.6998871 -0.237638E-06  0.105E-03    0.86      11.3  T
   9   -100.6998872 -0.822130E-07  0.299E-04    0.86      39.5  T
  10   -100.6998872 -0.433336E-08  0.867E-05    0.86     136.0  T
     SCC iter.                  ...        0 min,  0.081 sec
     gradient                   ...        0 min,  0.069 sec
 * total energy  :   -99.2990524 Eh     change       -0.2454005E-01 Eh
   gradient norm :     0.0766220 Eh/α   predicted    -0.2434313E-01 (  -0.80%)
   displ. norm   :     0.4242291 α      lambda       -0.1874478E-01
   maximum displ.:     0.1723158 α      in ANC's #1, #27, #98, ...

........................................................................
.............................. CYCLE   15 ..............................
........................................................................

 iter      E             dE          RMSdq      gap      omega  full diag
   1   -100.6861264 -0.100686E+03  0.200E-01    0.95       0.0  T
   2   -100.6777042  0.842223E-02  0.307E-01    0.64       1.0  T
   3   -100.6850808 -0.737665E-02  0.175E-01    0.98       1.0  T
   4   -100.6869913 -0.191048E-02  0.475E-02    0.88       1.0  T
   5   -100.6871807 -0.189364E-03  0.104E-02    0.88       1.1  T
   6   -100.6871884 -0.774193E-05  0.397E-03    0.87       3.0  T
   7   -100.6871890 -0.554633E-06  0.169E-03    0.87       7.0  T
   8   -100.6871891 -0.150615E-06  0.376E-04    0.87      31.4  T
   9   -100.6871891 -0.428911E-08  0.198E-04    0.87      59.6  T
     SCC iter.                  ...        0 min,  0.073 sec
     gradient                   ...        0 min,  0.069 sec
 * total energy  :   -99.3067545 Eh     change       -0.7702058E-02 Eh
   gradient norm :     0.0589774 Eh/α   predicted    -0.1105922E-01 (  43.59%)
   displ. norm   :     0.3122058 α      lambda       -0.9075339E-02
   maximum displ.:     0.0957107 α      in ANC's #19, #60, #1, ...

........................................................................
.............................. CYCLE   16 ..............................
........................................................................

 iter      E             dE          RMSdq      gap      omega  full diag
   1   -100.7076520 -0.100708E+03  0.128E-01    0.89       0.0  T
   2   -100.7072938  0.358231E-03  0.115E-01    0.82       1.0  T
   3   -100.7068242  0.469595E-03  0.112E-01    0.96       1.0  T
   4   -100.7075219 -0.697696E-03  0.810E-02    0.82       1.0  T
   5   -100.7080181 -0.496235E-03  0.120E-02    0.87       1.0  T
   6   -100.7080218 -0.366040E-05  0.796E-03    0.87       1.5  T
   7   -100.7080258 -0.401867E-05  0.284E-03    0.87       4.2  T
   8   -100.7080262 -0.442638E-06  0.867E-04    0.87      13.6  T
   9   -100.7080263 -0.716435E-07  0.258E-04    0.88      45.6  T
     SCC iter.                  ...        0 min,  0.073 sec
     gradient                   ...        0 min,  0.069 sec
 * total energy  :   -99.3124966 Eh     change       -0.5742055E-02 Eh
   gradient norm :     0.0284372 Eh/α   predicted    -0.4979971E-02 ( -13.27%)
   displ. norm   :     0.3547055 α      lambda       -0.3644002E-02
   maximum displ.:     0.1227445 α      in ANC's #19, #27, #12, ...

........................................................................
.............................. CYCLE   17 ..............................
........................................................................

 iter      E             dE          RMSdq      gap      omega  full diag
   1   -100.7099607 -0.100710E+03  0.106E-01    0.92       0.0  T
   2   -100.7076347  0.232597E-02  0.165E-01    0.76       1.0  T
   3   -100.7098655 -0.223080E-02  0.763E-02    0.93       1.0  T
   4   -100.7101942 -0.328710E-03  0.153E-02    0.88       1.0  T
   5   -100.7102186 -0.244031E-04  0.634E-03    0.88       1.9  T
   6   -100.7102216 -0.294553E-05  0.362E-03    0.88       3.3  T
   7   -100.7102222 -0.576569E-06  0.140E-03    0.88       8.4  T
   8   -100.7102223 -0.155954E-06  0.297E-04    0.88      39.7  T
   9   -100.7102223 -0.421031E-08  0.936E-05    0.88     125.8  T
     SCC iter.                  ...        0 min,  0.073 sec
     gradient                   ...        0 min,  0.069 sec
 * total energy  :   -99.3146156 Eh     change       -0.2119071E-02 Eh
   gradient norm :     0.0293397 Eh/α   predicted    -0.2051244E-02 (  -3.20%)
   displ. norm   :     0.3784282 α      lambda       -0.5240353E-02
   maximum displ.:     0.1335921 α      in ANC's #41, #42, #1, ...

........................................................................
.............................. CYCLE   18 ..............................
........................................................................

 iter      E             dE          RMSdq      gap      omega  full diag
   1   -100.7230424 -0.100723E+03  0.178E-01    0.82       0.0  T
   2   -100.7233838 -0.341433E-03  0.133E-01    0.93       1.0  T
   3   -100.7231451  0.238719E-03  0.112E-01    0.80       1.0  T
   4   -100.7225108  0.634318E-03  0.135E-01    0.97       1.0  T
   5   -100.7241048 -0.159401E-02  0.148E-02    0.87       1.0  T
   6   -100.7241220 -0.172282E-04  0.400E-03    0.88       2.9  T
   7   -100.7241228 -0.778297E-06  0.209E-03    0.87       5.6  T
   8   -100.7241230 -0.175323E-06  0.823E-04    0.87      14.3  T
   9   -100.7241231 -0.593792E-07  0.336E-04    0.87      35.1  T
     SCC iter.                  ...        0 min,  0.073 sec
     gradient                   ...        0 min,  0.069 sec
 * total energy  :   -99.3165906 Eh     change       -0.1974977E-02 Eh
   gradient norm :     0.0555885 Eh/α   predicted    -0.2995409E-02 (  51.67%)
   displ. norm   :     0.3783916 α      lambda       -0.4053178E-02
   maximum displ.:     0.1711893 α      in ANC's #1, #19, #2, ...

........................................................................
.............................. CYCLE   19 ..............................
........................................................................

 iter      E             dE          RMSdq      gap      omega  full diag
   1   -100.7239100 -0.100724E+03  0.116E-01    0.92       0.0  T
   2   -100.7226192  0.129080E-02  0.148E-01    0.78       1.0  T
   3   -100.7237060 -0.108682E-02  0.918E-02    0.94       1.0  T
   4   -100.7241790 -0.472994E-03  0.487E-02    0.86       1.0  T
   5   -100.7243215 -0.142448E-03  0.710E-03    0.88       1.7  T
   6   -100.7243248 -0.331566E-05  0.191E-03    0.88       6.2  T
   7   -100.7243250 -0.193950E-06  0.972E-04    0.88      12.1  T
   8   -100.7243250 -0.269399E-07  0.518E-04    0.88      22.8  T
     SCC iter.                  ...        0 min,  0.066 sec
     gradient                   ...        0 min,  0.069 sec
 * total energy  :   -99.3193518 Eh     change       -0.2761231E-02 Eh
   gradient norm :     0.0416597 Eh/α   predicted    -0.2316762E-02 ( -16.10%)
   displ. norm   :     0.3496110 α      lambda       -0.5064056E-02
   maximum displ.:     0.1176561 α      in ANC's #19, #12, #41, ...

........................................................................
.............................. CYCLE   20 ..............................
........................................................................

 iter      E             dE          RMSdq      gap      omega  full diag
   1   -100.7214393 -0.100721E+03  0.116E-01    0.87       0.0  T
   2   -100.7215340 -0.947203E-04  0.729E-02    0.87       1.0  T
   3   -100.7215863 -0.523001E-04  0.458E-02    0.86       1.0  T
   4   -100.7215390  0.472675E-04  0.354E-02    0.90       1.0  T
   5   -100.7216311 -0.921042E-04  0.142E-02    0.86       1.0  T
   6   -100.7216520 -0.208675E-04  0.375E-03    0.87       3.1  T
   7   -100.7216528 -0.836089E-06  0.146E-03    0.87       8.1  T
   8   -100.7216529 -0.936903E-07  0.610E-04    0.87      19.3  T
   9   -100.7216530 -0.363447E-07  0.203E-04    0.87      57.9  T
     SCC iter.                  ...        0 min,  0.073 sec
     gradient                   ...        0 min,  0.071 sec
 * total energy  :   -99.3222059 Eh     change       -0.2854025E-02 Eh
   gradient norm :     0.0237389 Eh/α   predicted    -0.2841525E-02 (  -0.44%)
   displ. norm   :     0.3797731 α      lambda       -0.2545369E-02
   maximum displ.:     0.1257228 α      in ANC's #19, #41, #12, ...
 * RMSD in coord.:     0.7514287 α      energy gain  -0.6172379E+00 Eh

generating ANC from model Hessian ...
Using Lindh-Hessian (1995)
 Shifting diagonal of input Hessian by    1.0044560158355359E-002
 Lowest  eigenvalues of input Hessian
    0.010000    0.010030    0.000000    0.000000    0.000000    0.000000
    0.000000    0.000000    0.010110    0.010145    0.010268    0.010408
    0.010492    0.010567    0.010712    0.010859    0.010940    0.011672
 Highest eigenvalues
    2.034822    2.055091    2.085392    2.100906    2.184958    2.188070


........................................................................
.............................. CYCLE   21 ..............................
........................................................................

 iter      E             dE          RMSdq      gap      omega  full diag
   1   -100.7250377 -0.100725E+03  0.118E-01    0.84       0.0  T
   2   -100.7247656  0.272134E-03  0.874E-02    0.91       1.0  T
   3   -100.7229165  0.184909E-02  0.157E-01    0.74       1.0  T
   4   -100.7250590 -0.214247E-02  0.299E-02    0.86       1.0  T
   5   -100.7251442 -0.852207E-04  0.486E-03    0.86       2.4  T
   6   -100.7251464 -0.218051E-05  0.210E-03    0.86       5.6  T
   7   -100.7251465 -0.144688E-06  0.118E-03    0.86      10.0  T
   8   -100.7251466 -0.107043E-06  0.287E-04    0.86      41.1  T
   9   -100.7251467 -0.471852E-08  0.136E-04    0.86      86.6  T
     SCC iter.                  ...        0 min,  0.073 sec
     gradient                   ...        0 min,  0.069 sec
 * total energy  :   -99.3239477 Eh     change       -0.1741797E-02 Eh
   gradient norm :     0.0182984 Eh/α   predicted     0.0000000E+00 (-100.00%)
   displ. norm   :     0.2740147 α      lambda       -0.1882204E-02
   maximum displ.:     0.1329469 α      in ANC's #12, #13, #16, ...

........................................................................
.............................. CYCLE   22 ..............................
........................................................................

 iter      E             dE          RMSdq      gap      omega  full diag
   1   -100.7281352 -0.100728E+03  0.708E-02    0.85       0.0  T
   2   -100.7279875  0.147661E-03  0.583E-02    0.89       1.0  T
   3   -100.7274114  0.576154E-03  0.896E-02    0.79       1.0  T
   4   -100.7281492 -0.737829E-03  0.106E-02    0.86       1.1  T
   5   -100.7281569 -0.770795E-05  0.181E-03    0.86       6.5  T
   6   -100.7281570 -0.121068E-06  0.904E-04    0.86      13.0  T
   7   -100.7281571 -0.959777E-08  0.395E-04    0.86      29.8  T
     SCC iter.                  ...        0 min,  0.057 sec
     gradient                   ...        0 min,  0.069 sec
 * total energy  :   -99.3254133 Eh     change       -0.1465677E-02 Eh
   gradient norm :     0.0085969 Eh/α   predicted    -0.1011812E-02 ( -30.97%)
   displ. norm   :     0.4828494 α      lambda       -0.1881345E-02
   maximum displ.:     0.2445153 α      in ANC's #12, #13, #16, ...

........................................................................
.............................. CYCLE   23 ..............................
........................................................................

 iter      E             dE          RMSdq      gap      omega  full diag
   1   -100.7288625 -0.100729E+03  0.100E-01    0.84       0.0  T
   2   -100.7287368  0.125720E-03  0.711E-02    0.88       1.0  T
   3   -100.7267557  0.198110E-02  0.147E-01    0.74       1.0  T
   4   -100.7288741 -0.211841E-02  0.131E-02    0.85       1.0  T
   5   -100.7288870 -0.129518E-04  0.231E-03    0.85       5.1  T
   6   -100.7288872 -0.162909E-06  0.124E-03    0.85       9.5  T
   7   -100.7288872 -0.213203E-07  0.503E-04    0.85      23.4  T
   8   -100.7288872 -0.168641E-07  0.225E-04    0.85      52.3  T
     SCC iter.                  ...        0 min,  0.065 sec
     gradient                   ...        0 min,  0.071 sec
 * total energy  :   -99.3267263 Eh     change       -0.1312988E-02 Eh
   gradient norm :     0.0073682 Eh/α   predicted    -0.1159984E-02 ( -11.65%)
   displ. norm   :     0.4322319 α      lambda       -0.9283801E-03
   maximum displ.:     0.2198179 α      in ANC's #12, #13, #35, ...

........................................................................
.............................. CYCLE   24 ..............................
........................................................................

 iter      E             dE          RMSdq      gap      omega  full diag
   1   -100.7278080 -0.100728E+03  0.787E-02    0.84       0.0  T
   2   -100.7277868  0.211704E-04  0.494E-02    0.86       1.0  T
   3   -100.7266228  0.116400E-02  0.109E-01    0.76       1.0  T
   4   -100.7278118 -0.118898E-02  0.582E-03    0.84       2.0  T
   5   -100.7278150 -0.316696E-05  0.168E-03    0.84       7.0  T
   6   -100.7278150 -0.893436E-07  0.934E-04    0.84      12.6  T
   7   -100.7278151 -0.140585E-07  0.347E-04    0.84      33.9  T
     SCC iter.                  ...        0 min,  0.057 sec
     gradient                   ...        0 min,  0.069 sec
 * total energy  :   -99.3274368 Eh     change       -0.7105163E-03 Eh
   gradient norm :     0.0098507 Eh/α   predicted    -0.5509198E-03 ( -22.46%)
   displ. norm   :     0.4583269 α      lambda       -0.7970397E-03
   maximum displ.:     0.2207662 α      in ANC's #12, #13, #35, ...

........................................................................
.............................. CYCLE   25 ..............................
........................................................................

 iter      E             dE          RMSdq      gap      omega  full diag
   1   -100.7279097 -0.100728E+03  0.782E-02    0.83       0.0  T
   2   -100.7278776  0.320458E-04  0.494E-02    0.86       1.0  T
   3   -100.7266114  0.126620E-02  0.115E-01    0.75       1.0  T
   4   -100.7279143 -0.130291E-02  0.663E-03    0.84       1.8  T
   5   -100.7279179 -0.359977E-05  0.195E-03    0.84       6.0  T
   6   -100.7279180 -0.108353E-06  0.963E-04    0.84      12.2  T
   7   -100.7279181 -0.995846E-08  0.389E-04    0.84      30.3  T
     SCC iter.                  ...        0 min,  0.057 sec
     gradient                   ...        0 min,  0.069 sec
 * total energy  :   -99.3280450 Eh     change       -0.6081753E-03 Eh
   gradient norm :     0.0082494 Eh/α   predicted    -0.4822348E-03 ( -20.71%)
   displ. norm   :     0.4333525 α      lambda       -0.6062231E-03
   maximum displ.:     0.1945824 α      in ANC's #12, #13, #5, ...

........................................................................
.............................. CYCLE   26 ..............................
........................................................................

 iter      E             dE          RMSdq      gap      omega  full diag
   1   -100.7292179 -0.100729E+03  0.767E-02    0.83       0.0  T
   2   -100.7291965  0.213739E-04  0.465E-02    0.85       1.0  T
   3   -100.7281131  0.108343E-02  0.106E-01    0.75       1.0  T
   4   -100.7292221 -0.110903E-02  0.588E-03    0.83       2.0  T
   5   -100.7292249 -0.280726E-05  0.195E-03    0.84       6.0  T
   6   -100.7292250 -0.607442E-07  0.916E-04    0.84      12.9  T
   7   -100.7292250 -0.268015E-07  0.333E-04    0.84      35.3  T
     SCC iter.                  ...        0 min,  0.058 sec
     gradient                   ...        0 min,  0.073 sec
 * total energy  :   -99.3284916 Eh     change       -0.4465494E-03 Eh
   gradient norm :     0.0059844 Eh/α   predicted    -0.3600370E-03 ( -19.37%)
   displ. norm   :     0.3766425 α      lambda       -0.4081597E-03
   maximum displ.:     0.1459600 α      in ANC's #12, #9, #5, ...

........................................................................
.............................. CYCLE   27 ..............................
........................................................................

 iter      E             dE          RMSdq      gap      omega  full diag
   1   -100.7310554 -0.100731E+03  0.746E-02    0.83       0.0  T
   2   -100.7310507  0.474389E-05  0.437E-02    0.84       1.0  T
   3   -100.7305000  0.550688E-03  0.747E-02    0.77       1.0  T
   4   -100.7310582 -0.558215E-03  0.640E-03    0.83       1.8  T
   5   -100.7310616 -0.344185E-05  0.190E-03    0.83       6.2  T
   6   -100.7310617 -0.476309E-07  0.907E-04    0.83      13.0  T
   7   -100.7310617 -0.402034E-07  0.267E-04    0.83      44.1  T
     SCC iter.                  ...        0 min,  0.057 sec
     gradient                   ...        0 min,  0.068 sec
 * total energy  :   -99.3288032 Eh     change       -0.3116845E-03 Eh
   gradient norm :     0.0055506 Eh/α   predicted    -0.2330585E-03 ( -25.23%)
   displ. norm   :     0.3905903 α      lambda       -0.3611955E-03
   maximum displ.:     0.1646789 α      in ANC's #9, #5, #8, ...

........................................................................
.............................. CYCLE   28 ..............................
........................................................................

 iter      E             dE          RMSdq      gap      omega  full diag
   1   -100.7325239 -0.100733E+03  0.856E-02    0.83       0.0  T
   2   -100.7325273 -0.341561E-05  0.494E-02    0.84       1.0  T
   3   -100.7323478  0.179505E-03  0.424E-02    0.80       1.0  T
   4   -100.7325050 -0.157107E-03  0.175E-02    0.84       1.0  T
   5   -100.7325329 -0.279694E-04  0.228E-03    0.83       5.2  T
   6   -100.7325330 -0.559177E-07  0.106E-03    0.83      11.1  T
   7   -100.7325330 -0.372847E-07  0.324E-04    0.83      36.3  T
   8   -100.7325330 -0.702673E-08  0.138E-04    0.83      85.5  T
     SCC iter.                  ...        0 min,  0.065 sec
     gradient                   ...        0 min,  0.069 sec
 * total energy  :   -99.3290889 Eh     change       -0.2856446E-03 Eh
   gradient norm :     0.0057714 Eh/α   predicted    -0.2081509E-03 ( -27.13%)
   displ. norm   :     0.4411527 α      lambda       -0.3658490E-03
   maximum displ.:     0.1947975 α      in ANC's #9, #5, #8, ...

........................................................................
.............................. CYCLE   29 ..............................
........................................................................

 iter      E             dE          RMSdq      gap      omega  full diag
   1   -100.7329214 -0.100733E+03  0.105E-01    0.83       0.0  T
   2   -100.7329220 -0.607909E-06  0.608E-02    0.82       1.0  T
   3   -100.7324272  0.494768E-03  0.730E-02    0.88       1.0  T
   4   -100.7329004 -0.473147E-03  0.182E-02    0.82       1.0  T
   5   -100.7329342 -0.337872E-04  0.301E-03    0.83       3.9  T
   6   -100.7329344 -0.202368E-06  0.115E-03    0.83      10.3  T
   7   -100.7329344 -0.574395E-07  0.336E-04    0.83      35.1  T
   8   -100.7329344 -0.659112E-08  0.157E-04    0.83      74.9  T
     SCC iter.                  ...        0 min,  0.065 sec
     gradient                   ...        0 min,  0.069 sec
 * total energy  :   -99.3293803 Eh     change       -0.2914046E-03 Eh
   gradient norm :     0.0057779 Eh/α   predicted    -0.2185255E-03 ( -25.01%)
   displ. norm   :     0.4696665 α      lambda       -0.3584974E-03
   maximum displ.:     0.2120422 α      in ANC's #9, #5, #8, ...

........................................................................
.............................. CYCLE   30 ..............................
........................................................................

 iter      E             dE          RMSdq      gap      omega  full diag
   1   -100.7330153 -0.100733E+03  0.115E-01    0.83       0.0  T
   2   -100.7329673  0.479547E-04  0.706E-02    0.81       1.0  T
   3   -100.7308681  0.209920E-02  0.150E-01    0.94       1.0  T
   4   -100.7330209 -0.215278E-02  0.115E-02    0.82       1.0  T
   5   -100.7330331 -0.122077E-04  0.318E-03    0.83       3.7  T
   6   -100.7330333 -0.217325E-06  0.987E-04    0.83      11.9  T
   7   -100.7330334 -0.535633E-07  0.320E-04    0.83      36.8  T
     SCC iter.                  ...        0 min,  0.057 sec
     gradient                   ...        0 min,  0.068 sec
 * total energy  :   -99.3296608 Eh     change       -0.2804675E-03 Eh
   gradient norm :     0.0059962 Eh/α   predicted    -0.2188004E-03 ( -21.99%)
   displ. norm   :     0.4784032 α      lambda       -0.3187698E-03
   maximum displ.:     0.2171409 α      in ANC's #9, #5, #8, ...

........................................................................
.............................. CYCLE   31 ..............................
........................................................................

 iter      E             dE          RMSdq      gap      omega  full diag
   1   -100.7311517 -0.100731E+03  0.121E-01    0.84       0.0  T
   2   -100.7309945  0.157106E-03  0.801E-02    0.80       1.0  T
   3   -100.7283525  0.264203E-02  0.175E-01    0.96       1.0  T
   4   -100.7311742 -0.282166E-02  0.839E-03    0.83       1.4  T
   5   -100.7311791 -0.491926E-05  0.386E-03    0.83       3.1  T
   6   -100.7311797 -0.587740E-06  0.129E-03    0.83       9.1  T
   7   -100.7311798 -0.152481E-06  0.453E-04    0.83      26.0  T
   8   -100.7311798 -0.181600E-07  0.189E-04    0.83      62.3  T
     SCC iter.                  ...        0 min,  0.065 sec
     gradient                   ...        0 min,  0.068 sec
 * total energy  :   -99.3298997 Eh     change       -0.2389579E-03 Eh
   gradient norm :     0.0060315 Eh/α   predicted    -0.1958636E-03 ( -18.03%)
   displ. norm   :     0.4351907 α      lambda       -0.3280080E-03
   maximum displ.:     0.1946671 α      in ANC's #9, #5, #8, ...

........................................................................
.............................. CYCLE   32 ..............................
........................................................................

 iter      E             dE          RMSdq      gap      omega  full diag
   1   -100.7348491 -0.100735E+03  0.112E-01    0.84       0.0  T
   2   -100.7346695  0.179559E-03  0.785E-02    0.80       1.0  T
   3   -100.7326668  0.200277E-02  0.155E-01    0.95       1.0  T
   4   -100.7348721 -0.220533E-02  0.972E-03    0.83       1.2  T
   5   -100.7348805 -0.838191E-05  0.324E-03    0.83       3.6  T
   6   -100.7348807 -0.176605E-06  0.175E-03    0.83       6.7  T
   7   -100.7348809 -0.251778E-06  0.566E-04    0.83      20.8  T
   8   -100.7348809 -0.291275E-07  0.214E-04    0.83      55.2  T
     SCC iter.                  ...        0 min,  0.065 sec
     gradient                   ...        0 min,  0.069 sec
 * total energy  :   -99.3300768 Eh     change       -0.1770653E-03 Eh
   gradient norm :     0.0078189 Eh/α   predicted    -0.1950709E-03 (  10.17%)
   displ. norm   :     0.4567641 α      lambda       -0.3101588E-03
   maximum displ.:     0.2096758 α      in ANC's #9, #5, #8, ...

........................................................................
.............................. CYCLE   33 ..............................
........................................................................

 iter      E             dE          RMSdq      gap      omega  full diag
   1   -100.7287690 -0.100729E+03  0.117E-01    0.84       0.0  T
   2   -100.7286080  0.160917E-03  0.805E-02    0.80       1.0  T
   3   -100.7265261  0.208194E-02  0.159E-01    0.95       1.0  T
   4   -100.7287786 -0.225250E-02  0.145E-02    0.82       1.0  T
   5   -100.7288047 -0.261263E-04  0.407E-03    0.83       2.9  T
   6   -100.7288057 -0.101007E-05  0.163E-03    0.83       7.2  T
   7   -100.7288058 -0.881216E-07  0.734E-04    0.83      16.1  T
   8   -100.7288059 -0.570307E-07  0.235E-04    0.83      50.2  T
     SCC iter.                  ...        0 min,  0.065 sec
     gradient                   ...        0 min,  0.068 sec
 * total energy  :   -99.3302638 Eh     change       -0.1870601E-03 Eh
   gradient norm :     0.0100894 Eh/α   predicted    -0.1874351E-03 (   0.20%)
   displ. norm   :     0.2624259 α      lambda       -0.3495747E-03
   maximum displ.:     0.1104188 α      in ANC's #5, #11, #9, ...

........................................................................
.............................. CYCLE   34 ..............................
........................................................................

 iter      E             dE          RMSdq      gap      omega  full diag
   1   -100.7330538 -0.100733E+03  0.628E-02    0.85       0.0  T
   2   -100.7329642  0.896512E-04  0.485E-02    0.81       1.0  T
   3   -100.7324927  0.471456E-03  0.821E-02    0.89       1.0  T
   4   -100.7330631 -0.570345E-03  0.103E-02    0.84       1.1  T
   5   -100.7330754 -0.123302E-04  0.279E-03    0.83       4.2  T
   6   -100.7330761 -0.701020E-06  0.108E-03    0.83      10.9  T
   7   -100.7330761 -0.229733E-07  0.520E-04    0.83      22.7  T
   8   -100.7330761 -0.173045E-07  0.159E-04    0.83      74.1  T
     SCC iter.                  ...        0 min,  0.065 sec
     gradient                   ...        0 min,  0.069 sec
 * total energy  :   -99.3304176 Eh     change       -0.1537216E-03 Eh
   gradient norm :     0.0141861 Eh/α   predicted    -0.1868259E-03 (  21.54%)
   displ. norm   :     0.3570929 α      lambda       -0.4356855E-03
   maximum displ.:     0.1607731 α      in ANC's #5, #9, #11, ...

........................................................................
.............................. CYCLE   35 ..............................
........................................................................

 iter      E             dE          RMSdq      gap      omega  full diag
   1   -100.7333190 -0.100733E+03  0.102E-01    0.84       0.0  T
   2   -100.7332564  0.626048E-04  0.689E-02    0.81       1.0  T
   3   -100.7318505  0.140589E-02  0.127E-01    0.93       1.0  T
   4   -100.7332855 -0.143503E-02  0.225E-02    0.81       1.0  T
   5   -100.7333493 -0.637857E-04  0.327E-03    0.83       3.6  T
   6   -100.7333495 -0.166139E-06  0.208E-03    0.83       5.7  T
   7   -100.7333498 -0.276363E-06  0.766E-04    0.83      15.4  T
   8   -100.7333498 -0.480406E-07  0.287E-04    0.83      41.0  T
     SCC iter.                  ...        0 min,  0.065 sec
     gradient                   ...        0 min,  0.071 sec
 * total energy  :   -99.3307368 Eh     change       -0.3192438E-03 Eh
   gradient norm :     0.0110384 Eh/α   predicted    -0.2456217E-03 ( -23.06%)
   displ. norm   :     0.4495135 α      lambda       -0.4836167E-03
   maximum displ.:     0.2066026 α      in ANC's #9, #5, #11, ...

........................................................................
.............................. CYCLE   36 ..............................
........................................................................

 iter      E             dE          RMSdq      gap      omega  full diag
   1   -100.7345875 -0.100735E+03  0.972E-02    0.83       0.0  T
   2   -100.7345898 -0.223757E-05  0.576E-02    0.83       1.0  T
   3   -100.7343235  0.266262E-03  0.557E-02    0.86       1.0  T
   4   -100.7345483 -0.224771E-03  0.219E-02    0.81       1.0  T
   5   -100.7345991 -0.508425E-04  0.270E-03    0.83       4.4  T
   6   -100.7345991  0.679826E-07  0.167E-03    0.83       7.1  T
   7   -100.7345993 -0.213287E-06  0.514E-04    0.83      22.9  T
   8   -100.7345993 -0.216295E-07  0.211E-04    0.83      55.9  T
     SCC iter.                  ...        0 min,  0.065 sec
     gradient                   ...        0 min,  0.069 sec
 * total energy  :   -99.3310203 Eh     change       -0.2834400E-03 Eh
   gradient norm :     0.0096598 Eh/α   predicted    -0.2906713E-03 (   2.55%)
   displ. norm   :     0.5396467 α      lambda       -0.4711514E-03
   maximum displ.:     0.2570479 α      in ANC's #9, #5, #11, ...

........................................................................
.............................. CYCLE   37 ..............................
........................................................................

 iter      E             dE          RMSdq      gap      omega  full diag
   1   -100.7302183 -0.100730E+03  0.143E-01    0.84       0.0  T
   2   -100.7299670  0.251245E-03  0.101E-01    0.79       1.0  T
   3   -100.7273963  0.257078E-02  0.181E-01    0.96       1.0  T
   4   -100.7302177 -0.282139E-02  0.211E-02    0.81       1.0  T
   5   -100.7302784 -0.607455E-04  0.604E-03    0.83       2.0  T
   6   -100.7302807 -0.229050E-05  0.199E-03    0.83       5.9  T
   7   -100.7302809 -0.169772E-06  0.792E-04    0.83      14.9  T
   8   -100.7302809 -0.672166E-07  0.278E-04    0.83      42.4  T
     SCC iter.                  ...        0 min,  0.065 sec
     gradient                   ...        0 min,  0.070 sec
 * total energy  :   -99.3313041 Eh     change       -0.2838091E-03 Eh
   gradient norm :     0.0163120 Eh/α   predicted    -0.3041820E-03 (   7.18%)
   displ. norm   :     0.3663050 α      lambda       -0.6692592E-03
   maximum displ.:     0.1441859 α      in ANC's #10, #7, #11, ...

........................................................................
.............................. CYCLE   38 ..............................
........................................................................

 iter      E             dE          RMSdq      gap      omega  full diag
   1   -100.7396991 -0.100740E+03  0.833E-02    0.84       0.0  T
   2   -100.7397037 -0.462744E-05  0.504E-02    0.82       1.0  T
   3   -100.7391362  0.567501E-03  0.776E-02    0.90       1.0  T
   4   -100.7396937 -0.557502E-03  0.189E-02    0.83       1.0  T
   5   -100.7397248 -0.310911E-04  0.382E-03    0.83       3.1  T
   6   -100.7397256 -0.831936E-06  0.193E-03    0.83       6.1  T
   7   -100.7397257 -0.869699E-07  0.113E-03    0.83      10.4  T
   8   -100.7397258 -0.747682E-07  0.257E-04    0.83      45.8  T
   9   -100.7397258 -0.814040E-08  0.901E-05    0.83     130.8  T
     SCC iter.                  ...        0 min,  0.073 sec
     gradient                   ...        0 min,  0.069 sec
 * total energy  :   -99.3315430 Eh     change       -0.2389699E-03 Eh
   gradient norm :     0.0137351 Eh/α   predicted    -0.3795312E-03 (  58.82%)
   displ. norm   :     0.4943548 α      lambda       -0.6470548E-03
   maximum displ.:     0.2675098 α      in ANC's #9, #11, #5, ...

........................................................................
.............................. CYCLE   39 ..............................
........................................................................

 iter      E             dE          RMSdq      gap      omega  full diag
   1   -100.7312405 -0.100731E+03  0.106E-01    0.84       0.0  T
   2   -100.7309564  0.284141E-03  0.894E-02    0.79       1.0  T
   3   -100.7301892  0.767126E-03  0.112E-01    0.91       1.0  T
   4   -100.7312667 -0.107748E-02  0.157E-02    0.82       1.0  T
   5   -100.7312933 -0.265976E-04  0.341E-03    0.83       3.5  T
   6   -100.7312941 -0.739033E-06  0.180E-03    0.83       6.5  T
   7   -100.7312942 -0.100332E-06  0.778E-04    0.83      15.1  T
   8   -100.7312942 -0.685837E-07  0.232E-04    0.83      50.8  T
     SCC iter.                  ...        0 min,  0.065 sec
     gradient                   ...        0 min,  0.074 sec
 * total energy  :   -99.3319568 Eh     change       -0.4137471E-03 Eh
   gradient norm :     0.0110083 Eh/α   predicted    -0.4025939E-03 (  -2.70%)
   displ. norm   :     0.4137808 α      lambda       -0.5302303E-03
   maximum displ.:     0.2195821 α      in ANC's #9, #11, #5, ...

........................................................................
.............................. CYCLE   40 ..............................
........................................................................

 iter      E             dE          RMSdq      gap      omega  full diag
   1   -100.7295337 -0.100730E+03  0.945E-02    0.83       0.0  T
   2   -100.7293758  0.157880E-03  0.812E-02    0.80       1.0  T
   3   -100.7290818  0.294019E-03  0.797E-02    0.88       1.0  T
   4   -100.7293738 -0.291966E-03  0.467E-02    0.78       1.0  T
   5   -100.7296219 -0.248155E-03  0.350E-03    0.83       3.4  T
   6   -100.7296225 -0.528813E-06  0.185E-03    0.82       6.4  T
   7   -100.7296225 -0.586207E-07  0.743E-04    0.82      15.9  T
   8   -100.7296226 -0.390410E-07  0.247E-04    0.82      47.7  T
     SCC iter.                  ...        0 min,  0.066 sec
     gradient                   ...        0 min,  0.072 sec
 * total energy  :   -99.3322734 Eh     change       -0.3166126E-03 Eh
   gradient norm :     0.0118836 Eh/α   predicted    -0.3105123E-03 (  -1.93%)
   displ. norm   :     0.4648651 α      lambda       -0.5798326E-03
   maximum displ.:     0.2549681 α      in ANC's #9, #11, #5, ...

........................................................................
.............................. CYCLE   41 ..............................
........................................................................

 iter      E             dE          RMSdq      gap      omega  full diag
   1   -100.7296684 -0.100730E+03  0.109E-01    0.84       0.0  T
   2   -100.7291390  0.529331E-03  0.112E-01    0.77       1.0  T
   3   -100.7293318 -0.192748E-03  0.772E-02    0.88       1.0  T
   4   -100.7296646 -0.332790E-03  0.299E-02    0.80       1.0  T
   5   -100.7297711 -0.106500E-03  0.286E-03    0.83       4.1  T
   6   -100.7297710  0.852926E-07  0.221E-03    0.82       5.3  T
   7   -100.7297713 -0.329035E-06  0.589E-04    0.82      20.0  T
   8   -100.7297713 -0.311383E-07  0.228E-04    0.82      51.7  T
     SCC iter.                  ...        0 min,  0.065 sec
     gradient                   ...        0 min,  0.068 sec
 * total energy  :   -99.3327483 Eh     change       -0.4749304E-03 Eh
   gradient norm :     0.0099417 Eh/α   predicted    -0.3525690E-03 ( -25.76%)
   displ. norm   :     0.5904579 α      lambda       -0.1175249E-02
   maximum displ.:     0.2840179 α      in ANC's #9, #7, #4, ...

........................................................................
.............................. CYCLE   42 ..............................
........................................................................

 iter      E             dE          RMSdq      gap      omega  full diag
   1   -100.7411683 -0.100741E+03  0.161E-01    0.86       0.0  T
   2   -100.7398798  0.128855E-02  0.175E-01    0.73       1.0  T
   3   -100.7408984 -0.101865E-02  0.949E-02    0.89       1.0  T
   4   -100.7412115 -0.313097E-03  0.434E-02    0.79       1.0  T
   5   -100.7414319 -0.220390E-03  0.444E-03    0.83       2.7  T
   6   -100.7414338 -0.189407E-05  0.239E-03    0.83       4.9  T
   7   -100.7414341 -0.298646E-06  0.868E-04    0.83      13.6  T
   8   -100.7414342 -0.511981E-07  0.277E-04    0.83      42.5  T
     SCC iter.                  ...        0 min,  0.065 sec
     gradient                   ...        0 min,  0.069 sec
 * total energy  :   -99.3336442 Eh     change       -0.8958769E-03 Eh
   gradient norm :     0.0182230 Eh/α   predicted    -0.7924962E-03 ( -11.54%)
   displ. norm   :     0.7545593 α      lambda       -0.1580509E-02
   maximum displ.:     0.3774299 α      in ANC's #9, #7, #30, ...
 * RMSD in coord.:     0.8738987 α      energy gain  -0.1143834E-01 Eh

generating ANC from model Hessian ...
Using Lindh-Hessian (1995)
 Shifting diagonal of input Hessian by    1.0011863222836462E-002
 Lowest  eigenvalues of input Hessian
    0.010000    0.000000    0.000000    0.000000    0.000000    0.000000
    0.000000    0.010035    0.010097    0.010140    0.010264    0.010428
    0.010477    0.010561    0.010760    0.010843    0.010943    0.011920
 Highest eigenvalues
    2.038213    2.050094    2.051546    2.100597    2.185810    2.190014


........................................................................
.............................. CYCLE   43 ..............................
........................................................................

 iter      E             dE          RMSdq      gap      omega  full diag
   1   -100.7397501 -0.100740E+03  0.243E-01    0.87       0.0  T
   2   -100.7381641  0.158606E-02  0.232E-01    0.74       1.0  T
   3   -100.7390108 -0.846708E-03  0.142E-01    0.94       1.0  T
   4   -100.7390405 -0.297498E-04  0.102E-01    0.73       1.0  T
   5   -100.7404552 -0.141468E-02  0.775E-03    0.84       1.5  T
   6   -100.7404598 -0.462016E-05  0.360E-03    0.84       3.3  T
   7   -100.7404601 -0.296204E-06  0.136E-03    0.84       8.7  T
   8   -100.7404603 -0.112132E-06  0.389E-04    0.84      30.3  T
   9   -100.7404603 -0.242717E-08  0.211E-04    0.84      55.7  T
     SCC iter.                  ...        0 min,  0.073 sec
     gradient                   ...        0 min,  0.069 sec
 * total energy  :   -99.3350670 Eh     change       -0.1422839E-02 Eh
   gradient norm :     0.0295378 Eh/α   predicted     0.0000000E+00 (-100.00%)
   displ. norm   :     0.1368821 α      lambda       -0.1808674E-02
   maximum displ.:     0.0556228 α      in ANC's #38, #39, #18, ...

........................................................................
.............................. CYCLE   44 ..............................
........................................................................

 iter      E             dE          RMSdq      gap      omega  full diag
   1   -100.7375487 -0.100738E+03  0.762E-02    0.82       0.0  T
   2   -100.7375386  0.101428E-04  0.483E-02    0.85       1.0  T
   3   -100.7374031  0.135475E-03  0.457E-02    0.80       1.0  T
   4   -100.7374709 -0.677490E-04  0.336E-02    0.86       1.0  T
   5   -100.7375972 -0.126325E-03  0.551E-03    0.83       2.1  T
   6   -100.7375994 -0.216475E-05  0.151E-03    0.83       7.8  T
   7   -100.7375994 -0.985710E-08  0.902E-04    0.83      13.1  T
   8   -100.7375994 -0.459363E-07  0.312E-04    0.83      37.7  T
     SCC iter.                  ...        0 min,  0.065 sec
     gradient                   ...        0 min,  0.069 sec
 * total energy  :   -99.3364768 Eh     change       -0.1409797E-02 Eh
   gradient norm :     0.0176367 Eh/α   predicted    -0.9213083E-03 ( -34.65%)
   displ. norm   :     0.3058914 α      lambda       -0.2547351E-02
   maximum displ.:     0.1284736 α      in ANC's #39, #38, #18, ...

........................................................................
.............................. CYCLE   45 ..............................
........................................................................

 iter      E             dE          RMSdq      gap      omega  full diag
   1   -100.7330942 -0.100733E+03  0.186E-01    0.79       0.0  T
   2   -100.7327850  0.309238E-03  0.115E-01    0.88       1.0  T
   3   -100.7308420  0.194300E-02  0.154E-01    0.68       1.0  T
   4   -100.7328216 -0.197964E-02  0.724E-02    0.87       1.0  T
   5   -100.7333911 -0.569516E-03  0.769E-03    0.82       1.5  T
   6   -100.7333951 -0.399313E-05  0.288E-03    0.82       4.1  T
   7   -100.7333953 -0.198997E-06  0.153E-03    0.82       7.7  T
   8   -100.7333954 -0.109281E-06  0.575E-04    0.82      20.5  T
   9   -100.7333954 -0.157123E-07  0.218E-04    0.82      54.1  T
     SCC iter.                  ...        0 min,  0.074 sec
     gradient                   ...        0 min,  0.068 sec
 * total energy  :   -99.3389598 Eh     change       -0.2482986E-02 Eh
   gradient norm :     0.0310141 Eh/α   predicted    -0.1393166E-02 ( -43.89%)
   displ. norm   :     0.2757945 α      lambda       -0.3561959E-02
   maximum displ.:     0.1013576 α      in ANC's #39, #38, #30, ...

........................................................................
.............................. CYCLE   46 ..............................
........................................................................

 iter      E             dE          RMSdq      gap      omega  full diag
   1   -100.7331709 -0.100733E+03  0.192E-01    0.76       0.0  T
   2   -100.7321914  0.979477E-03  0.117E-01    0.90       1.0  T
   3   -100.7282030  0.398847E-02  0.211E-01    0.60       1.0  T
   4   -100.7333994 -0.519646E-02  0.265E-02    0.80       1.0  T
   5   -100.7334792 -0.797337E-04  0.709E-03    0.80       1.7  T
   6   -100.7334831 -0.395691E-05  0.259E-03    0.81       4.5  T
   7   -100.7334833 -0.144266E-06  0.136E-03    0.80       8.7  T
   8   -100.7334834 -0.116357E-06  0.511E-04    0.80      23.0  T
   9   -100.7334834 -0.128686E-07  0.167E-04    0.80      70.7  T
     SCC iter.                  ...        0 min,  0.073 sec
     gradient                   ...        0 min,  0.068 sec
 * total energy  :   -99.3432609 Eh     change       -0.4301097E-02 Eh
   gradient norm :     0.0472029 Eh/α   predicted    -0.1916455E-02 ( -55.44%)
   displ. norm   :     0.2746433 α      lambda       -0.6293231E-02
   maximum displ.:     0.0858027 α      in ANC's #119, #124, #30, ...

........................................................................
.............................. CYCLE   47 ..............................
........................................................................

 iter      E             dE          RMSdq      gap      omega  full diag
   1   -100.7356788 -0.100736E+03  0.223E-01    0.69       0.0  T
   2   -100.7325989  0.307987E-02  0.170E-01    0.94       1.0  T
   3   -100.7298373  0.276165E-02  0.235E-01    0.55       1.0  T
   4   -100.7363497 -0.651245E-02  0.356E-02    0.75       1.0  T
   5   -100.7364548 -0.105035E-03  0.468E-03    0.77       2.5  T
   6   -100.7364554 -0.614006E-06  0.323E-03    0.77       3.6  T
   7   -100.7364559 -0.516361E-06  0.132E-03    0.77       8.9  T
   8   -100.7364560 -0.128426E-06  0.413E-04    0.77      28.5  T
   9   -100.7364560 -0.930635E-08  0.204E-04    0.77      57.8  T
     SCC iter.                  ...        0 min,  0.074 sec
     gradient                   ...        0 min,  0.068 sec
 * total energy  :   -99.3492968 Eh     change       -0.6035878E-02 Eh
   gradient norm :     0.0497459 Eh/α   predicted    -0.3383972E-02 ( -43.94%)
   displ. norm   :     0.6703234 α      lambda       -0.1925790E-01
   maximum displ.:     0.2570807 α      in ANC's #119, #123, #124, ...

........................................................................
.............................. CYCLE   48 ..............................
........................................................................

 iter      E             dE          RMSdq      gap      omega  full diag
   1   -100.7303350 -0.100730E+03  0.496E-01    0.52       0.0  T
   2   -100.7013259  0.290090E-01  0.556E-01    0.85       1.0  T
   3   -100.7206715 -0.193455E-01  0.379E-01    0.40       1.0  T
   4   -100.7337031 -0.130316E-01  0.120E-01    0.78       1.0  T
   5   -100.7358034 -0.210034E-02  0.238E-02    0.68       1.0  T
   6   -100.7357921  0.113061E-04  0.198E-02    0.69       1.0  T
   7   -100.7358380 -0.458361E-04  0.509E-03    0.67       2.3  T
   8   -100.7358400 -0.206466E-05  0.212E-03    0.67       5.6  T
   9   -100.7358404 -0.380851E-06  0.680E-04    0.67      17.3  T
  10   -100.7358404 -0.793807E-08  0.250E-04    0.67      47.2  T
     SCC iter.                  ...        0 min,  0.081 sec
     gradient                   ...        0 min,  0.070 sec
 * total energy  :   -99.3085065 Eh     change        0.4079033E-01 Eh
   gradient norm :     0.3355486 Eh/α   predicted    -0.1395556E-01 (-134.21%)
   displ. norm   :     0.4215538 α      lambda       -0.1242524E+00
   maximum displ.:     0.1803377 α      in ANC's #119, #124, #123, ...

........................................................................
.............................. CYCLE   49 ..............................
........................................................................

 iter      E             dE          RMSdq      gap      omega  full diag
   1   -100.7425653 -0.100743E+03  0.345E-01    0.87       0.0  T
   2   -100.7318450  0.107203E-01  0.345E-01    0.47       1.0  T
   3   -100.7378404 -0.599536E-02  0.272E-01    1.00       1.0  T
   4   -100.7447739 -0.693347E-02  0.820E-02    0.68       1.0  T
   5   -100.7456433 -0.869457E-03  0.147E-02    0.75       1.0  T
   6   -100.7456610 -0.177182E-04  0.733E-03    0.75       1.6  T
   7   -100.7456648 -0.379916E-05  0.280E-03    0.76       4.2  T
   8   -100.7456655 -0.619034E-06  0.863E-04    0.75      13.7  T
   9   -100.7456655 -0.336208E-07  0.448E-04    0.75      26.3  T
     SCC iter.                  ...        0 min,  0.074 sec
     gradient                   ...        0 min,  0.068 sec
 * total energy  :   -99.3537262 Eh     change       -0.4521977E-01 Eh
   gradient norm :     0.0342808 Eh/α   predicted    -0.7316660E-01 (  61.80%)
   displ. norm   :     0.2364055 α      lambda       -0.2887748E-02
   maximum displ.:     0.0895138 α      in ANC's #30, #36, #27, ...

........................................................................
.............................. CYCLE   50 ..............................
........................................................................

 iter      E             dE          RMSdq      gap      omega  full diag
   1   -100.7414127 -0.100741E+03  0.119E-01    0.72       0.0  T
   2   -100.7412641  0.148640E-03  0.760E-02    0.78       1.0  T
   3   -100.7386830  0.258105E-02  0.138E-01    0.61       1.0  T
   4   -100.7414482 -0.276519E-02  0.862E-03    0.74       1.4  T
   5   -100.7414536 -0.540513E-05  0.334E-03    0.74       3.5  T
   6   -100.7414538 -0.218143E-06  0.156E-03    0.74       7.6  T
   7   -100.7414540 -0.181558E-06  0.674E-04    0.74      17.5  T
   8   -100.7414541 -0.440021E-07  0.295E-04    0.74      39.9  T
     SCC iter.                  ...        0 min,  0.066 sec
     gradient                   ...        0 min,  0.069 sec
 * total energy  :   -99.3540853 Eh     change       -0.3590541E-03 Eh
   gradient norm :     0.0232929 Eh/α   predicted    -0.1524273E-02 ( 324.52%)
   displ. norm   :     0.1472708 α      lambda       -0.1815157E-02
   maximum displ.:     0.0702774 α      in ANC's #36, #52, #35, ...

........................................................................
.............................. CYCLE   51 ..............................
........................................................................

 iter      E             dE          RMSdq      gap      omega  full diag
   1   -100.7472959 -0.100747E+03  0.700E-02    0.77       0.0  T
   2   -100.7472863  0.963984E-05  0.420E-02    0.74       1.0  T
   3   -100.7468790  0.407288E-03  0.560E-02    0.81       1.0  T
   4   -100.7472627 -0.383749E-03  0.232E-02    0.74       1.0  T
   5   -100.7473307 -0.679822E-04  0.293E-03    0.75       4.0  T
   6   -100.7473311 -0.359750E-06  0.166E-03    0.75       7.1  T
   7   -100.7473313 -0.197161E-06  0.727E-04    0.75      16.2  T
   8   -100.7473313 -0.537760E-07  0.190E-04    0.75      62.0  T
     SCC iter.                  ...        0 min,  0.065 sec
     gradient                   ...        0 min,  0.069 sec
 * total energy  :   -99.3550654 Eh     change       -0.9801372E-03 Eh
   gradient norm :     0.0100991 Eh/α   predicted    -0.9272811E-03 (  -5.39%)
   displ. norm   :     0.1008960 α      lambda       -0.3330490E-03
   maximum displ.:     0.0370045 α      in ANC's #52, #13, #14, ...

........................................................................
.............................. CYCLE   52 ..............................
........................................................................

 iter      E             dE          RMSdq      gap      omega  full diag
   1   -100.7472052 -0.100747E+03  0.446E-02    0.77       0.0  T
   2   -100.7471913  0.138902E-04  0.248E-02    0.75       1.0  T
   3   -100.7469385  0.252854E-03  0.433E-02    0.81       1.0  T
   4   -100.7472183 -0.279785E-03  0.801E-03    0.76       1.5  T
   5   -100.7472227 -0.446227E-05  0.287E-03    0.76       4.1  T
   6   -100.7472228 -0.620126E-07  0.145E-03    0.76       8.2  T
   7   -100.7472231 -0.261098E-06  0.389E-04    0.76      30.3  T
   8   -100.7472231 -0.131649E-07  0.148E-04    0.76      79.4  T
     SCC iter.                  ...        0 min,  0.065 sec
     gradient                   ...        0 min,  0.069 sec
 * total energy  :   -99.3552994 Eh     change       -0.2339706E-03 Eh
   gradient norm :     0.0100233 Eh/α   predicted    -0.1682283E-03 ( -28.10%)
   displ. norm   :     0.1926966 α      lambda       -0.4425355E-03
   maximum displ.:     0.0705246 α      in ANC's #10, #13, #14, ...

........................................................................
.............................. CYCLE   53 ..............................
........................................................................

 iter      E             dE          RMSdq      gap      omega  full diag
   1   -100.7474704 -0.100747E+03  0.686E-02    0.77       0.0  T
   2   -100.7474920 -0.215282E-04  0.325E-02    0.77       1.0  T
   3   -100.7474657  0.263183E-04  0.197E-02    0.76       1.0  T
   4   -100.7474834 -0.177379E-04  0.121E-02    0.78       1.0  T
[...]
         :: SCC energy              -100.749223007035 Eh    ::
         :: -> isotropic ES            0.104711706702 Eh    ::
         :: -> anisotropic ES          0.004212597600 Eh    ::
         :: -> anisotropic XC          0.044065579293 Eh    ::
         :: -> dispersion             -0.071980584239 Eh    ::
         :: repulsion energy           1.391760238290 Eh    ::
         :: add. restraining           0.000015333431 Eh    ::
         :: total charge               1.000000000002 e     ::
         :::::::::::::::::::::::::::::::::::::::::::::::::::::

           -------------------------------------------------
          |                Property Printout                |
           -------------------------------------------------

    * Orbital Energies and Occupations

         #    Occupation            Energy/Eh            Energy/eV
      -------------------------------------------------------------
         1        2.0000           -0.8171650             -22.2362
       ...           ...                  ...                  ...
        78        1.9974           -0.5352470             -14.5648
        79        1.9969           -0.5321632             -14.4809
        80        1.9957           -0.5269197             -14.3382
        81        1.9948           -0.5239359             -14.2570
        82        1.9935           -0.5204287             -14.1616
        83        1.9923           -0.5177160             -14.0878
        84        1.9903           -0.5141723             -13.9913
        85        1.9718           -0.4971122             -13.5271
        86        1.9659           -0.4940440             -13.4436
        87        1.8680           -0.4717964             -12.8382
        88        1.8150           -0.4660030             -12.6806
        89        1.7958           -0.4642686             -12.6334
        90        1.6909           -0.4567503             -12.4288 (HOMO)
        91        0.9425           -0.4280226             -11.6471 (LUMO)
        92        0.0024           -0.3231143              -8.7924
        93        0.0020           -0.3203746              -8.7178
        94        0.0017           -0.3174657              -8.6387
        95        0.0015           -0.3160231              -8.5994
        96        0.0004           -0.2934867              -7.9862
        97        0.0000           -0.1976308              -5.3778
        98        0.0000           -0.1924271              -5.2362
        99        0.0000           -0.1719873              -4.6800
       100                         -0.1020940              -2.7781
       101                         -0.0699364              -1.9031
       ...                                ...                  ...
       171                          0.5681825              15.4610
      -------------------------------------------------------------
                  HL-Gap            0.0287277 Eh            0.7817 eV
             Fermi-level           -0.4298446 Eh          -11.6967 eV

     #   Z          covCN         q      C6AA      α(0)
     1   7 N        1.773    -0.314    28.944     7.967
     2   6 C        3.774     0.098    18.990     6.209
     3   6 C        3.910     0.028    20.044     6.364
     4   6 C        2.971     0.001    28.009     8.681
     5   6 C        2.921    -0.075    29.865     8.962
     6   6 C        2.862     0.134    25.059     8.205
     7   8 O        1.706    -0.221    17.673     5.676
     8   6 C        3.645     0.024    20.499     6.507
     9   6 C        2.863     0.132    25.113     8.214
    10   8 O        1.706    -0.221    17.671     5.676
    11   6 C        3.645     0.025    20.495     6.507
    12   6 C        2.913    -0.072    29.792     8.950
    13   6 C        2.920    -0.047    29.155     8.855
    14   6 C        3.809    -0.072    21.874     6.657
    15   6 C        2.838    -0.122    31.102     9.139
    16   6 C        2.841     0.021    27.522     8.598
    17   7 N        2.732    -0.047    22.148     6.990
    18   6 C        3.753    -0.007    20.764     6.498
    19   6 C        3.807    -0.071    21.848     6.654
    20   6 C        2.967     0.009    27.824     8.652
    21   6 C        2.922    -0.044    29.095     8.845
    22   6 C        2.912    -0.065    29.613     8.923
    23   6 C        2.864     0.136    25.024     8.200
    24   8 O        1.706    -0.213    17.537     5.654
    25   6 C        3.645     0.023    20.530     6.512
    26   6 C        2.862     0.136    25.022     8.199
    27   8 O        1.706    -0.216    17.585     5.662
    28   6 C        3.645     0.024    20.500     6.508
    29   6 C        2.919    -0.076    29.891     8.966
    30   6 C        3.699    -0.056    21.755     6.671
    31   6 C        3.852    -0.003    20.599     6.455
    32   6 C        3.757    -0.113    22.709     6.794
    33   6 C        3.755    -0.123    22.919     6.826
    34   1 H        0.926     0.058     2.220     2.330
    35   1 H        0.924     0.057     2.234     2.337
    36   1 H        0.925     0.084     1.934     2.175
    37   1 H        0.924     0.054     2.267     2.355
    38   1 H        0.924     0.058     2.220     2.330
    39   1 H        0.925     0.084     1.936     2.176
    40   1 H        0.924     0.051     2.305     2.374
    41   1 H        0.926     0.056     2.246     2.344
    42   1 H        0.926     0.052     2.299     2.371
    43   1 H        0.926     0.062     2.180     2.309
    44   1 H        0.926     0.086     1.923     2.168
    45   1 H        0.926     0.043     2.405     2.425
    46   1 H        0.926     0.051     2.310     2.377
    47   1 H        0.924     0.014     2.832     2.632
    48   1 H        0.925     0.053     2.285     2.364
    49   1 H        0.924     0.055     2.262     2.352
    50   1 H        0.924     0.061     2.193     2.316
    51   1 H        0.924     0.058     2.220     2.330
    52   1 H        0.924     0.053     2.281     2.362
    53   1 H        0.926     0.052     2.296     2.370
    54   1 H        0.926     0.062     2.173     2.305
    55   1 H        0.924     0.059     2.215     2.327
    56   1 H        0.924     0.060     2.197     2.318
    57   1 H        0.925     0.086     1.921     2.168
    58   1 H        0.925     0.085     1.928     2.172
    59   1 H        0.924     0.054     2.266     2.354
    60   1 H        0.924     0.057     2.233     2.337
    61   1 H        0.926     0.054     2.268     2.355
    62   1 H        0.924     0.060     2.196     2.317
    63   1 H        0.924     0.063     2.160     2.298
    64   1 H        0.925     0.062     2.179     2.308
    65   1 H        0.923     0.054     2.269     2.355
    66   1 H        0.925     0.057     2.234     2.338
    67   1 H        0.925     0.041     2.438     2.442
    68   1 H        0.925     0.056     2.249     2.345
    69   1 H        0.925     0.083     1.948     2.183
    70   1 H        0.925     0.045     2.379     2.412
    71   1 H        0.925     0.057     2.236     2.338
    72   1 H        0.860     0.148     1.414     1.862

 Mol. C6AA /au·bohr⁶  :      47457.231751
 Mol. C8AA /au·bohr⁸  :    1082344.493991
 Mol. α(0) /au        :        334.505923


Wiberg/Mayer (AO) data.
largest (>0.10) Wiberg bond orders for each atom

 ---------------------------------------------------------------------------
     #   Z sym  total        # sym  WBO       # sym  WBO       # sym  WBO
 ---------------------------------------------------------------------------
     1   7 N    2.395 --     2 C    1.354    72 H    0.948
     2   6 C    3.855 --     1 N    1.354    47 H    0.940    14 C    0.836
                             3 C    0.694
     3   6 C    3.757 --    14 C    1.002     4 C    1.002    31 C    0.977
                             2 C    0.694
     4   6 C    3.934 --    13 C    1.398     5 C    1.366     3 C    1.002
     5   6 C    3.945 --     6 C    1.394     4 C    1.366    34 H    0.961
     6   6 C    3.893 --     5 C    1.394     9 C    1.213     7 O    1.110
     7   8 O    2.253 --     6 C    1.110     8 C    0.975
     8   6 C    3.926 --    36 H    0.976     7 O    0.975    35 H    0.972
                            37 H    0.972
     9   6 C    3.886 --    12 C    1.383     6 C    1.213    10 O    1.110
    10   8 O    2.252 --     9 C    1.110    11 C    0.976
    11   6 C    3.928 --    39 H    0.976    10 O    0.976    40 H    0.972
                            38 H    0.972
    12   6 C    3.956 --    13 C    1.410     9 C    1.383    41 H    0.963
    13   6 C    3.936 --    12 C    1.410     4 C    1.398    42 H    0.966
    14   6 C    3.843 --     3 C    1.002    44 H    0.966    43 H    0.955
                             2 C    0.836
    15   6 C    3.803 --    16 C    1.721    46 H    0.975    45 H    0.974
    16   6 C    3.942 --    15 C    1.721    17 N    1.206    48 H    0.957
    17   7 N    3.357 --    16 C    1.206    30 C    1.007    18 C    1.005
    18   6 C    3.961 --    17 N    1.005    49 H    0.968    50 H    0.966
                            19 C    0.961
    19   6 C    3.971 --    20 C    1.015    52 H    0.973    51 H    0.966
                            18 C    0.961
    20   6 C    3.924 --    29 C    1.388    21 C    1.385    19 C    1.015
    21   6 C    3.926 --    22 C    1.430    20 C    1.385    53 H    0.967
    22   6 C    3.949 --    21 C    1.430    23 C    1.369    54 H    0.962
    23   6 C    3.870 --    22 C    1.369    26 C    1.208    24 O    1.120
    24   8 O    2.249 --    23 C    1.120    25 C    0.974
    25   6 C    3.923 --    57 H    0.976    24 O    0.974    55 H    0.971
                            56 H    0.971
    26   6 C    3.877 --    29 C    1.383    23 C    1.208    27 O    1.115
    27   8 O    2.250 --    26 C    1.115    28 C    0.976
    28   6 C    3.926 --    58 H    0.976    27 O    0.976    60 H    0.972
                            59 H    0.972
    29   6 C    3.948 --    20 C    1.388    26 C    1.383    61 H    0.961
    30   6 C    3.965 --    17 N    1.007    64 H    0.980    62 H    0.967
                            63 H    0.966
    31   6 C    3.967 --    33 C    1.008    32 C    0.995     3 C    0.977
                            65 H    0.938
    32   6 C    3.971 --    31 C    0.995    68 H    0.982    67 H    0.981
                            66 H    0.976
    33   6 C    3.966 --    31 C    1.008    70 H    0.980    71 H    0.978
                            69 H    0.962
    34   1 H    0.995 --     5 C    0.961
    35   1 H    0.991 --     8 C    0.972
    36   1 H    0.992 --     8 C    0.976
    37   1 H    0.991 --     8 C    0.972
    38   1 H    0.991 --    11 C    0.972
    39   1 H    0.992 --    11 C    0.976
    40   1 H    0.991 --    11 C    0.972
    41   1 H    0.995 --    12 C    0.963
    42   1 H    0.996 --    13 C    0.966
    43   1 H    0.989 --    14 C    0.955
    44   1 H    0.988 --    14 C    0.966
    45   1 H    0.997 --    15 C    0.974
    46   1 H    0.997 --    15 C    0.975
    47   1 H    0.975 --     2 C    0.940
    48   1 H    0.997 --    16 C    0.957
    49   1 H    0.993 --    18 C    0.968
    50   1 H    0.993 --    18 C    0.966
    51   1 H    0.993 --    19 C    0.966
    52   1 H    0.996 --    19 C    0.973
    53   1 H    0.996 --    21 C    0.967
    54   1 H    0.994 --    22 C    0.962
    55   1 H    0.989 --    25 C    0.971
    56   1 H    0.988 --    25 C    0.971
    57   1 H    0.992 --    25 C    0.976
    58   1 H    0.992 --    28 C    0.976
    59   1 H    0.990 --    28 C    0.972
    60   1 H    0.990 --    28 C    0.972
    61   1 H    0.995 --    29 C    0.961
    62   1 H    0.982 --    30 C    0.967
    63   1 H    0.989 --    30 C    0.966
    64   1 H    0.996 --    30 C    0.980
    65   1 H    0.974 --    31 C    0.938
    66   1 H    0.993 --    32 C    0.976
    67   1 H    0.996 --    32 C    0.981
    68   1 H    0.994 --    32 C    0.982
    69   1 H    0.985 --    33 C    0.962
    70   1 H    0.994 --    33 C    0.980
    71   1 H    0.992 --    33 C    0.978
    72   1 H    0.969 --     1 N    0.948
 ---------------------------------------------------------------------------

Topologies differ in total number of bonds
Writing topology from bond orders to xtbtopo.mol

molecular dipole:
                 x           y           z       tot (Debye)
 q only:        0.503      -0.267      -0.208
   full:        0.674      -0.576      -0.212       2.317
molecular quadrupole (traceless):
                xx          xy          yy          xz          yz          zz
 q only:       69.504      -1.941     -22.695       4.466     -10.209     -46.809
  q+dip:       66.651       1.477     -24.734       3.786     -13.159     -41.917
   full:       66.799       0.921     -25.863       1.427     -12.550     -40.935

           -------------------------------------------------
          |                Geometry Summary                 |
           -------------------------------------------------

      molecular mass/u    :      455.6105846
   center of mass at/Å    :        0.0023057       0.0252222      -0.0532112
  moments of inertia/u·Å² :        0.2650341E+04   0.1101134E+05   0.1231944E+05
rotational constants/cm⁻¹ :        0.6360553E-02   0.1530934E-02   0.1368376E-02

 * 68 selected distances

     #   Z          #   Z                                           value/Å
     1   7 N        2   6 C                                       1.3341532
     4   6 C        5   6 C                                       1.3955391
     5   6 C        6   6 C                                       1.3856713
     6   6 C        7   8 O                                       1.3456643
     7   8 O        8   6 C                                       1.4092873
     6   6 C        9   6 C                                       1.4242525
     9   6 C       10   8 O                                       1.3456423
    10   8 O       11   6 C                                       1.4088891
     9   6 C       12   6 C                                       1.3878280
     4   6 C       13   6 C                                       1.3873521
    12   6 C       13   6 C                                       1.3881274
     2   6 C       14   6 C                                       1.5312001 (max)
     3   6 C       14   6 C                                       1.4770886
    15   6 C       16   6 C                                       1.3402381
    16   6 C       17   7 N                                       1.3609471
    17   7 N       18   6 C                                       1.4388489
    20   6 C       21   6 C                                       1.3897195
    21   6 C       22   6 C                                       1.3842419
    22   6 C       23   6 C                                       1.3896380
    23   6 C       24   8 O                                       1.3429360
    24   8 O       25   6 C                                       1.4095200
    23   6 C       26   6 C                                       1.4247875
    26   6 C       27   8 O                                       1.3446411
    27   8 O       28   6 C                                       1.4083100
    20   6 C       29   6 C                                       1.3914787
    26   6 C       29   6 C                                       1.3879910
    17   7 N       30   6 C                                       1.4406899
     3   6 C       31   6 C                                       1.5214444
    31   6 C       32   6 C                                       1.5289882
    31   6 C       33   6 C                                       1.5233138
     5   6 C       34   1 H                                       1.0782030
     8   6 C       35   1 H                                       1.0939682
     8   6 C       36   1 H                                       1.0882591
     8   6 C       37   1 H                                       1.0943308
    11   6 C       38   1 H                                       1.0938219
    11   6 C       39   1 H                                       1.0881871
    11   6 C       40   1 H                                       1.0946069
    12   6 C       41   1 H                                       1.0780823
    13   6 C       42   1 H                                       1.0789940
    14   6 C       43   1 H                                       1.0806161
    14   6 C       44   1 H                                       1.0755879
    15   6 C       45   1 H                                       1.0746148
    15   6 C       46   1 H                                       1.0741311 (min)
     2   6 C       47   1 H                                       1.0941131
    16   6 C       48   1 H                                       1.0818154
    18   6 C       49   1 H                                       1.0931931
    18   6 C       50   1 H                                       1.0928595
    19   6 C       51   1 H                                       1.0921160
    19   6 C       52   1 H                                       1.0905591
    21   6 C       53   1 H                                       1.0792299
    22   6 C       54   1 H                                       1.0776848
    25   6 C       55   1 H                                       1.0940696
    25   6 C       56   1 H                                       1.0939230
    25   6 C       57   1 H                                       1.0882712
    28   6 C       58   1 H                                       1.0883269
    28   6 C       59   1 H                                       1.0944259
    28   6 C       60   1 H                                       1.0942017
    29   6 C       61   1 H                                       1.0787057
    30   6 C       62   1 H                                       1.0946464
    30   6 C       63   1 H                                       1.0915459
    30   6 C       64   1 H                                       1.0877785
    31   6 C       65   1 H                                       1.0990904
    32   6 C       66   1 H                                       1.0880908
    32   6 C       67   1 H                                       1.0873194
    32   6 C       68   1 H                                       1.0862034
    33   6 C       69   1 H                                       1.0877619
    33   6 C       70   1 H                                       1.0871042
    33   6 C       71   1 H                                       1.0868652

 * 4 distinct bonds (by element types)

   Z      Z             #   av. dist./Å        max./Å        min./Å
   1 H    6 C          38     1.0874554     1.0990904     1.0741311
   6 C    6 C          18     1.4254945     1.5312001     1.3402381
   6 C    7 N           4     1.3936598     1.4406899     1.3341532
   6 C    8 O           8     1.3768613     1.4095200     1.3429360


optimized geometry written to: xtbopt.xyz


           -------------------------------------------------
          | TOTAL ENERGY              -99.356130967154 Eh   |
          | GRADIENT NORM               0.002000077179 Eh/α |
          | HOMO-LUMO GAP               0.781720471905 eV   |
           -------------------------------------------------

------------------------------------------------------------------------
 * finished run on 2024/04/06 at 11:13:20.998     
------------------------------------------------------------------------
 total:
 * wall-time:     0 d,  0 h,  0 min,  9.845 sec
 *  cpu-time:     0 d,  0 h,  0 min,  9.818 sec
 * ratio c/w:     0.997 speedup
 SCF:
 * wall-time:     0 d,  0 h,  0 min,  0.191 sec
 *  cpu-time:     0 d,  0 h,  0 min,  0.190 sec
 * ratio c/w:     0.998 speedup
 ANC optimizer:
 * wall-time:     0 d,  0 h,  0 min,  9.611 sec
 *  cpu-time:     0 d,  0 h,  0 min,  9.603 sec
 * ratio c/w:     0.999 speedup

