      -----------------------------------------------------------      
     |                   =====================                   |     
     |                           x T B                           |     
     |                   =====================                   |     
     |                         S. Grimme                         |     
     |          Mulliken Center for Theoretical Chemistry        |     
     |                    University of Bonn                     |     
      -----------------------------------------------------------      

   * xtb version 6.6.1 (8d0f1dd) compiled by 'conda@1efc2f54142f' on 2023-08-01

   xtb is free software: you can redistribute it and/or modify it under
   the terms of the GNU Lesser General Public License as published by
   the Free Software Foundation, either version 3 of the License, or
   (at your option) any later version.
   
   xtb is distributed in the hope that it will be useful,
   but WITHOUT ANY WARRANTY; without even the implied warranty of
   MERCHANTABILITY or FITNESS FOR A PARTICULAR PURPOSE.  See the
   GNU Lesser General Public License for more details.
   
   Cite this work as:
   * C. Bannwarth, E. Caldeweyher, S. Ehlert, A. Hansen, P. Pracht,
     J. Seibert, S. Spicher, S. Grimme, WIREs Comput. Mol. Sci., 2020, 11,
     e01493. DOI: 10.1002/wcms.1493
   
   for GFN2-xTB:
   * C. Bannwarth, S. Ehlert and S. Grimme., J. Chem. Theory Comput., 2019,
     15, 1652-1671. DOI: 10.1021/acs.jctc.8b01176
   for GFN1-xTB:
   * S. Grimme, C. Bannwarth, P. Shushkov, J. Chem. Theory Comput., 2017,
     13, 1989-2009. DOI: 10.1021/acs.jctc.7b00118
   for GFN0-xTB:
   * P. Pracht, E. Caldeweyher, S. Ehlert, S. Grimme, ChemRxiv, 2019, preprint.
     DOI: 10.26434/chemrxiv.8326202.v1
   for GFN-FF:
   * S. Spicher and S. Grimme, Angew. Chem. Int. Ed., 2020, 59, 15665-15673.
     DOI: 10.1002/anie.202004239
   
   for ALPB and GBSA implicit solvation:
   * S. Ehlert, M. Stahn, S. Spicher, S. Grimme, J. Chem. Theory Comput.,
     2021, 17, 4250-4261. DOI: 10.1021/acs.jctc.1c00471
   
   for DFT-D4:
   * E. Caldeweyher, C. Bannwarth and S. Grimme, J. Chem. Phys., 2017,
     147, 034112. DOI: 10.1063/1.4993215
   * E. Caldeweyher, S. Ehlert, A. Hansen, H. Neugebauer, S. Spicher,
     C. Bannwarth and S. Grimme, J. Chem. Phys., 2019, 150, 154122.
     DOI: 10.1063/1.5090222
   * E. Caldeweyher, J.-M. Mewes, S. Ehlert and S. Grimme, Phys. Chem. Chem. Phys.
     2020, 22, 8499-8512. DOI: 10.1039/D0CP00502A
   
   for sTDA-xTB:
   * S. Grimme and C. Bannwarth, J. Chem. Phys., 2016, 145, 054103.
     DOI: 10.1063/1.4959605
   
   in the mass-spec context:
   * V. Asgeirsson, C. Bauer and S. Grimme, Chem. Sci., 2017, 8, 4879.
     DOI: 10.1039/c7sc00601b
   * J. Koopman and S. Grimme, ACS Omega 2019, 4, 12, 15120-15133.
     DOI: 10.1021/acsomega.9b02011
   
   for metadynamics refer to:
   * S. Grimme, J. Chem. Theory Comput., 2019, 155, 2847-2862
     DOI: 10.1021/acs.jctc.9b00143
   
   for SPH calculations refer to:
   * S. Spicher and S. Grimme, J. Chem. Theory Comput., 2021, 17, 1701-1714
     DOI: 10.1021/acs.jctc.0c01306
   
   with help from (in alphabetical order)
   P. Atkinson, C. Bannwarth, F. Bohle, G. Brandenburg, E. Caldeweyher
   M. Checinski, S. Dohm, S. Ehlert, S. Ehrlich, I. Gerasimov, C. Hölzer
   A. Katbashev, J. Koopman, C. Lavigne, S. Lehtola, F. März, M. Müller,
   F. Musil, H. Neugebauer, J. Pisarek, C. Plett, P. Pracht, F. Pultar,
   J. Seibert, P. Shushkov, S. Spicher, M. Stahn, M. Steiner, T. Strunk,
   J. Stückrath, T. Rose, and J. Unsleber
   
 * started run on 2024/06/05 at 19:58:07.133     

           -------------------------------------------------
          |                Calculation Setup                |
           -------------------------------------------------

          program call               : xtb xtbopt.xyz --opt crude --input .xc2 --gfn2
          hostname                   : n-62-21-71
          coordinate file            : xtbopt.xyz
          omp threads                :                     1

   ID    Z sym.   atoms
    1    6 C      1, 3, 5-7, 10, 11, 14
    2    7 N      2, 4, 9, 13
    3    8 O      8, 12
    4    1 H      15-25
########################################################################
[WARNING] Please study the warnings concerning your input carefully
-1- readin_getIntValue: could not parse ''
########################################################################

           -------------------------------------------------
          |                 G F N 2 - x T B                 |
           -------------------------------------------------

        Reference                      10.1021/acs.jctc.8b01176
      * Hamiltonian:
        H0-scaling (s, p, d)           1.850000    2.230000    2.230000
        zeta-weighting                 0.500000
      * Dispersion:
        s8                             2.700000
        a1                             0.520000
        a2                             5.000000
        s9                             5.000000
      * Repulsion:
        kExp                           1.500000    1.000000
        rExp                           1.000000
      * Coulomb:
        alpha                          2.000000
        third order                    shell-resolved
        anisotropic                    true
        a3                             3.000000
        a5                             4.000000
        cn-shift                       1.200000
        cn-exp                         4.000000
        max-rad                        5.000000

q/qsh data taken from xtbrestart
CAMM data taken from xtbrestart

          ...................................................
          :                      SETUP                      :
          :.................................................:
          :  # basis functions                  67          :
          :  # atomic orbitals                  67          :
          :  # shells                           39          :
          :  # electrons                        74          :
          :  max. iterations                   250          :
          :  Hamiltonian                  GFN2-xTB          :
          :  restarted?                       true          :
          :  GBSA solvation                  false          :
          :  PC potential                    false          :
          :  electronic temp.         2500.0000000     K    :
          :  accuracy                    1.0000000          :
          :  -> integral cutoff          0.2500000E+02      :
          :  -> integral neglect         0.1000000E-07      :
          :  -> SCF convergence          0.1000000E-05 Eh   :
          :  -> wf. convergence          0.1000000E-03 e    :
          :  Broyden damping             0.4000000          :
          ...................................................

 iter      E             dE          RMSdq      gap      omega  full diag
   1    -42.7271728 -0.427272E+02  0.979E-06    1.82       0.0  T
   2    -42.7271728 -0.447642E-12  0.774E-06    1.82    2582.9  T
   3    -42.7271728 -0.138556E-11  0.286E-06    1.82    6983.5  T

   *** convergence criteria satisfied after 3 iterations ***

         #    Occupation            Energy/Eh            Energy/eV
      -------------------------------------------------------------
         1        2.0000           -0.9456273             -25.7318
       ...           ...                  ...                  ...
        31        2.0000           -0.6011247             -16.3574
        32        2.0000           -0.5996567             -16.3175
        33        2.0000           -0.5977551             -16.2657
        34        2.0000           -0.5860154             -15.9463
        35        2.0000           -0.5838470             -15.8873
        36        1.9891           -0.5167223             -14.0607
        37        1.9749           -0.5100566             -13.8793 (HOMO)
        38        0.0337           -0.4433083             -12.0630 (LUMO)
        39        0.0024           -0.4221268             -11.4867
        40        0.0000           -0.3768806             -10.2554
        41        0.0000           -0.3660625              -9.9611
        42                         -0.2899732              -7.8906
       ...                                ...                  ...
        67                          1.0649831              28.9797
      -------------------------------------------------------------
                  HL-Gap            0.0667483 Eh            1.8163 eV
             Fermi-level           -0.4755067 Eh          -12.9392 eV

 SCC (total)                   0 d,  0 h,  0 min,  0.037 sec
 SCC setup                      ...        0 min,  0.000 sec (  0.642%)
 Dispersion                     ...        0 min,  0.000 sec (  0.800%)
 classical contributions        ...        0 min,  0.000 sec (  0.204%)
 integral evaluation            ...        0 min,  0.005 sec ( 14.165%)
 iterations                     ...        0 min,  0.006 sec ( 14.978%)
 molecular gradient             ...        0 min,  0.026 sec ( 68.738%)
 printout                       ...        0 min,  0.000 sec (  0.438%)

         :::::::::::::::::::::::::::::::::::::::::::::::::::::
         ::                     SUMMARY                     ::
         :::::::::::::::::::::::::::::::::::::::::::::::::::::
         :: total energy             -42.147050740366 Eh    ::
         :: gradient norm              0.004469154068 Eh/a0 ::
         :: HOMO-LUMO gap              1.816313291542 eV    ::
         ::.................................................::
         :: SCC energy               -42.727172826377 Eh    ::
         :: -> isotropic ES            0.131328024218 Eh    ::
         :: -> anisotropic ES         -0.005890255829 Eh    ::
         :: -> anisotropic XC          0.021869926728 Eh    ::
         :: -> dispersion             -0.021916736016 Eh    ::
         :: repulsion energy           0.579899357429 Eh    ::
         :: add. restraining           0.000000000000 Eh    ::
         :: total charge               1.000000000367 e     ::
         :::::::::::::::::::::::::::::::::::::::::::::::::::::

      ----------------------------------------------------------- 
     |                   =====================                   |
     |                        A N C O P T                        |
     |                   =====================                   |
     |               Approximate Normal Coordinate               |
     |                Rational Function Optimizer                |
      ----------------------------------------------------------- 

          ...................................................
          :                      SETUP                      :
          :.................................................:
          :   optimization level             crude          :
          :   max. optcycles                   200          :
          :   ANC micro-cycles                  20          :
          :   degrees of freedom                69          :
          :.................................................:
          :   RF solver                   davidson          :
          :   write xtbopt.log                true          :
          :   linear?                        false          :
          :   energy convergence         0.5000000E-03 Eh   :
          :   grad. convergence          0.1000000E-01 Eh/α :
          :   maxmium RF displ.          1.0000000          :
          :   Hlow (freq-cutoff)         0.1000000E-01      :
          :   Hmax (freq-cutoff)         5.0000000          :
          :   S6 in model hess.         20.0000000          :
          ...................................................

generating ANC from model Hessian ...
Using Lindh-Hessian (1995)
 Shifting diagonal of input Hessian by    9.2288357933596726E-003
 Lowest  eigenvalues of input Hessian
    0.000000    0.000000    0.000000    0.000000    0.000000    0.000000
    0.010000    0.010881    0.011096    0.011702    0.014064    0.014752
    0.017647    0.019264    0.020035    0.023315    0.024700    0.028894
 Highest eigenvalues
    1.899356    2.112737    2.211587    2.341132    2.420776    3.059162


........................................................................
.............................. CYCLE    1 ..............................
........................................................................

 iter      E             dE          RMSdq      gap      omega  full diag
   1    -42.7271728 -0.427272E+02  0.938E-07    1.82       0.0  T
   2    -42.7271728  0.142109E-12  0.622E-07    1.82   32169.7  T
   3    -42.7271728 -0.781597E-13  0.366E-07    1.82   54591.9  T
     SCC iter.                  ...        0 min,  0.005 sec
     gradient                   ...        0 min,  0.026 sec
 * total energy  :   -42.1470507 Eh     change       -0.4263256E-13 Eh
   gradient norm :     0.0044691 Eh/α   predicted     0.0000000E+00 (-100.00%)
   displ. norm   :     0.1380495 α      lambda       -0.3423555E-03
   maximum displ.:     0.0648811 α      in ANC's #3, #6, #1, ...

   *** GEOMETRY OPTIMIZATION CONVERGED AFTER 1 ITERATIONS ***

------------------------------------------------------------------------
 total energy gain   :        -0.0000000 Eh       -0.0000 kcal/mol
 total RMSD          :         0.0000000 a0        0.0000 Å
 total power (kW/mol):        -0.0000000 (step)   -0.0000 (real)
------------------------------------------------------------------------

 ANCopt (total)                0 d,  0 h,  0 min,  0.059 sec
 optimizer setup                ...        0 min,  0.000 sec (  0.632%)
 model hessian                  ...        0 min,  0.007 sec ( 12.223%)
 ANC generation                 ...        0 min,  0.001 sec (  1.436%)
 coordinate transformation      ...        0 min,  0.000 sec (  0.013%)
 single point calculation       ...        0 min,  0.049 sec ( 82.729%)
 optimization log               ...        0 min,  0.001 sec (  2.468%)
 hessian update                 ...        0 min,  0.000 sec (  0.003%)
 rational function              ...        0 min,  0.000 sec (  0.162%)

================
 final structure:
================
25
 xtb: 6.6.1 (8d0f1dd)
C            3.00053490284562        1.21770646977838        0.51301617555756
N            2.09332883689946        0.14445425892781        0.21476404174345
C            2.43786884199285       -1.08762318321911       -0.05931745465486
N            1.36576131033816       -1.85043819791254       -0.26951006310701
C            0.18624569292682       -1.07420061998328       -0.13051454547155
C            0.68750301661306        0.24030333098011        0.21150013776081
C            0.08779722623143        1.45261156555750        0.48865607955292
O            0.50686401529141        2.55011209002450        0.71089185267899
N           -1.52599198898977        1.35314096205037        0.50063212253405
C           -2.15930486031533        1.27233185195366       -0.80597529219945
C           -2.06219706773330        1.58384725815113        1.58701196928259
O           -2.45740776016650        1.76513770251453        2.63873209854878
N           -1.00836235040844       -1.44917353686064       -0.30705747670542
C           -1.32357745317261       -2.80451201497684       -0.68877917575895
H            2.91893591626863        1.50202154984229        1.56318829361248
H            4.01926899906305        0.89937861302160        0.30345987131853
H            2.75945311999379        2.09313934221527       -0.08863160882894
H            3.45358012376182       -1.43728484622402       -0.10927259412506
H           -1.79527179167844        2.09093709727084       -1.42718263794598
H           -1.88913082318475        0.30783614711999       -1.23601263722265
H           -3.24083964182979        1.33835990977455       -0.70659634198783
H           -0.93738015538193       -3.53323215287379        0.02807414235401
H           -0.92756024526516       -3.04102838785936       -1.67974822148430
H           -2.40759312369796       -2.88474224733301       -0.71817216571377
H            1.37790677368663       -2.83084442033771       -0.50198495184561

 Bond Distances (Angstroems)
 ---------------------------
C1-N2=1.4366         C1-H15=1.0910        C1-H16=1.0877        C1-H17=1.0893        N2-C1=1.4366         N2-C3=1.3084         
N2-C6=1.4091         C3-N2=1.3084         C3-N4=1.3325         C3-H18=1.0754        N4-C3=1.3325         N4-C5=1.4188         
N4-H25=1.0077        C5-N4=1.4188         C5-C6=1.4478         C5-N13=1.2645        C6-N2=1.4091         C6-C5=1.4478         
C6-C7=1.3806         C7-C6=1.3806         C7-O8=1.1956         C7-N9=1.6169         O8-C7=1.1956         N9-C7=1.6169         
N9-C10=1.4542        N9-C11=1.2333        C10-N9=1.4542        C10-H19=1.0902       C10-H20=1.0900       C10-H21=1.0881       
C11-N9=1.2333        C11-O12=1.1381       O12-C11=1.1381       N13-C5=1.2645        N13-C14=1.4429       C14-N13=1.4429       
C14-H22=1.0927       C14-H23=1.0931       C14-H24=1.0874       H15-C1=1.0910        H16-C1=1.0877        H17-C1=1.0893        
H18-C3=1.0754        H19-C10=1.0902       H20-C10=1.0900       H21-C10=1.0881       H22-C14=1.0927       H23-C14=1.0931       
H24-C14=1.0874       H25-N4=1.0077        
 C  H  Rav=1.0885 sigma=0.0047  Rmin=1.0754  Rmax=1.0931    10
 C  C  Rav=1.4142 sigma=0.0336  Rmin=1.3806  Rmax=1.4478     2
 N  H  Rav=1.0077 sigma=0.0000  Rmin=1.0077  Rmax=1.0077     1
 N  C  Rav=1.3917 sigma=0.1059  Rmin=1.2333  Rmax=1.6169    10
 O  C  Rav=1.1668 sigma=0.0288  Rmin=1.1381  Rmax=1.1956     2

 selected bond angles (degree)
 --------------------
H15-C1-N2=110.32               H16-C1-N2=109.44               H16-C1-H15=109.38              H17-C1-N2=110.24               
H17-C1-H15=107.80              H17-C1-H16=109.64              C3-N2-C1=125.50                C6-N2-C1=125.43                
C6-N2-C3=109.04                N4-C3-N2=111.12                H18-C3-N2=124.38               H18-C3-N4=124.51               
C5-N4-C3=109.89                H25-N4-C3=125.71               H25-N4-C5=124.40               C6-C5-N4=103.42                
N13-C5-N4=127.55               N13-C5-C6=129.00               C5-C6-N2=106.51                C7-C6-N2=119.51                
C7-C6-C5=133.97                O8-C7-C6=133.72                N9-C7-C6=112.40                N9-C7-O8=113.89                
C10-N9-C7=115.56               C11-N9-C7=115.40               C11-N9-C10=127.77              H19-C10-N9=108.95              
H20-C10-N9=107.20              H20-C10-H19=110.91             H21-C10-N9=110.33              H21-C10-H19=109.78             
H21-C10-H20=109.64             

 selected dihedral angles (degree)
 ---------------------------------
C3-N2-C1-H15=249.68           C3-N2-C1-H16= 10.07           C3-N2-C1-H17=130.74           C6-N2-C1-H15= 67.58           
C6-N2-C1-H16=187.97           C6-N2-C1-H17=308.63           N4-C3-N2-C1=178.98            N4-C3-N2-C6=  0.79            
H18-C3-N2-C1=358.91           H18-C3-N2-C6=180.72           C5-N4-C3-N2=  0.14            C5-N4-C3-H18=180.21           
H25-N4-C3-N2=179.58           H25-N4-C3-H18=359.65          C6-C5-N4-C3=359.04            C6-C5-N4-H25=179.59           
N13-C5-N4-C3=177.15           N13-C5-N4-H25=357.70          C5-C6-N2-C1=180.44            C5-C6-N2-C3=358.63            
C7-C6-N2-C1=  1.25            C7-C6-N2-C3=179.44            N2-C6-C5-N4=  1.37            N2-C6-C5-N13=183.30           
C7-C6-C5-N4=180.39            C7-C6-C5-N13=  2.33           O8-C7-C6-N2=  3.00            O8-C7-C6-C5=184.08            
N9-C7-C6-N2=182.44            N9-C7-C6-C5=  3.52            C10-N9-C7-C6=284.18           C10-N9-C7-O8=103.74           
C11-N9-C7-C6=116.03           C11-N9-C7-O8=295.59           H19-C10-N9-C7=307.87          H19-C10-N9-C11=114.30         
H20-C10-N9-C7= 67.96          H20-C10-N9-C11=234.39         H21-C10-N9-C7=187.29          H21-C10-N9-C11=353.72         
           -------------------------------------------------
          |                Final Singlepoint                |
           -------------------------------------------------

          ...................................................
          :                      SETUP                      :
          :.................................................:
          :  # basis functions                  67          :
          :  # atomic orbitals                  67          :
          :  # shells                           39          :
          :  # electrons                        74          :
          :  max. iterations                   250          :
          :  Hamiltonian                  GFN2-xTB          :
          :  restarted?                      false          :
          :  GBSA solvation                  false          :
          :  PC potential                    false          :
          :  electronic temp.         2500.0000000     K    :
          :  accuracy                    1.0000000          :
          :  -> integral cutoff          0.2500000E+02      :
          :  -> integral neglect         0.1000000E-07      :
          :  -> SCF convergence          0.1000000E-05 Eh   :
          :  -> wf. convergence          0.1000000E-03 e    :
          :  Broyden damping             0.4000000          :
          ...................................................

 iter      E             dE          RMSdq      gap      omega  full diag
   1    -42.7271728 -0.427272E+02  0.182E-07    1.82       0.0  T
   2    -42.7271728 -0.568434E-13  0.141E-07    1.82  100000.0  T
   3    -42.7271728  0.284217E-13  0.629E-08    1.82  100000.0  T

   *** convergence criteria satisfied after 3 iterations ***

         #    Occupation            Energy/Eh            Energy/eV
      -------------------------------------------------------------
         1        2.0000           -0.9456273             -25.7318
       ...           ...                  ...                  ...
        31        2.0000           -0.6011247             -16.3574
        32        2.0000           -0.5996567             -16.3175
        33        2.0000           -0.5977551             -16.2657
        34        2.0000           -0.5860153             -15.9463
        35        2.0000           -0.5838470             -15.8873
        36        1.9891           -0.5167223             -14.0607
        37        1.9749           -0.5100566             -13.8793 (HOMO)
        38        0.0337           -0.4433083             -12.0630 (LUMO)
        39        0.0024           -0.4221268             -11.4867
        40        0.0000           -0.3768806             -10.2554
        41        0.0000           -0.3660625              -9.9611
        42                         -0.2899732              -7.8906
       ...                                ...                  ...
        67                          1.0649831              28.9797
      -------------------------------------------------------------
                  HL-Gap            0.0667483 Eh            1.8163 eV
             Fermi-level           -0.4755067 Eh          -12.9392 eV

 SCC (total)                   0 d,  0 h,  0 min,  0.036 sec
 SCC setup                      ...        0 min,  0.000 sec (  0.528%)
 Dispersion                     ...        0 min,  0.000 sec (  0.506%)
 classical contributions        ...        0 min,  0.000 sec (  0.197%)
 integral evaluation            ...        0 min,  0.005 sec ( 13.711%)
 iterations                     ...        0 min,  0.005 sec ( 13.154%)
 molecular gradient             ...        0 min,  0.026 sec ( 71.500%)
 printout                       ...        0 min,  0.000 sec (  0.366%)

         :::::::::::::::::::::::::::::::::::::::::::::::::::::
         ::                     SUMMARY                     ::
         :::::::::::::::::::::::::::::::::::::::::::::::::::::
         :: total energy             -42.147050740366 Eh    ::
         :: gradient norm              0.004469149890 Eh/a0 ::
         :: HOMO-LUMO gap              1.816313173819 eV    ::
         ::.................................................::
         :: SCC energy               -42.727172826377 Eh    ::
         :: -> isotropic ES            0.131328014970 Eh    ::
         :: -> anisotropic ES         -0.005890256641 Eh    ::
         :: -> anisotropic XC          0.021869926391 Eh    ::
         :: -> dispersion             -0.021916735998 Eh    ::
         :: repulsion energy           0.579899357429 Eh    ::
         :: add. restraining           0.000000000000 Eh    ::
         :: total charge               1.000000000367 e     ::
         :::::::::::::::::::::::::::::::::::::::::::::::::::::

           -------------------------------------------------
          |                Property Printout                |
           -------------------------------------------------

    * Orbital Energies and Occupations

         #    Occupation            Energy/Eh            Energy/eV
      -------------------------------------------------------------
         1        2.0000           -0.9456273             -25.7318
       ...           ...                  ...                  ...
        25        2.0000           -0.6694720             -18.2173
        26        2.0000           -0.6677717             -18.1710
        27        2.0000           -0.6450473             -17.5526
        28        2.0000           -0.6384803             -17.3739
        29        2.0000           -0.6321172             -17.2008
        30        2.0000           -0.6287802             -17.1100
        31        2.0000           -0.6011247             -16.3574
        32        2.0000           -0.5996567             -16.3175
        33        2.0000           -0.5977551             -16.2657
        34        2.0000           -0.5860153             -15.9463
        35        2.0000           -0.5838470             -15.8873
        36        1.9891           -0.5167223             -14.0607
        37        1.9749           -0.5100566             -13.8793 (HOMO)
        38        0.0337           -0.4433083             -12.0630 (LUMO)
        39        0.0024           -0.4221268             -11.4867
        40        0.0000           -0.3768806             -10.2554
        41        0.0000           -0.3660625              -9.9611
        42                         -0.2899732              -7.8906
        43                         -0.2676052              -7.2819
        44                         -0.1725463              -4.6952
        45                         -0.1257273              -3.4212
        46                         -0.0964680              -2.6250
        47                         -0.0821943              -2.2366
        48                         -0.0397350              -1.0812
       ...                                ...                  ...
        67                          1.0649831              28.9797
      -------------------------------------------------------------
                  HL-Gap            0.0667483 Eh            1.8163 eV
             Fermi-level           -0.4755067 Eh          -12.9392 eV

     #   Z          covCN         q      C6AA      α(0)
     1   6 C        3.694    -0.085    22.307     6.757
     2   7 N        2.815     0.064    20.126     6.663
     3   6 C        2.970     0.084    26.125     8.384
     4   7 N        2.780    -0.102    23.242     7.160
     5   6 C        2.942     0.145    24.850     8.176
     6   6 C        3.047    -0.046    29.106     8.848
     7   6 C        2.733     0.259    22.642     7.790
     8   8 O        0.857    -0.326    20.250     6.033
     9   7 N        2.697    -0.027    21.765     6.929
    10   6 C        3.695    -0.074    22.098     6.725
    11   6 C        1.793     0.352    23.443     7.825
    12   8 O        0.856    -0.083    16.273     5.408
    13   7 N        1.823    -0.279    28.091     7.853
    14   6 C        3.707    -0.033    21.301     6.597
    15   1 H        0.924     0.107     1.723     2.052
    16   1 H        0.925     0.096     1.826     2.113
    17   1 H        0.925     0.116     1.646     2.006
    18   1 H        0.926     0.109     1.707     2.043
    19   1 H        0.925     0.111     1.688     2.032
    20   1 H        0.925     0.131     1.525     1.931
    21   1 H        0.925     0.104     1.750     2.069
    22   1 H        0.924     0.044     2.393     2.419
    23   1 H        0.924     0.048     2.349     2.397
    24   1 H        0.925     0.072     2.069     2.249
    25   1 H        0.860     0.215     1.032     1.591

 Mol. C6AA /au·bohr⁶  :       6626.739625
 Mol. C8AA /au·bohr⁸  :     151640.944655
 Mol. α(0) /au        :        124.053114


Wiberg/Mayer (AO) data.
largest (>0.10) Wiberg bond orders for each atom

 ---------------------------------------------------------------------------
     #   Z sym  total        # sym  WBO       # sym  WBO       # sym  WBO
 ---------------------------------------------------------------------------
     1   6 C    3.931 --     2 N    0.992    16 H    0.974    17 H    0.960
                            15 H    0.958
     2   7 N    3.698 --     3 C    1.452     6 C    1.061     1 C    0.992
                             4 N    0.125
     3   6 C    3.951 --     2 N    1.452     4 N    1.329    18 H    0.950
     4   7 N    3.568 --     3 C    1.329     5 C    1.024    25 H    0.925
                             2 N    0.125    13 N    0.105
     5   6 C    3.955 --    13 N    1.683     6 C    1.123     4 N    1.024
     6   6 C    3.882 --     7 C    1.333     5 C    1.123     2 N    1.061
                             8 O    0.140
     7   6 C    3.920 --     8 O    1.758     6 C    1.333     9 N    0.636
     8   8 O    2.200 --     7 C    1.758     6 C    0.140
     9   7 N    3.583 --    11 C    1.651    10 C    0.929     7 C    0.636
                            12 O    0.263
    10   6 C    3.894 --    21 H    0.974    19 H    0.965    20 H    0.947
                             9 N    0.929
    11   6 C    3.907 --    12 O    2.132     9 N    1.651
    12   8 O    2.508 --    11 C    2.132     9 N    0.263
    13   7 N    3.056 --     5 C    1.683    14 C    1.021     4 N    0.105
    14   6 C    3.973 --    13 N    1.021    24 H    0.980    22 H    0.967
                            23 H    0.964
    15   1 H    0.988 --     1 C    0.958
    16   1 H    0.990 --     1 C    0.974
    17   1 H    0.986 --     1 C    0.960
    18   1 H    0.987 --     3 C    0.950
    19   1 H    0.988 --    10 C    0.965
    20   1 H    0.983 --    10 C    0.947
    21   1 H    0.989 --    10 C    0.974
    22   1 H    0.993 --    14 C    0.967
    23   1 H    0.992 --    14 C    0.964
    24   1 H    0.993 --    14 C    0.980
    25   1 H    0.953 --     4 N    0.925
 ---------------------------------------------------------------------------

Topologies differ in total number of bonds
Writing topology from bond orders to xtbtopo.mol

molecular dipole:
                 x           y           z       tot (Debye)
 q only:        0.848      -0.405      -0.202
   full:        1.194      -0.911      -0.248       3.869
molecular quadrupole (traceless):
                xx          xy          yy          xz          yz          zz
 q only:       19.494      -9.627      -4.870       2.060       1.969     -14.624
  q+dip:       19.119     -14.089      -2.891       0.650       2.005     -16.229
   full:       19.091     -13.352      -3.415       1.735       1.287     -15.676

           -------------------------------------------------
          |                Geometry Summary                 |
           -------------------------------------------------

      molecular mass/u    :      195.1988581
   center of mass at/Å    :       -0.0237173       0.2452688       0.3295434
  moments of inertia/u·Å² :        0.5800897E+03   0.8103818E+03   0.1212807E+04
rotational constants/cm⁻¹ :        0.2906039E-01   0.2080209E-01   0.1389969E-01

 * 23 selected distances

     #   Z          #   Z                                           value/Å
     1   6 C        2   7 N                                       1.4366099
     2   7 N        3   6 C                                       1.3083744
     3   6 C        4   7 N                                       1.3324724
     4   7 N        5   6 C                                       1.4188453
     2   7 N        6   6 C                                       1.4090934
     5   6 C        6   6 C                                       1.4478101
     6   6 C        7   6 C                                       1.3806354
     7   6 C        8   8 O                                       1.1956226
     9   7 N       10   6 C                                       1.4542485 (max)
     9   7 N       11   6 C                                       1.2332732
    11   6 C       12   8 O                                       1.1380568
     5   6 C       13   7 N                                       1.2644607
     1   6 C       15   1 H                                       1.0910340
     1   6 C       16   1 H                                       1.0876883
     1   6 C       17   1 H                                       1.0892582
     3   6 C       18   1 H                                       1.0753736
    10   6 C       19   1 H                                       1.0901988
    10   6 C       20   1 H                                       1.0900359
    10   6 C       21   1 H                                       1.0880963
    14   6 C       22   1 H                                       1.0927307
    14   6 C       23   1 H                                       1.0930643
    14   6 C       24   1 H                                       1.0873781
     4   7 N       25   1 H                                       1.0076649 (min)

 * 5 distinct bonds (by element types)

   Z      Z             #   av. dist./Å        max./Å        min./Å
   1 H    6 C          10     1.0884858     1.0930643     1.0753736
   6 C    6 C           2     1.4142227     1.4478101     1.3806354
   1 H    7 N           1     1.0076649     1.0076649     1.0076649
   6 C    7 N           8     1.3571722     1.4542485     1.2332732
   6 C    8 O           2     1.1668397     1.1956226     1.1380568


optimized geometry written to: xtbopt.xyz


           -------------------------------------------------
          | TOTAL ENERGY              -42.147050740366 Eh   |
          | GRADIENT NORM               0.004469149890 Eh/α |
          | HOMO-LUMO GAP               1.816313173819 eV   |
           -------------------------------------------------

------------------------------------------------------------------------
 * finished run on 2024/06/05 at 19:58:07.327     
------------------------------------------------------------------------
 total:
 * wall-time:     0 d,  0 h,  0 min,  0.194 sec
 *  cpu-time:     0 d,  0 h,  0 min,  0.093 sec
 * ratio c/w:     0.479 speedup
 SCF:
 * wall-time:     0 d,  0 h,  0 min,  0.038 sec
 *  cpu-time:     0 d,  0 h,  0 min,  0.024 sec
 * ratio c/w:     0.651 speedup
 ANC optimizer:
 * wall-time:     0 d,  0 h,  0 min,  0.126 sec
 *  cpu-time:     0 d,  0 h,  0 min,  0.056 sec
 * ratio c/w:     0.445 speedup

