25
 energy: 0.000000000000 xtb: 6.6.1 (8d0f1dd)
C            3.23720163006194        1.16630919979326        0.08434469647475
N            2.29877817382611        0.07527477071623        0.03981603040599
C            2.58028210190900       -1.21425402444508        0.03006176031096
N            1.43813958087363       -1.93419271955128        0.00098261760884
C            0.39035688448383       -1.05887472636071       -0.00790371836672
C            0.93510056364412        0.21347819449412        0.01709077491437
C            0.09450143893243        1.40504303904423       -0.00410947031874
O            0.49712751527797        2.54126714362870       -0.00342325688240
N           -1.25076640035757        1.06271879480407       -0.03085478223738
C           -2.21907211982101        2.15522099834493       -0.05001256985998
C           -1.81739487048744       -0.20012725993278       -0.04692818574614
O           -2.99983886758376       -0.37846417018721       -0.07008878229737
N           -0.92618586207120       -1.30210215599479       -0.03682761578324
C           -1.46982264913417       -2.64643102187190       -0.06029820460571
H            3.71247264356769        1.21471455160235        1.06488849150277
H            4.00791497605742        1.03430808813993       -0.67357694370751
H            2.69910007168542        2.09770118228144       -0.09130154882931
H            3.56654120610678       -1.63682992603973        0.04233140067262
H           -1.67107961066214        3.09322851271934       -0.02552706933167
H           -2.82428953597071        2.09428624779827       -0.95318082946668
H           -2.87644029173232        2.07745725625962        0.81450067533302
H           -1.17061996399332       -3.19584890659852        0.83242232437030
H           -1.14560257411436       -3.17511610292205       -0.95688275822323
H           -2.55549792440841       -2.55659984320617       -0.07459039797972
H            1.38130855184625       -2.94313852034425       -0.01389874181052
25
 energy: -5.366636612042 xtb: 6.6.1 (8d0f1dd)
C            3.23833763367169        1.18018483166125        0.08951562307151
N            2.30583981108161        0.09593683054300        0.03808926354504
C            2.59895789730016       -1.23167073317568        0.03071989510194
N            1.42778136576367       -1.94080544060800        0.00063018702575
C            0.39568444129429       -1.05780187910847       -0.00832018107083
C            0.92875936745702        0.22156677247992        0.01238373828439
C            0.10306585098174        1.39634199001675       -0.01720992092713
O            0.50042665393588        2.56218975117147       -0.02451453563615
N           -1.25805771479954        1.04918767748793       -0.03222238131066
C           -2.21446516986079        2.14705185244302       -0.04622921561034
C           -1.82289671132835       -0.20175698771922       -0.04511399049439
O           -3.01979538447411       -0.38275062194287       -0.06523097543803
N           -0.93481017900427       -1.30308078114402       -0.03660108795265
C           -1.47360506783727       -2.64496222172417       -0.06057577154166
H            3.71225670536281        1.22797574495909        1.07343084031828
H            4.00896479151073        1.04648167354309       -0.67071735275664
H            2.68957480420027        2.10323837552066       -0.08866270511624
H            3.57772169875921       -1.65624476024142        0.04325311208477
H           -1.64865012162748        3.07541139658210       -0.01634705749067
H           -2.81656339882829        2.09811054163255       -0.95239836603088
H           -2.87303273181881        2.07557314823720        0.81836488753924
H           -1.17044723650223       -3.19778833904249        0.83062858840453
H           -1.14620691706578       -3.17516022295370       -0.95707504698470
H           -2.55892503834854       -2.55361705684167       -0.07439681951611
H            1.36229931811256       -2.94458293960428       -0.01436683135110
25
 energy: -6.452299422639 xtb: 6.6.1 (8d0f1dd)
C            3.23422085937468        1.19434502851026        0.09886048300975
N            2.31028844539842        0.10831764039204        0.03335433796200
C            2.60998791968672       -1.24572208773587        0.03220332793132
N            1.41597582804482       -1.94155501860947        0.00092925243763
C            0.39854550408154       -1.05731004580472       -0.01082856687299
C            0.92340049273817        0.22660844382002        0.00124775246655
C            0.11243981630494        1.38183541338222       -0.04545333974597
O            0.49286212497654        2.56416963147326       -0.07628621434049
N           -1.26480010863214        1.03349656704025       -0.03564830094804
C           -2.20292090732966        2.14048505266496       -0.03809296874890
C           -1.82496696396924       -0.20597422407276       -0.04111418140956
O           -3.02737428346749       -0.39023912126029       -0.05122042365100
N           -0.94223524573902       -1.30437634223843       -0.03679408177515
C           -1.47779424260853       -2.64420783602079       -0.06142074250269
H            3.70411171612594        1.25134273780312        1.08654656134477
H            4.01175580949841        1.07450276869480       -0.65831498192088
H            2.67304337219564        2.11024361032695       -0.08115001411851
H            3.58254702832650       -1.67476489337480        0.04593299287357
H           -1.60748574424768        3.05134247686314        0.00486176529265
H           -2.80133437626455        2.11445617051017       -0.94796809923658
H           -2.86351573587938        2.07320143169978        0.82545845133445
H           -1.17245893070269       -3.20221275724118        0.82717473298490
H           -1.15083304214659       -3.17574542507307       -0.95867851551232
H           -2.56310253361832       -2.55017239665291       -0.07351528534451
H            1.34185786578925       -2.94303822292465       -0.01305004536271
25
 energy: -5.719483974894 xtb: 6.6.1 (8d0f1dd)
C            3.21994189567494        1.21226490591362        0.11472905898065
N            2.31365934612420        0.11289307584172        0.02383331415792
C            2.61659217247417       -1.25908034079978        0.03467089711273
N            1.40786969354082       -1.94354063155132        0.00258373979935
C            0.40016201287821       -1.06177400253685       -0.01752789915712
C            0.92080210544461        0.22550404871128       -0.02122792415297
C            0.12205361643069        1.36686151255670       -0.10056374846612
O            0.48233341732056        2.55883246236943       -0.17573979899119
N           -1.26904640135632        1.01733781036610       -0.04542284271781
C           -2.18184142887597        2.13875060338139       -0.02253060820443
C           -1.82597689794169       -0.21431822514940       -0.03432653173919
O           -3.03083865642943       -0.40214393950871       -0.02187087690429
N           -0.94694989211956       -1.30991076209360       -0.03861155507164
C           -1.48299489531829       -2.64745140470771       -0.06315411382728
H            3.67510100727577        1.28366642420810        1.11034309239571
H            4.01415770479795        1.12195379735718       -0.63085629359843
H            2.64052710005923        2.11832732944129       -0.06842538637507
H            3.58442621163277       -1.69403043986874        0.05189705902652
H           -1.54688568999528        3.02457992437707        0.04545918353410
H           -2.77593251495349        2.15351032625449       -0.93656738825288
H           -2.84381348750339        2.06938993809058        0.83937600604399
H           -1.17660466988393       -3.21141350405985        0.82194504960539
H           -1.16173264299915       -3.17909702312364       -0.96307933673728
H           -2.56836100145601       -2.54784388634343       -0.07066335013327
H            1.32556656311474       -2.94423939695389       -0.00723585018010
25
 energy: 3.412165148964 xtb: 6.6.1 (8d0f1dd)
C            3.18101557596996        1.26001951955094        0.15746292707322
N            2.32368973651823        0.12288388868785       -0.00291282614252
C            2.63286000491903       -1.29600975509916        0.04218124577521
N            1.38603758608916       -1.94749364380544        0.01026261057614
C            0.40436209693830       -1.07390225053985       -0.03290153286114
C            0.91502017531677        0.22260354735611       -0.07911293581262
C            0.14941538383303        1.32747477312693       -0.24987393461141
O            0.44975176423563        2.54276506203486       -0.45067364924567
N           -1.28152609029265        0.97477636899511       -0.06871215799101
C           -2.12485207255577        2.13495273939757        0.01952506214249
C           -1.82782157583104       -0.23694057216909       -0.01257124714672
O           -3.03754937958433       -0.43573290514714        0.06072931155234
N           -0.95863262381378       -1.32454680964720       -0.04110268197892
C           -1.49613970994880       -2.65617093927438       -0.06859828464920
H            3.59814878390710        1.37008717989057        1.17326834438685
H            4.01958085207810        1.25234677456782       -0.55726367139515
H            2.55313930330209        2.14044346055114       -0.03326599758179
H            3.58782430286680       -1.74814416525995        0.06354168783010
H           -1.38499530050113        2.95230537106971        0.16044627095995
H           -2.70012919463105        2.26318632686207       -0.90954853646913
H           -2.79713517480069        2.05647556098182        0.87119655807949
H           -1.18847000250336       -3.23805567157935        0.80620938346190
H           -1.19041752656368       -3.18606355113425       -0.97674284155520
H           -2.58182776933103       -2.54146127551111       -0.06395444173406
H            1.28086552231926       -2.94677043173351        0.00944523348420
25
 energy: 15.715746754600 xtb: 6.6.1 (8d0f1dd)
C            3.14522033650907        1.29843592345650        0.19150835114680
N            2.32874261023951        0.13355759106067       -0.01675568548236
C            2.64781436255255       -1.32218771507247        0.04968559067551
N            1.37345594688389       -1.95519302164933        0.01521365884193
C            0.40767941397722       -1.08411783265281       -0.04888722820085
C            0.91006807038889        0.21750566668126       -0.12804505322529
C            0.16867529207173        1.29832892208190       -0.38713828577317
O            0.43721719264701        2.52386236442738       -0.64614511056101
N           -1.28701620858134        0.94646961547823       -0.10716852959053
C           -2.07589197769828        2.13515246360066        0.05661812646245
C           -1.82930176853104       -0.25145383244726       -0.00406025747903
O           -3.04390528702591       -0.45621248530023        0.12144840454408
N           -0.96761851310065       -1.33681655573722       -0.04843222694718
C           -1.50751303966354       -2.66407627111897       -0.07159332172628
H            3.52969233536399        1.43601424930838        1.22287337425730
H            4.01295840000933        1.34703470952492       -0.49771803303438
H            2.48147403228837        2.15631673883107       -0.00971456803371
H            3.59420141185985       -1.78409604508973        0.07812836803650
H           -1.27342992764424        2.90342241949346        0.24401793695190
H           -2.64201472134189        2.34436053947797       -0.87311369590531
H           -2.74686960462922        2.04593920630791        0.90697480255098
H           -1.19724900507837       -3.25684788040207        0.79659488364798
H           -1.21487591011571       -3.19609907351166       -0.98444040872857
H           -2.59303139135280       -2.53812985677184       -0.05634572715555
H            1.25373261790765       -2.95214123780465        0.02352853087511
25
 energy: 26.788334720662 xtb: 6.6.1 (8d0f1dd)
C            3.10528951186461        1.33493475393113        0.22314241869779
N            2.33242846493443        0.14376941837421       -0.02113472512773
C            2.66034678267754       -1.34738583590039        0.06157939388852
N            1.36451689376050       -1.96213693461705        0.02750908609245
C            0.41010201479217       -1.09284610977521       -0.05998550998309
C            0.90686254676742        0.21213201394341       -0.16499035446033
C            0.18868346342727        1.27500579729806       -0.54150681598380
O            0.42431825709707        2.49226273177430       -0.81341542571808
N           -1.29272904118008        0.92799936421891       -0.16085131074208
C           -2.02245912693701        2.13992443997296        0.09597001433335
C           -1.82835858030108       -0.26127015684934        0.00320084442699
O           -3.04258402884728       -0.47347179463288        0.17715150886118
N           -0.97414463513855       -1.34742075363780       -0.05517247595668
C           -1.51710508908482       -2.67176622561336       -0.07482137630869
H            3.46502071320905        1.49510135753276        1.26264035605201
H            3.98805678143271        1.43222444035983       -0.44330559397361
H            2.41623825552426        2.17269424290755        0.00923824532093
H            3.59958142177765       -1.81813000548581        0.08492720399984
H           -1.19027443959181        2.86205180983683        0.32440144266080
H           -2.56667909024585        2.42074311206682       -0.82834502664492
H           -2.69892038179586        2.02921474516162        0.93733863445345
H           -1.20739120193517       -3.27558388678922        0.78704059505633
H           -1.23775313485288       -3.20540152096606       -0.99196282213784
H           -2.60251367809616       -2.53618613531254       -0.04928273986896
H            1.23168198867796       -2.95743026562670        0.03766832920948
25
 energy: 34.001423813441 xtb: 6.6.1 (8d0f1dd)
C            3.06507303861894        1.35346013164659        0.23886722625729
N            2.33212333411416        0.14983554070075       -0.00405230896927
C            2.65869875028418       -1.35901031326238        0.07825815563852
N            1.37492697368095       -1.96400616954316        0.05425781006804
C            0.40606839401675       -1.09108440421377       -0.05456022423442
C            0.91270476720583        0.20884042233921       -0.15180039907477
C            0.20193626702052        1.28328531483876       -0.70741640619347
O            0.40748760746883        2.41632910730071       -0.86241492160089
N           -1.30201566678253        0.94959139273104       -0.24149700196081
C           -1.96767729759681        2.16081507983030        0.13032286363128
C           -1.82533041901091       -0.25464770424936        0.01688396945710
O           -3.01993139734749       -0.47996539115547        0.21351710044773
N           -0.96923310926308       -1.35087000058416       -0.05450099824844
C           -1.51706037089038       -2.67889406782210       -0.07768855064021
H            3.41871228792326        1.50899872466903        1.26546333024845
H            3.92174854878271        1.46906744718070       -0.40637048059161
H            2.39233451098196        2.18148812282129        0.00863939801875
H            3.59823587227083       -1.83389136863681        0.06426621474094
H           -1.21601328361328        2.84148711204969        0.37036597825765
H           -2.44837000455863        2.46769129273653       -0.76687505961779
H           -2.67907430070032        2.01088256601325        0.93393765046065
H           -1.21766615554545       -3.29115491121300        0.77971771058810
H           -1.24892713937544       -3.20857961737852       -0.99823693295077
H           -2.60260022708305       -2.54075552755731       -0.04522656067247
H            1.23606368733452       -2.95988417706974        0.04317633308776
25
 energy: 35.119443730554 xtb: 6.6.1 (8d0f1dd)
C            3.03762924101570        1.37643319188843        0.25969380694010
N            2.32901713698728        0.15717625514917       -0.01543386399999
C            2.66992824089840       -1.36650894216246        0.07847935216261
N            1.37317565373597       -1.97602485915846        0.05171139199062
C            0.40887595387808       -1.10225832677064       -0.07059959462266
C            0.90719690997931        0.19861258729590       -0.19353271867401
C            0.20305503470233        1.25836774934630       -0.76970971289119
O            0.40831829667662        2.42928100688179       -1.00947685585844
N           -1.29820302997347        0.92251342989045       -0.27481011342128
C           -1.93784110551870        2.15851744828467        0.15111568225170
C           -1.82795920208827       -0.26773634285500        0.00894259573062
O           -3.03133653038314       -0.48802589758795        0.25053658680050
N           -0.97405017579018       -1.36411420040846       -0.06483767341886
C           -1.52608190986729       -2.68778944625226       -0.07607835882901
H            3.35644193953232        1.54603489230208        1.30501543086813
H            3.92184291157745        1.52093692270039       -0.36604333180244
H            2.33656526941132        2.18696158861532        0.01821757652455
H            3.60636383813806       -1.84012588390591        0.08227884450907
H           -1.12262691936163        2.81634005477219        0.44872262265635
H           -2.42507105423206        2.54647331824802       -0.75160673449093
H           -2.63878858302938        1.99888505633518        0.96209326971725
H           -1.22107560884239       -3.30119776760427        0.77976533809871
H           -1.26607564575608       -3.22279534244199       -0.99777485629002
H           -2.61064399393437       -2.54237229690564       -0.03644071324384
H            1.23355800018015       -2.96855559348477        0.05680592543982
25
 energy: 35.717378363241 xtb: 6.6.1 (8d0f1dd)
C            2.99709270707022        1.39356572593382        0.27295852088280
N            2.31459149197768        0.16220241785988       -0.04099850214802
C            2.66360327065745       -1.35688577394748        0.07306461309953
N            1.37714866640437       -1.97633262908237        0.05066540300477
C            0.40511597413796       -1.10928012071754       -0.08562978939280
C            0.90002615754199        0.19265164254543       -0.23630878693516
C            0.20107794585575        1.23703721726730       -0.78733381645559
O            0.40611663879030        2.41715181569741       -1.14436918622819
N           -1.29324498898397        0.90640874972131       -0.28250400577019
C           -1.89146652917514        2.15555164106632        0.16636540174603
C           -1.82356407934640       -0.27318281112247        0.01479511952693
O           -3.02059392675780       -0.48299877668825        0.27220623647529
N           -0.97353530880763       -1.37596587703329       -0.06800912841191
C           -1.53372546626844       -2.69832043978107       -0.07218659816779
H            3.27279881528134        1.56384891183586        1.33532243298904
H            3.90747712833209        1.56140277913314       -0.32173169695521
H            2.28358233893457        2.19081994199024        0.01362976438347
H            3.60343091660082       -1.82501295633913        0.08640673971430
H           -1.03947370722934        2.77738036687173        0.53050613538664
H           -2.34440062600378        2.61556666295502       -0.73603895556823
H           -2.61585724232260        1.98265936604622        0.95381702688639
H           -1.22759017465987       -3.31371652160585        0.78188076169687
H           -1.28395176477223       -3.23595793634341       -0.99537121381778
H           -2.61753817698496       -2.54940053791003       -0.02441225538074
H            1.24509460766364       -2.97016425618070        0.07030967558691
25
 energy: 27.387329647087 xtb: 6.6.1 (8d0f1dd)
C            2.94334020029804        1.39230546941193        0.27825273216827
N            2.27826169737959        0.16214042952217       -0.05917331921884
C            2.63269051138895       -1.29736585015497        0.06924873076346
N            1.40352634335040       -1.97028229066233        0.04229871844871
C            0.39061622114111       -1.11509904738992       -0.10847956129225
C            0.89123266359659        0.18067633204638       -0.28834614406539
C            0.16673932599448        1.22350155362893       -0.76976704531659
O            0.42324796523201        2.40472787629538       -1.24854302066015
N           -1.26926371755101        0.89856538426106       -0.30701030808397
C           -1.83299987125349        2.14512418577605        0.17049064160024
C           -1.81739019830859       -0.27340268198342        0.00373174939078
O           -3.00230788472570       -0.45073859028231        0.29728559258782
N           -0.96243432906748       -1.39389005255480       -0.07908566284444
C           -1.54340307805170       -2.71552183374360       -0.06436425377279
H            3.15645791881328        1.54280563978506        1.35888070101861
H            3.87671431093249        1.55141328617557       -0.27513507227576
H            2.23461821329276        2.17875330343673       -0.01068332092621
H            3.59091038938323       -1.74455477997673        0.09535103908943
H           -0.96236997703467        2.73164250474983        0.61747047247938
H           -2.24738927619437        2.68026809063663       -0.70351133613388
H           -2.58267994934493        1.97087153118345        0.93040704072901
H           -1.23310399094558       -3.32186477157771        0.79265029241639
H           -1.30316380101408       -3.25675821601092       -0.98571965956328
H           -2.62453593159067       -2.56657880753460       -0.00985457622533
H            1.30490091221537       -2.96771006286577        0.08063946583416
25
 energy: 22.557788505719 xtb: 6.6.1 (8d0f1dd)
C            2.87812645648042        1.39209391379008        0.28948172771852
N            2.24194441216280        0.15010091063116       -0.05984851696220
C            2.59380638026118       -1.22871583876198        0.08319449739666
N            1.43028232198638       -1.95849460487511        0.04714753593589
C            0.37266644401508       -1.12478483787492       -0.12524038703275
C            0.88524675238989        0.16341429476642       -0.33025859811063
C            0.12902841562803        1.21206092053275       -0.83400816237125
O            0.43345326651357        2.37503765519663       -1.36325168615240
N           -1.23986509289867        0.89420191740018       -0.35988185553400
C           -1.75661464409495        2.13416281903168        0.18904353184719
C           -1.80602325709880       -0.27393619369868        0.00158527028518
O           -2.96710913947019       -0.41522605765215        0.32873285540696
N           -0.95123641953707       -1.41508814799009       -0.08878606728140
C           -1.55666283988654       -2.73507107753069       -0.06049853070463
H            3.03557583659622        1.53159083999989        1.37691257802717
H            3.83055966595257        1.54989174861184       -0.22350211564508
H            2.17905967800031        2.16976480524570       -0.03327169874859
H            3.57203671411922       -1.65719466743500        0.09656077772238
H           -0.89185240899527        2.67851297566698        0.71530956630152
H           -2.11910668831865        2.76380371791177       -0.64937744786067
H           -2.53910301426801        1.94142378533565        0.91528916850918
H           -1.24427185568997       -3.33621481912464        0.79754008106010
H           -1.32917843771883       -3.27784000107585       -0.98152190630198
H           -2.63508559618936       -2.58245308876504        0.00453002244029
H            1.36653771799668       -2.96201236716451        0.09115325620192
25
 energy: 23.856706939828 xtb: 6.6.1 (8d0f1dd)
C            2.80727401390971        1.40158204148776        0.30802474931555
N            2.21053233508801        0.13793017055974       -0.06179957478940
C            2.56305387974359       -1.16720034731613        0.11659880668463
N            1.44949033893244       -1.94413979528331        0.05875045033661
C            0.35779059056279       -1.13707111299545       -0.15125943043883
C            0.87289860713049        0.15121648402372       -0.38013954074909
C            0.11219481223991        1.20188693613484       -0.95438756416125
O            0.44635076349940        2.32623408413014       -1.48916132594753
N           -1.21211928134888        0.89617006385365       -0.38513961115347
C           -1.67067034409637        2.12873063203838        0.22586795259704
C           -1.79080142319222       -0.27095478851766       -0.00080199504220
O           -2.93308680772409       -0.37990778078187        0.39387022648329
N           -0.95089415382184       -1.43516655249556       -0.10350841741346
C           -1.57426800909185       -2.75379004857921       -0.06459716166751
H            2.90796982896134        1.53657766995215        1.40088282139581
H            3.77979174902899        1.55567729970682       -0.16221945355629
H            2.11826422844790        2.17112107828824       -0.05487255120746
H            3.55617302460717       -1.57538689957659        0.09769518313706
H           -0.82600760491054        2.62347409332817        0.79217403906108
H           -1.96250897247468        2.80578149128339       -0.57988659034868
H           -2.49296933365599        1.92194912510888        0.90672156031446
H           -1.26257111848873       -3.35821252151560        0.79104948136347
H           -1.36212283380987       -3.29795154138946       -0.98712904430963
H           -2.65109549458061       -2.59651841869313        0.01201286105751
H            1.41954587297994       -2.95300276057986        0.09828802518567
25
 energy: 31.320461561808 xtb: 6.6.1 (8d0f1dd)
C            2.73133975402795        1.42636219531616        0.32604294978851
N            2.18229638748116        0.14346328086447       -0.07284935549092
C            2.54962382516831       -1.13029854000219        0.16765288535345
N            1.45767807453946       -1.93388400479228        0.07514518494447
C            0.35097575621657       -1.15506991655650       -0.17487409641640
C            0.84947811536965        0.14436240041792       -0.42569343093122
C            0.11361735260833        1.19654407363012       -1.10100454112462
O            0.44373529804644        2.27021480871311       -1.64753879706402
N           -1.19649470078225        0.89497659071131       -0.37834623415904
C           -1.58369047580575        2.12556248322262        0.27552429611888
C           -1.77474480504691       -0.27422368294649        0.01513726768994
O           -2.89734853993815       -0.36343320186128        0.44452013741377
N           -0.96165127044484       -1.45744305133032       -0.11085017032392
C           -1.59443121412017       -2.77333281982698       -0.07154875132331
H            2.77790893218462        1.56028368971507        1.42165821048492
H            3.72246576451900        1.57341766906588       -0.09790257172042
H            2.05614484575422        2.18718890193648       -0.07810778343763
H            3.55161979638484       -1.51184946037743        0.10004043313213
H           -0.73603643684403        2.54943292770626        0.89423663854257
H           -1.78148257856715        2.86310505079432       -0.52994511410965
H           -2.45234856783267        1.91636637320753        0.89917595205705
H           -1.28561873063806       -3.38955416182585        0.77811779181470
H           -1.39842041609538       -3.31857582365850       -0.99743639488012
H           -2.67094583110230       -2.60992728239672        0.01734520502971
H            1.45854433285314       -2.94465989755459        0.09853418475855
25
 energy: 47.271841495639 xtb: 6.6.1 (8d0f1dd)
C            2.65835751040952        1.43511548902365        0.33290372397112
N            2.13966343720202        0.15320365448443       -0.08641673527704
C            2.53079123557902       -1.06888222234130        0.23671033567706
N            1.46396678163459       -1.92074350859412        0.07337171108320
C            0.34590389376876       -1.17895524505708       -0.21106068677417
C            0.81115866257774        0.13799923761764       -0.46113785734175
C            0.10770120901225        1.22245103416442       -1.17740427252050
O            0.46315677994701        2.22476547472816       -1.73243546678447
N           -1.15523365965337        0.91649136320557       -0.30680483401593
C           -1.49918414323487        2.12114304981818        0.31944721638076
C           -1.74968284754548       -0.26952036688069        0.02467285203191
O           -2.86042454699012       -0.32822883230163        0.49109835161813
N           -0.98088352552845       -1.47771653168854       -0.11957823410075
C           -1.62106780527428       -2.78995869300225       -0.08399008560844
H            2.64678797796748        1.55440028745395        1.42243873209400
H            3.67004201877973        1.53364698967524       -0.04007982775503
H            2.02510173202051        2.20048057950332       -0.11183073612972
H            3.54613087231059       -1.39820756562352        0.10394913045210
H           -0.70482260406170        2.48984267915827        0.90448561950939
H           -1.60430000471118        2.77008896356457       -0.46771948425269
H           -2.39570637543995        1.97738263197216        0.88841968029284
H           -1.31624972246818       -3.42071519671907        0.75969148344796
H           -1.43421251567252       -3.33764885584339       -1.01067924885293
H           -2.69736954784279       -2.62608332674059        0.00850308045807
H            1.52258985514965       -2.93132248740528        0.07047944854429
25