25
 energy: -43.128805564502 gnorm: 0.133716249826 xtb: 6.6.1 (8d0f1dd)
C            3.21724326142532        1.19321493965923        0.09284214253462
N            2.29946427704950        0.11223039015958        0.03810841315646
C            2.60100796230102       -1.24198997940278        0.02680692338281
N            1.41156588574390       -1.95720897697763       -0.00249718736236
C            0.38688481343534       -1.10186876348211        0.00311911564836
C            0.89630515566564        0.20914915419177        0.02399700035186
C            0.09305840076070        1.33253554123462        0.00678280401283
O            0.42595890220167        2.52548919770891        0.03415146256162
N           -1.35128895521813        0.99310783125211       -0.04312164154922
C           -2.14757010411189        2.25146825430666       -0.09253991720385
C           -1.92641486207672       -0.24078670318046       -0.04025766060455
O           -3.16686323997888       -0.34169169338660       -0.08197506046945
N           -0.97935837475698       -1.33553019339876       -0.02422266142307
C           -1.43857789441552       -2.69261146197055       -0.05442963400850
H            3.71679683996096        1.24767724498650        1.06739684557762
H            3.96689439580867        1.09927292502823       -0.69255496841138
H            2.64095175185902        2.10471615020188       -0.06011618781532
H            3.58324263419393       -1.67322384058437        0.03269070896165
H           -1.51947907884141        3.05994255447936       -0.05360807730849
H           -2.83159348291330        2.22054552849458       -0.95309319941155
H           -2.83288853342960        2.24826638584171        0.80803974021506
H           -1.12043494867300       -3.23085108742160        0.83003443818697
H           -1.09804662061467       -3.20455220172098       -0.94852466725954
H           -2.53869650917676       -2.62022358006687       -0.07226986906273
H            1.33930253992140       -2.96089326062733       -0.02398773292008
25
 energy: -43.140956269664 gnorm: 0.042536388019 xtb: 6.6.1 (8d0f1dd)
C            3.21344757628160        1.18894779885140        0.09211881532886
N            2.29290295441726        0.10202912813718        0.03649243999029
C            2.59024570782833       -1.24883482855687        0.02700708017144
N            1.40205219740319       -1.94947505133601       -0.00152924253327
C            0.37808819376917       -1.08267104833205       -0.00059200059023
C            0.89594466644879        0.21314953613037        0.02331447454288
C            0.09649584757329        1.35132051036486        0.00824953686746
O            0.44563841737182        2.53501670467106        0.03280325637196
N           -1.32981683682641        1.01789003896919       -0.04413722808025
C           -2.18469618426654        2.21453192805928       -0.07691877062897
C           -1.88787299745810       -0.21988379080055       -0.05094073362379
O           -3.09786346250776       -0.37634993866535       -0.07767112187802
N           -0.97380707565569       -1.31579531679199       -0.02729399866951
C           -1.45424120513396       -2.67589211697481       -0.05436386039173
H            3.71669592831857        1.24123314957871        1.06406585069103
H            3.96826009287472        1.09710954711440       -0.69136876535398
H            2.64270718138642        2.10584935692710       -0.05606176541167
H            3.56611475379994       -1.67935760935254        0.03292493183729
H           -1.52772765612433        3.05678210497117       -0.05945671970914
H           -2.82925830545088        2.19201060085451       -0.95834353831207
H           -2.84042403573853        2.22920043053642        0.81214286938191
H           -1.13217171571049       -3.22379833213985        0.83211211236682
H           -1.10776117040245       -3.19735729533858       -0.94872790123752
H           -2.54659586991057       -2.62584960778295       -0.07155482768331
H            1.33110721383281       -2.95362154376898       -0.02149976366669
25
 energy: -43.142116765069 gnorm: 0.011968140107 xtb: 6.6.1 (8d0f1dd)
C            3.20777552507007        1.19024662427579        0.09230576760992
N            2.28723309810243        0.09833735784643        0.03680657391122
C            2.58707439965283       -1.25087581043778        0.02818331502205
N            1.39954510754206       -1.94895155449251       -0.00152723883653
C            0.37019538062609       -1.07950748195462       -0.00000459333863
C            0.89164450191783        0.20894529347408        0.02409350600114
C            0.08543313690748        1.35093928841242        0.00908681542975
O            0.43871871854951        2.53301954989801        0.02968244563680
N           -1.32604129463828        1.02193188925810       -0.03981215295378
C           -2.18475532856656        2.20218547009755       -0.07252831615945
C           -1.88672726845226       -0.21665070451808       -0.04379336873856
O           -3.08774414610403       -0.39405532615316       -0.07894974236198
N           -0.97840551074740       -1.31390478870211       -0.02462350523027
C           -1.45841192876278       -2.67593402891482       -0.05564014953457
H            3.71270270664843        1.24262683662482        1.06348072812423
H            3.96410260511856        1.09849605388975       -0.69116551581252
H            2.63758053101027        2.10685463725885       -0.05649730511439
H            3.56445619601198       -1.67482184832381        0.03251861259060
H           -1.51357009381443        3.05640143697759       -0.06593935600581
H           -2.81779677175479        2.20807342864977       -0.95814364179446
H           -2.82561745887062        2.23509218890163        0.80768270761026
H           -1.12670236733403       -3.22470581002121        0.83077317934663
H           -1.10324164231739       -3.19518869728854       -0.95137876260181
H           -2.54559367274769       -2.62871685507276       -0.07095564864586
H            1.33560979307293       -2.95365279436024       -0.02288322437423
25
 energy: -43.142229278670 gnorm: 0.006417556787 xtb: 6.6.1 (8d0f1dd)
C            3.21202511227502        1.18953678489819        0.09241473031480
N            2.28993585967235        0.09821194700934        0.03629191423235
C            2.58873595209434       -1.25228708147963        0.02857024659212
N            1.39996314666419       -1.94952117238045       -0.00114169814238
C            0.37077691165724       -1.07806530307313       -0.00195898460883
C            0.89470608199740        0.20871652519249        0.02250900053520
C            0.08416606830512        1.35126059651528        0.00783146895220
O            0.44180402490048        2.53332056949524        0.03044268122478
N           -1.32340706431371        1.02470874986817       -0.04173258191047
C           -2.18989485912976        2.19812390509767       -0.06996893837323
C           -1.88777789423999       -0.21345559233504       -0.04977567502795
O           -3.08982794149872       -0.39037090373537       -0.07894808140825
N           -0.97823666027608       -1.31252442579137       -0.02692256566720
C           -1.45947391018104       -2.67429955827814       -0.05466867307109
H            3.71647517461418        1.24006754924794        1.06388205358822
H            3.96806315885633        1.09609520682277       -0.69122986892318
H            2.64250629728459        2.10608713045077       -0.05656036277786
H            3.56658244989577       -1.67568693202953        0.03248709023025
H           -1.52538697565886        3.06115764545654       -0.06280583119330
H           -2.82017440087327        2.20371237089360       -0.95798182792226
H           -2.83289201952238        2.22735865758445        0.80851660743222
H           -1.12873626030588       -3.22107238488240        0.83332755326094
H           -1.10378392054224       -3.19593457101858       -0.94861548734328
H           -2.54579414219434       -2.62474876134857       -0.07138354309720
H            1.33711002663944       -2.95420659685510       -0.02180809711682
25
 energy: -43.142262287861 gnorm: 0.003212456250 xtb: 6.6.1 (8d0f1dd)
C            3.21098552815014        1.19076878048643        0.09248778224317
N            2.28975842205882        0.09890137754639        0.03652255606028
C            2.58860069432682       -1.25246037407552        0.02906824528205
N            1.39938697313383       -1.95017587962270       -0.00095910851760
C            0.37088360122092       -1.07801057282537       -0.00119828948692
C            0.89548835126471        0.20831247813884        0.02316187450261
C            0.08265303299785        1.35052670443544        0.00828058293318
O            0.44329014719487        2.53248139290919        0.03014086714792
N           -1.32217331886321        1.02448503852255       -0.04070226163160
C           -2.18739558876412        2.19824120375093       -0.07112218252159
C           -1.88874983587951       -0.21348866337451       -0.04716546091951
O           -3.09133610608867       -0.38839296056844       -0.07776248877468
N           -0.97812680976246       -1.31351809556329       -0.02571921332338
C           -1.45910127972227       -2.67535228029737       -0.05529029767615
H            3.71511525765136        1.24119419556041        1.06393737432061
H            3.96632540966924        1.09759418075336       -0.69164143296375
H            2.63994879261889        2.10630771533953       -0.05613920529864
H            3.56663549579397       -1.67546066427615        0.03192369076181
H           -1.52380892684098        3.06208475254207       -0.06499344162462
H           -2.81871738099708        2.20280555857426       -0.95898830429106
H           -2.83088711910181        2.22943167930202        0.80892113155875
H           -1.12833360666987       -3.22347356397692        0.83148441043816
H           -1.10436555881661       -3.19554262292540       -0.95002024812206
H           -2.54576716024131       -2.62633252681525       -0.07129831096527
H            1.33715520178669       -2.95474249821536       -0.02215713935195
25
 energy: -43.142251920499 gnorm: 0.003171390134 xtb: 6.6.1 (8d0f1dd)
C            3.20994539821723        1.19200281901438        0.09256070948411
N            2.28957881337928        0.09959521721003        0.03675185334179
C            2.58846479953326       -1.25263377748469        0.02957056489706
N            1.39880658039060       -1.95083262834432       -0.00077601812127
C            0.37099214279158       -1.07795207583632       -0.00043965705977
C            0.89627551791947        0.20790842931976        0.02381242394544
C            0.08112306484314        1.34978816534462        0.00872671106822
O            0.44477609291436        2.53163660408777        0.02983862186074
N           -1.32093623181347        1.02425924300356       -0.03967638663513
C           -2.18488772224303        2.19836073293072       -0.07227611763704
C           -1.88972550143447       -0.21352576638330       -0.04456039236067
O           -3.09284832426329       -0.38641280079717       -0.07658204173858
N           -0.97801343273521       -1.31451569955567       -0.02451712998354
C           -1.45872448082780       -2.67640734757233       -0.05591070297196
H            3.71375261679885        1.24232121982806        1.06399278566557
H            3.96458713206075        1.09909208169860       -0.69205149215532
H            2.63738998885799        2.10652924888198       -0.05571954856991
H            3.56668834274437       -1.67523257338217        0.03136011579227
H           -1.52222600489095        3.06301177373810       -0.06717582367161
H           -2.81726370342981        2.20190784591972       -0.95998967366303
H           -2.82887722456130        2.23150705382308        0.80932901237942
H           -1.12793099122765       -3.22587329893419        0.82964440444694
H           -1.10494528359512       -3.19515415904413       -0.95142232591933
H           -2.54573830530936       -2.62791638166135       -0.07121289433434
H            1.33720093200079       -2.95527957047962       -0.02250586828030
25
 energy: -43.142270608096 gnorm: 0.001203731312 xtb: 6.6.1 (8d0f1dd)
C            3.21093137663052        1.19084590144925        0.09240637188236
N            2.28924066334596        0.09952486609320        0.03633919673670
C            2.58832015690242       -1.25229215590092        0.02954125142912
N            1.39876949089890       -1.95023804031153       -0.00101188684096
C            0.37101606818389       -1.07749969956506       -0.00145962852181
C            0.89574866907073        0.20848552636551        0.02289767716181
C            0.08039501010595        1.35000799298447        0.00801779029431
O            0.44253791223230        2.53187738514987        0.03029604565237
N           -1.32220082888651        1.02401547659602       -0.04134840280103
C           -2.18621425143956        2.19881389334801       -0.07124826637984
C           -1.88922356870451       -0.21428221548874       -0.04791203934073
O           -3.09171352842611       -0.38868850972356       -0.07926657056223
N           -0.97771766069628       -1.31402691790131       -0.02592760917186
C           -1.45837130917045       -2.67571657458423       -0.05496534031022
H            3.71486606768337        1.24102523925788        1.06384981628156
H            3.96635417667314        1.09700972307441       -0.69140549612478
H            2.64022697208090        2.10651678713090       -0.05649701487484
H            3.56636942102453       -1.67508674701923        0.03190459071339
H           -1.52253189072995        3.06165943802764       -0.06382370659861
H           -2.81914126991861        2.20490747271869       -0.95823510065194
H           -2.83013058806921        2.22984593831860        0.80920219647296
H           -1.12805301299898       -3.22301777060492        0.83225042160374
H           -1.10369663420303       -3.19619928967205       -0.94937792380024
H           -2.54536358568393       -2.62661344565549       -0.07115626825183
H            1.33704636021472       -2.95468991876228       -0.02229897421763
25
 energy: -43.142271337430 gnorm: 0.000637126218 xtb: 6.6.1 (8d0f1dd)
C            3.21119865623867        1.19043054870093        0.09251277763516
N            2.28927091403894        0.09927625296201        0.03630900129398
C            2.58868407480209       -1.25241830273229        0.02957530871397
N            1.39885373931771       -1.95024795197381       -0.00103677580548
C            0.37122907803070       -1.07731877288825       -0.00132914089920
C            0.89600661624693        0.20850037404167        0.02307672833243
C            0.08029197243968        1.35000507470414        0.00817915515445
O            0.44294337321173        2.53167630344777        0.03024247069330
N           -1.32223762924928        1.02429730657218       -0.04073863085372
C           -2.18710190207221        2.19895122773482       -0.07152616161657
C           -1.88870213566917       -0.21428023253751       -0.04680989207893
O           -3.09097925203316       -0.38892275198453       -0.07760980781538
N           -0.97754355459054       -1.31357023156021       -0.02560824388289
C           -1.45867295363011       -2.67501045933324       -0.05528106947077
H            3.71546553161301        1.24081584092069        1.06386154875477
H            3.96665649726608        1.09715054690084       -0.69139800928784
H            2.64058923996727        2.10628882616322       -0.05611257484998
H            3.56668182827054       -1.67526165416975        0.03152433550029
H           -1.52355705694605        3.06127159312731       -0.06455814633004
H           -2.81941857598542        2.20321625956224       -0.95870769036671
H           -2.83118016203459        2.22952779859151        0.80818477141933
H           -1.12838583503527       -3.22295385694502        0.83165442470774
H           -1.10428892764644       -3.19519699487152       -0.95009504962317
H           -2.54563785220337       -2.62533400480073       -0.07135721858015
H            1.33729853177248       -2.95470838430735       -0.02218098096482
25
 energy: -43.076508012160 gnorm: 0.289415845179 xtb: 6.6.1 (8d0f1dd)
C            3.19426371996635        1.21720951504556        0.10204784644158
N            2.27591434116786        0.13591470059434        0.03999307956303
C            2.61964780776871       -1.27080130904968        0.02273483817385
N            1.38430966993852       -1.97910655956479       -0.00763349448608
C            0.36722156694161       -1.14094266872738        0.01284372135268
C            0.86087078256067        0.19359506051577        0.03431377906337
C            0.08204925908604        1.26161013761715        0.02261069454742
O            0.39206290709174        2.47749724815941        0.08041909203467
N           -1.45352463281771        0.99001022827020       -0.04981816562179
C           -2.06991974116186        2.34778226022952       -0.12297158857856
C           -2.01131011282430       -0.22327902633768       -0.04045015304377
O           -3.20599763143428       -0.21123298286623       -0.10725818974519
N           -1.02927895087279       -1.37329760900992       -0.00992042228826
C           -1.40777740597595       -2.73890572093909       -0.04722021800772
H            3.72697030789727        1.27954078666396        1.06378073334172
H            3.92746828724850        1.16558147879799       -0.71060455809288
H            2.58659192486801        2.11185295684075       -0.02308662818731
H            3.59719814662418       -1.70935208570363        0.01932084605614
H           -1.36956923400180        3.03028149053647       -0.09308950322665
H           -2.83662802820579        2.34696332677860       -0.95176205646258
H           -2.78376801522127        2.41761870339283        0.80275585035766
H           -1.07205082468445       -3.26835903045781        0.82873980614840
H           -1.05176522771696       -3.23577919732719       -0.93958544142815
H           -2.52188586679756       -2.68380114689541       -0.06913598415176
H            1.30164532498162       -2.98330843415209       -0.04044379211576
25
 energy: -43.121747093104 gnorm: 0.101684610772 xtb: 6.6.1 (8d0f1dd)
C            3.18445893252182        1.20504508168741        0.09929803906716
N            2.27342019941314        0.10566803174655        0.04014960262710
C            2.59117376388248       -1.26771761123260        0.02333949118789
N            1.38154091375191       -1.96736838772540       -0.00637186872418
C            0.35595448667261       -1.11445098480526        0.00744459513979
C            0.86928785154414        0.19065601872220        0.03563068595608
C            0.08544451528515        1.30516578098406        0.02824136036614
O            0.42922492388567        2.49334883453250        0.08020492741720
N           -1.39856383920580        1.01803317589524       -0.05151265361520
C           -2.13026420734060        2.30002310529815       -0.10312934800383
C           -1.95998213656101       -0.20573168086382       -0.05526959161584
O           -3.17174285936049       -0.28838278753227       -0.10097170476891
N           -1.01218651979962       -1.33992215538391       -0.01368308463484
C           -1.43108052973962       -2.71550212996856       -0.04788396963912
H            3.71819381010981        1.26519727576994        1.05708923405462
H            3.92270843652853        1.15662453882127       -0.70715785453973
H            2.58730586853594        2.11095719322718       -0.01992186787992
H            3.56689481522571       -1.70166308374665        0.01934256954538
H           -1.38216250403006        3.04472411596946       -0.09952086772334
H           -2.82487675507512        2.31932920906333       -0.95977307839900
H           -2.77844100091767        2.40499570389400        0.80606681617968
H           -1.08701671714763       -3.25996868439577        0.83178239161487
H           -1.06442793862814       -3.22650349115606       -0.94109652263552
H           -2.52876759370066       -2.70192951307888       -0.06809184614649
H            1.30664245857590       -2.97333543331042       -0.03762536318592
25
 energy: -43.129343725087 gnorm: 0.025818494648 xtb: 6.6.1 (8d0f1dd)
C            3.17649321780859        1.20082126707879        0.09857418210130
N            2.26866293604289        0.09019653030178        0.04170185576711
C            2.57193565688848       -1.26273956268099        0.02440528917955
N            1.37859821016794       -1.96133332265918       -0.00625997421168
C            0.34282996481976       -1.09971174782168        0.00557979890971
C            0.86832613674934        0.18683936575888        0.03427452069665
C            0.07241701233120        1.32280970922929        0.02756634217655
O            0.43037538667130        2.50025441950782        0.07520287951605
N           -1.35932341654179        1.02778316423461       -0.04253952253260
C           -2.14351810362014        2.26657256335942       -0.09283944685930
C           -1.92974564486647       -0.19935205863262       -0.04588325956709
O           -3.13782465743116       -0.33367581244057       -0.10000796244971
N           -1.01069687531677       -1.32378192322833       -0.01276064216709
C           -1.44782894177367       -2.70238431823136       -0.05063665856366
H            3.71040427842687        1.25807822619680        1.05537158859501
H            3.91620725569761        1.15180874210496       -0.70612009280082
H            2.58350865681912        2.10909639649645       -0.01890851466065
H            3.55108872396629       -1.69278200299106        0.01978089074737
H           -1.38941299512894        3.04606880372441       -0.11088492323912
H           -2.80571495405126        2.31419306608030       -0.95380738733511
H           -2.76182663948097        2.38181261422103        0.79358784506767
H           -1.09133692182575       -3.24901183222838        0.83044942611306
H           -1.06859268531889       -3.21367377874384       -0.94443666708380
H           -2.53376647891157       -2.69299399089008       -0.06753687111442
H            1.31147925230435       -2.96760239533478       -0.03729260464091
25
 energy: -43.129732790581 gnorm: 0.012562325115 xtb: 6.6.1 (8d0f1dd)
C            3.17901975993924        1.20156940252916        0.09786396358953
N            2.27123606204505        0.09016548959412        0.04206871977195
C            2.57283348670706       -1.26491822496319        0.02442782807782
N            1.37844560823002       -1.96321671127411       -0.00547040270168
C            0.34234327501688       -1.09716522964436        0.00381865967065
C            0.87070924250081        0.18704992937894        0.03410837699241
C            0.06680848500772        1.32455229831158        0.02893426581278
O            0.43539224930373        2.50262614390162        0.07586513540655
N           -1.35489264945561        1.03137183785886       -0.04540906327831
C           -2.14856828449974        2.26334173742979       -0.08730661048091
C           -1.93052349205700       -0.19734532699343       -0.05694060137333
O           -3.13580107468011       -0.33428382881375       -0.10345548876115
N           -1.01343778786247       -1.32141475985238       -0.01678715595759
C           -1.44883368808314       -2.70177957029888       -0.04893530412168
H            3.71292155545741        1.25651925850235        1.05467383231772
H            3.91796922805161        1.15085523627454       -0.70740106525087
H            2.58499738377676        2.10845415671104       -0.01898038185557
H            3.55229224967703       -1.69657960922062        0.01900299270639
H           -1.39764650108652        3.05174832749861       -0.10805454348313
H           -2.80175603692607        2.30874996185072       -0.95955452446008
H           -2.76884834546949        2.38099358386234        0.80415809273228
H           -1.09112144709845       -3.24437928701828        0.83395358798304
H           -1.06682557483750       -3.21451115197107       -0.94008104232446
H           -2.53470736887238       -2.69624106624777       -0.06756840258539
H            1.31073203964151       -2.96887047499416       -0.03635077678292
25
 energy: -43.129849712809 gnorm: 0.005266248362 xtb: 6.6.1 (8d0f1dd)
C            3.17902670747021        1.20316356691574        0.09852765384482
N            2.27203875695046        0.09127664414949        0.04306611307934
C            2.57415939527287       -1.26572683336898        0.02516864353173
N            1.37880134851443       -1.96493326532873       -0.00596902043433
C            0.34322242079838       -1.09634697800087        0.00494355531897
C            0.87256965867260        0.18636039793246        0.03429957954566
C            0.06122684603039        1.32283329841865        0.02849694490595
O            0.43838571826927        2.50078153770951        0.07403090979479
N           -1.35340573340526        1.03197390003823       -0.04288987461482
C           -2.14590313022796        2.26203937597798       -0.09089974779389
C           -1.93358251479013       -0.19789989404136       -0.05006918308805
O           -3.13683238247845       -0.33465554380197       -0.09796848268112
N           -1.01472493882573       -1.32108982872755       -0.01494392615894
C           -1.44830848723941       -2.70234265613312       -0.05051924761698
H            3.71222102586489        1.25731222078006        1.05559489286515
H            3.91773511510776        1.15166292019334       -0.70673142532363
H            2.58338218137008        2.10850347850661       -0.01835352314083
H            3.55367124027062       -1.69715533143284        0.01958746330418
H           -1.39715075015855        3.05495770830083       -0.11373656726900
H           -2.80464410836915        2.31031923632431       -0.95878442612056
H           -2.76709692795526        2.38232274980720        0.80187376855497
H           -1.09023461083861       -3.24702531080348        0.83037871065474
H           -1.06819074519066       -3.21190991123310       -0.94348351257590
H           -2.53458758466625       -2.69710187630655       -0.06751825993520
H            1.31095987397985       -2.97002748346421       -0.03752094700300
25
 energy: -43.129874074557 gnorm: 0.002671495520 xtb: 6.6.1 (8d0f1dd)
C            3.17925967212852        1.20310781410453        0.09797545429345
N            2.27144065764463        0.09231343575693        0.04281780175904
C            2.57439615740562       -1.26528385736666        0.02495046894230
N            1.37849330871718       -1.96500477088914       -0.00572400300668
C            0.34402646659433       -1.09584714666959        0.00466209240942
C            0.87320771464020        0.18652917676705        0.03391331725742
C            0.05825500020740        1.32125766276364        0.02833599820466
O            0.43743548495342        2.49865819107355        0.07598325788112
N           -1.35413445756609        1.03178912527637       -0.04446225046605
C           -2.14419616157271        2.26277577523562       -0.09001181231788
C           -1.93474538679111       -0.19888499128821       -0.05361370374278
O           -3.13784275122517       -0.33431250660855       -0.10193908024062
N           -1.01424466370973       -1.32117024128558       -0.01587474765824
C           -1.44730163025033       -2.70244909186390       -0.04943482991321
H            3.71264264310776        1.25720551678427        1.05490382144536
H            3.91775493326875        1.15102399802324       -0.70734211582295
H            2.58392922296983        2.10863346896364       -0.01905671266948
H            3.55365382757612       -1.69616003856976        0.01911705834224
H           -1.39639645050982        3.05481624010031       -0.10919379283733
H           -2.80379838107835        2.31252644787596       -0.95754964372860
H           -2.76727848433341        2.38048537475697        0.80092050812871
H           -1.09108769955249       -3.24551218369258        0.83277813459076
H           -1.06744492739460       -3.21367029950904       -0.94135597523676
H           -2.53394090433362       -2.69559882698208       -0.06741142831371
H            1.31065518353004       -2.96993615034533       -0.03680772565615
25
 energy: -43.129879898572 gnorm: 0.001170419406 xtb: 6.6.1 (8d0f1dd)
C            3.17943450347336        1.20269042530893        0.09826372813458
N            2.27110817335591        0.09246748961190        0.04280888398195
C            2.57438320714603       -1.26525343625680        0.02499340239624
N            1.37804925991145       -1.96483571095219       -0.00595088584022
C            0.34431202255668       -1.09556899642846        0.00471960596018
C            0.87362506915677        0.18685189399633        0.03386156850025
C            0.05776740700548        1.32101413115997        0.02780160085050
O            0.43736108577567        2.49819432306399        0.07530449511090
N           -1.35445828910362        1.03196279487172       -0.04423551940125
C           -2.14468243111904        2.26338416817974       -0.09022102141006
C           -1.93435596078188       -0.19909994457501       -0.05218148458519
O           -3.13782462618538       -0.33361849938912       -0.10027635338608
N           -1.01373403828244       -1.32115229004791       -0.01555727319159
C           -1.44704152536809       -2.70227485799553       -0.04982686365647
H            3.71281681139438        1.25695260940888        1.05522810984942
H            3.91801414089157        1.15102061439922       -0.70700718306333
H            2.58435949184707        2.10854581424284       -0.01862016667914
H            3.55345460581088       -1.69615102592467        0.01929603226702
H           -1.39698055046417        3.05406390329642       -0.11021733442203
H           -2.80396717816675        2.31053124150321       -0.95824879444914