25
 energy: 0.000000000000 xtb: 6.6.1 (8d0f1dd)
C            3.23720163006194        1.16630919979326        0.08434469647475
N            2.29877817382611        0.07527477071623        0.03981603040599
C            2.58028210190900       -1.21425402444508        0.03006176031096
N            1.43813958087363       -1.93419271955128        0.00098261760884
C            0.39035688448383       -1.05887472636071       -0.00790371836672
C            0.93510056364412        0.21347819449412        0.01709077491437
C            0.09450143893243        1.40504303904423       -0.00410947031874
O            0.49712751527797        2.54126714362870       -0.00342325688240
N           -1.25076640035757        1.06271879480407       -0.03085478223738
C           -2.21907211982101        2.15522099834493       -0.05001256985998
C           -1.81739487048744       -0.20012725993278       -0.04692818574614
O           -2.99983886758376       -0.37846417018721       -0.07008878229737
N           -0.92618586207120       -1.30210215599479       -0.03682761578324
C           -1.46982264913417       -2.64643102187190       -0.06029820460571
H            3.71247264356769        1.21471455160235        1.06488849150277
H            4.00791497605742        1.03430808813993       -0.67357694370751
H            2.69910007168542        2.09770118228144       -0.09130154882931
H            3.56654120610678       -1.63682992603973        0.04233140067262
H           -1.67107961066214        3.09322851271934       -0.02552706933167
H           -2.82428953597071        2.09428624779827       -0.95318082946668
H           -2.87644029173232        2.07745725625962        0.81450067533302
H           -1.17061996399332       -3.19584890659852        0.83242232437030
H           -1.14560257411436       -3.17511610292205       -0.95688275822323
H           -2.55549792440841       -2.55659984320617       -0.07459039797972
H            1.38130855184625       -2.94313852034425       -0.01389874181052
25
 energy: -5.388267484682 xtb: 6.6.1 (8d0f1dd)
C            3.24240117528435        1.17765509378903        0.08688131090677
N            2.30731025791512        0.09512894741972        0.03789019596430
C            2.59943705049743       -1.23283705014148        0.02984905265920
N            1.42759456294521       -1.94093173000015        0.00068204105902
C            0.39602264578830       -1.05716959669095       -0.00806077818689
C            0.92948658656112        0.22163404242331        0.01562352404133
C            0.10098771606553        1.39506083315232       -0.00480822044158
O            0.49761963519557        2.56084911319533       -0.00404306783555
N           -1.26096851505629        1.05052751917079       -0.03116194151447
C           -2.21962688034403        2.14905126548787       -0.05060543534985
C           -1.82410334270096       -0.20073409146873       -0.04709397871808
O           -3.02091795507342       -0.38101421394683       -0.07051907928786
N           -0.93466978518929       -1.30189454999078       -0.03677512820151
C           -1.47056697718528       -2.64489899830215       -0.06005476820555
H            3.72113601203675        1.22348657796738        1.06868216198462
H            4.00998926821717        1.04373864355518       -0.67671157677154
H            2.69474865070487        2.10191742513122       -0.08790828570580
H            3.57789897457221       -1.65861666927534        0.04218674361559
H           -1.65619267902314        3.07878941418164       -0.02599160965765
H           -2.82667342677702        2.09880755675658       -0.95408190636026
H           -2.87673380375025        2.08271909608101        0.81537416378229
H           -1.16618012770553       -3.19611537587669        0.83182779545281
H           -1.14112138353992       -3.17538220144289       -0.95570492310516
H           -2.55593577026015       -2.55604683942076       -0.07445849425646
H            1.36127277875784       -2.94469560958260       -0.01398389972044
25
 energy: -6.564213276821 xtb: 6.6.1 (8d0f1dd)
C            3.24685226029760        1.18619769159789        0.09010538532794
N            2.31350304521347        0.10625039016252        0.03459447120770
C            2.60921448350257       -1.24820585763992        0.02937748445188
N            1.41382458953741       -1.94079184196429        0.00058773114070
C            0.39820668761187       -1.05384424067507       -0.00847613185409
C            0.92478640502523        0.22851940713208        0.01340106945330
C            0.10554723641643        1.38133561750363       -0.00659233365110
O            0.48377542904999        2.56321020132592       -0.00602533746178
N           -1.27339071217881        1.03812803361356       -0.03227904443603
C           -2.21753562600836        2.14528129987821       -0.05151394989349
C           -1.82950785477548       -0.20310698268733       -0.04751023997737
O           -3.03107221295344       -0.38758967904328       -0.07082885671960
N           -0.94240178881622       -1.29986483352538       -0.03652840889720
C           -1.46834299107199       -2.64350636362064       -0.05939419257185
H            3.73511014417151        1.23585746895949        1.06946715670355
H            4.01233144878350        1.06495554236981       -0.67990090561995
H            2.69048443330762        2.10704380995843       -0.07726070559167
H            3.58078016622625       -1.68191041338562        0.04163146850571
H           -1.62793192805717        3.05979507783490       -0.02808159965773
H           -2.82782064221129        2.10874549966825       -0.95423819253942
H           -2.87422089500867        2.09494875670549        0.81639407013826
H           -1.15884449705968       -3.19593662165864        0.83145733471961
H           -1.13362535317876       -3.17540569281054       -0.95374474874272
H           -2.55400620808605       -2.55871680582213       -0.07403941925316
H            1.33649904819866       -2.94236086170532       -0.01356820863421
25
 energy: -6.519170496160 xtb: 6.6.1 (8d0f1dd)
C            3.24665441405675        1.19130506760330        0.09323204217343
N            2.31629585230875        0.10719623642944        0.03151863751638
C            2.60878004638165       -1.25779703366344        0.02815759578980
N            1.40420145510953       -1.93974707852075        0.00056493951811
C            0.39662572064080       -1.05230683590557       -0.00898568918109
C            0.92308914359784        0.23085704607476        0.01142318212487
C            0.10516628629529        1.37446257555482       -0.00926484595923
O            0.46655478358181        2.56152519084320       -0.00945824599987
N           -1.28310546855694        1.03086895266921       -0.03423790450334
C           -2.21231064493767        2.14741884235125       -0.05293766600692
C           -1.83512408694877       -0.20768604854527       -0.04808747729869
O           -3.03647533546667       -0.39755304949742       -0.07103708753077
N           -0.94631674056064       -1.29948785727996       -0.03607095671984
C           -1.46280472629383       -2.64560099831096       -0.05816747851185
H            3.74680949259518        1.24170292320623        1.06763577657200
H            4.00876151146488        1.09187849217370       -0.68455871748865
H            2.68265976745555        2.11142563024431       -0.05885855636774
H            3.57579311968406       -1.70112457723337        0.04008067842925
H           -1.59619225069982        3.04565236124478       -0.03282294270660
H           -2.82609510724132        2.12325386923700       -0.95386788318181
H           -2.86689087729468        2.11391259290839        0.81768999072169
H           -1.14881394446552       -3.19620981469907        0.83261561051744
H           -1.12335477863257       -3.17643210911552       -0.95175621642636
H           -2.54906036814434       -2.56751844420146       -0.07309118903269
H            1.31736740400687       -2.94096733139559       -0.01268170030023
25
 energy: -4.124984283493 xtb: 6.6.1 (8d0f1dd)
C            3.23673918866444        1.20737855750794        0.10597601001867
N            2.32228384587304        0.10350636907983        0.02073916232679
C            2.60016590800566       -1.28626518580805        0.02154533246288
N            1.37482323743907       -1.93811418826270       -0.00016924447089
C            0.38740224409886       -1.04893487368688       -0.01106112093202
C            0.91844183280127        0.23436906345690        0.00434586152375
C            0.10063347955410        1.35606956795725       -0.02057254262735
O            0.41165641545655        2.55451978557756       -0.02448347838282
N           -1.31312639550663        1.00960963235116       -0.04282075663856
C           -2.18822050158365        2.16299188604993       -0.05983186114778
C           -1.85641382140405       -0.22459609759471       -0.05033440560465
O           -3.05519611283919       -0.43240617235223       -0.07142819447152
N           -0.95810192132779       -1.30085638427040       -0.03401424664355
C           -1.43833527379006       -2.65882493648122       -0.05227010476162
H            3.78401780261415        1.24557047527922        1.05955928025711
H            3.97907878330295        1.19611805351208       -0.70721752123609
H            2.64044601026773        2.12403097117469        0.02424055838698
H            3.55198772606076       -1.76345037568573        0.03203418023628
H           -1.48200367993035        3.00462145698374       -0.05644764489287
H           -2.81613002322928        2.18211193652618       -0.95233045147831
H           -2.83123253537623        2.19407443567621        0.82290931378823
H           -1.10631734180530       -3.19909529180054        0.83940055605255
H           -1.08003304454903       -3.18355280416758       -0.94319415512258
H           -2.52688148042854       -2.61151107677342       -0.06822990519402
H            1.25653032556766       -2.93833620207720       -0.00931072530134
25
 energy: 7.481169216155 xtb: 6.6.1 (8d0f1dd)
C            3.21328849278758        1.23225489504822        0.12881417641259
N            2.32954081076406        0.09295248328312        0.00252315371150
C            2.58246744849086       -1.33028774377792        0.00900592992790
N            1.32989228588382       -1.93743130131330       -0.00221400023303
C            0.37030787986665       -1.04493987566676       -0.01492718694366
C            0.91169863122114        0.23663338139947       -0.00789839086663
C            0.09448776348630        1.32952443516332       -0.04057977183226
O            0.33384964975862        2.54057218937210       -0.05110590499799
N           -1.35913369657854        0.97999715791273       -0.05816217155867
C           -2.14645668354057        2.19411121353151       -0.07294545328052
C           -1.89137289868470       -0.25032605683608       -0.05411576449617
O           -3.08472250282686       -0.48702144117961       -0.07158134283567
N           -0.97636128539343       -1.30391225457696       -0.03030473198735
C           -1.39471470670995       -2.68339952103575       -0.04118133962352
H            3.84312174805045        1.23830421988954        1.04413775202087
H            3.91431552609931        1.37363430124898       -0.74759516805895
H            2.56065274291076        2.14072770007711        0.17553450617932
H            3.50965277392618       -1.86202871550868        0.01672354737367
H           -1.30466100268320        2.94572298748492       -0.10114870854448
H           -2.79809619048174        2.28125778487225       -0.94941780103502
H           -2.76496499352632        2.33224848082230        0.83122582209371
H           -1.03144737677354       -3.20422074032857        0.85257115053008
H           -1.00398106378028       -3.19704942468519       -0.92746756137544
H           -2.48684879188052       -2.69248450822935       -0.05875360114383
H            1.16170010755001       -2.93581104479537       -0.00410324328921
25
 energy: 7.402930361411 xtb: 6.6.1 (8d0f1dd)
C            3.19931359235615        1.23432392601351        0.13628544048540
N            2.32938639467299        0.08097607123656       -0.00306308576432
C            2.57165382862934       -1.33786731968215        0.00571143864127
N            1.32497979656079       -1.93970964226631       -0.00372862643727
C            0.36370340878416       -1.04576964996758       -0.01715832012816
C            0.91451516017395        0.23141060309942       -0.01297099351257
C            0.10073646518848        1.33190220515880       -0.04732818408263
O            0.34717637996615        2.53027758398725       -0.05897627267903
N           -1.36463740836748        0.98761800705135       -0.06309657332263
C           -2.14039121102042        2.20829366067227       -0.07743285306417
C           -1.89757749166539       -0.24997489041166       -0.05510731691210
O           -3.08595820022011       -0.49560812052035       -0.07036112299850
N           -0.97723918661966       -1.30311149399175       -0.02935224858849
C           -1.37900537147857       -2.69018864173999       -0.03717140896500
H            3.85148428373764        1.22501066105725        1.03530457548591
H            3.88042178031016        1.41451119725960       -0.75043146536091
H            2.53801053569892        2.13564348188691        0.21936777916430
H            3.49242500561316       -1.88311689749524        0.01051267616857
H           -1.30668176981841        2.95044429420209       -0.11556110252590
H           -2.79503178469088        2.30218983341466       -0.94676876677253
H           -2.74195875147874        2.36168560499872        0.83154060161416
H           -1.00757638846510       -3.20309868345801        0.85775532811107
H           -0.98050623410888       -3.19923141474758       -0.92244880110933
H           -2.47087042213618       -2.72033634759495       -0.05451484948951
H            1.14584225631402       -2.93724542599078       -0.00397195181038
25
 energy: 6.587562641599 xtb: 6.6.1 (8d0f1dd)
C            3.14530263836938        1.23354945205140        0.16232863026712
N            2.31939626964871        0.04708257012880       -0.01786867053838
C            2.53849957153319       -1.33765668405738       -0.00392528196181
N            1.32560941121179       -1.95107852585737       -0.01108797393386
C            0.34221846621215       -1.05119339161808       -0.02700894454043
C            0.92061215432352        0.20926048927863       -0.03115499796148
C            0.11906417209627        1.34672993235822       -0.06834916178770
O            0.42074729499357        2.51486821976596       -0.08463572567023
N           -1.36626139947337        1.01455921868346       -0.07699333737477
C           -2.12179125724761        2.25094481895111       -0.09074646258420
C           -1.91391223005262       -0.24112219708491       -0.05741326978206
O           -3.09113485023963       -0.50259822068867       -0.06381796094111
N           -0.97930547446038       -1.30446031634640       -0.02800082121125
C           -1.33415259717468       -2.71201126960813       -0.02437222381499
H            3.85517427487794        1.15810199310986        1.00293523038340
H            3.74063643155402        1.50028288455469       -0.73866995503490
H            2.47092422326120        2.09231031729778        0.35070019691932
H            3.44310202436122       -1.90707509635214       -0.01469074084146
H           -1.34009735867339        2.98305867972149       -0.17130067862566
H           -2.79147701455430        2.35535669011607       -0.93557615475380
H           -2.66029434395788        2.44495551716465        0.83602924031563
H           -0.93339014337204       -3.19544273612065        0.87472306317508
H           -0.90930486331464       -3.20392045471265       -0.90664588053210
H           -2.41947967252229       -2.81339356171670       -0.03916201917394
H            1.13152894053594       -2.94207972684702       -0.00826220384926
25
 energy: 15.809996198319 xtb: 6.6.1 (8d0f1dd)
C            3.08806606324073        1.23709619808840        0.19785291928399
N            2.30774006770722        0.01908155364580       -0.03634998663835
C            2.50806542466504       -1.34595058693261       -0.01711799067830
N            1.31195430386277       -1.96211580512928       -0.02004839460160
C            0.31844195362136       -1.05656335984107       -0.03923545004884
C            0.91743090947223        0.19080354794922       -0.05280758707148
C            0.12917712832672        1.34799644554694       -0.09498955900907
O            0.47090686377754        2.49636100746956       -0.11894034877330
N           -1.37876047007481        1.03015045950527       -0.09496397912213
C           -2.09287171151772        2.29825243125811       -0.10813120164990
C           -1.93788525318383       -0.23728807325736       -0.06048945268685
O           -3.10638235108343       -0.51446310732172       -0.05692584132310
N           -0.99096684772865       -1.30884493941000       -0.02673634328206
C           -1.28356210213660       -2.74026385744935       -0.00861577651521
H            3.88110044981778        1.08069860347863        0.96789135975086
H            3.57966100793851        1.64001813241489       -0.74677202427637
H            2.37919645202057        2.05052002045925        0.54164826433617
H            3.39562587647333       -1.94451482417269       -0.04550593691481
H           -1.29927183757280        2.99763206870804       -0.25758424437384
H           -2.79519498106098        2.42131129771811       -0.91923436200336
H           -2.55775951240967        2.56640149694165        0.84830269601520
H           -0.84450364333119       -3.18940568001917        0.89465802841109
H           -0.82342921391898       -3.21411978787757       -0.88572542657548
H           -2.36205475718092       -2.92579247270094       -0.02085816135058
H            1.09749084821170       -2.94797216690010       -0.01228730475548
25
 energy: 17.763740893763 xtb: 6.6.1 (8d0f1dd)
C            3.03100962886250        1.22233394333218        0.23176387836194
N            2.27497223858732        0.01656482582639       -0.04725300880167
C            2.49442708309055       -1.29755340480094       -0.02098163776082
N            1.32813502272915       -1.98043466555510       -0.03121181996460
C            0.30031472079099       -1.06719728925350       -0.05725211167286
C            0.89882041400284        0.16927905651800       -0.07799229257971
C            0.11168090528582        1.35485727513614       -0.11347732449009
O            0.57431747970067        2.50748599852248       -0.14725393317839
N           -1.35536992624959        1.04879028026707       -0.10321317981247
C           -2.07525025106658        2.32965338508159       -0.11606436662275
C           -1.94959018348917       -0.21756660223610       -0.06226594008834
O           -3.12366086295153       -0.47340576348651       -0.04745886407923
N           -1.00545809970038       -1.32710936480382       -0.03077557124761
C           -1.26066250565684       -2.76690702585465        0.00267940614416
H            3.86070272375272        0.97670038273397        0.92061593278129
H            3.38636338286386        1.68266094985002       -0.71183349746250
H            2.32775792658817        1.95197379893424        0.69433968604391
H            3.38475542705323       -1.87744788262825       -0.07908138221457
H           -1.28255092716995        3.04376800793511       -0.36683152502795
H           -2.82483787153934        2.43451329346552       -0.88991070504354
H           -2.45336564020825        2.64090506498417        0.86816410857039
H           -0.78823759399739       -3.18046256239716        0.90853986967602
H           -0.77143499875606       -3.22203116155285       -0.87018258321294
H           -2.31582452999700       -3.02135159836883       -0.00394741816590
H            1.14520110541011       -2.95899033947717       -0.02208182400460
25
 energy: 23.306260935076 xtb: 6.6.1 (8d0f1dd)
C            2.99174655784133        1.22229172597878        0.27135234287405
N            2.25387899906795        0.02074330390404       -0.06441556862080
C            2.48684938819090       -1.30239026358287       -0.02816498705457
N            1.30989960608837       -1.99265201893814       -0.04424396284830
C            0.28758882367299       -1.07303986229421       -0.07610476261095
C            0.87520739845090        0.16413503493084       -0.10653383660587
C            0.08938006373964        1.34024208808138       -0.14026246614097
O            0.57721633979310        2.49566693261964       -0.18220263338384
N           -1.35428925635654        1.04829711212047       -0.11802988141994
C           -2.03723973407573        2.36222143593337       -0.13003885424440
C           -1.96101630403954       -0.20980616859060       -0.06495174133289
O           -3.14070515021656       -0.45139057161028       -0.03879389567482
N           -1.02493448795558       -1.33873578947411       -0.03425129239786
C           -1.23128037522951       -2.79037706791848        0.01726645893212
H            3.87996123404754        0.92887657893088        0.88066293628470
H            3.24932235557039        1.79386230723953       -0.68657880101986
H            2.28735614299432        1.89492067351541        0.85808754097556
H            3.37572527285540       -1.88770381654774       -0.11254018834145
H           -1.22283336414735        3.05124379899531       -0.44972048810180
H           -2.84573457170244        2.47339886789287       -0.85657050777896
H           -2.34592926233993        2.73218900335841        0.87222376594146
H           -0.72711157327707       -3.17538923803698        0.92353176786908
H           -0.71604074211470       -3.23493595999372       -0.84930968187682
H           -2.27254032493632       -3.10963307461444        0.01659356725097
H            1.12773763201423       -2.97300642972736       -0.02997093452667
25
 energy: 25.295638751491 xtb: 6.6.1 (8d0f1dd)
C            2.97706788471951        1.21545045287863        0.30613383153753
N            2.21405484112436        0.08029086613416       -0.08478605418878
C            2.51912411889645       -1.30906642464937       -0.02018092148439
N            1.27911512701954       -2.00378873741578       -0.06294584616178
C            0.29900041051096       -1.08109336762337       -0.10320366583218
C            0.81662891517098        0.18147794459642       -0.14486630720563
C            0.01635842188083        1.29801506131935       -0.16132425815855
O            0.49699434204727        2.49195487683704       -0.21162294616816
N           -1.31723033008864        1.02719089330867       -0.12098553615662
C           -1.98675935272268        2.36862269254332       -0.13716965304461
C           -1.93638523512808       -0.18814496371766       -0.06333652349720
O           -3.14828520130976       -0.36040560862380       -0.02677345228408
N           -1.05263772142079       -1.35808539147011       -0.04497354359134
C           -1.23382705732048       -2.79892062749840        0.03014348599917
H            3.86456862166046        0.94262204781289        0.82365757579223
H            3.16463296023614        1.82752076039968       -0.58512209396774
H            2.33024946954299        1.80357833763224        0.94032504443363
H            3.43051148452975       -1.85672935155224       -0.15325911305896
H           -1.16356707593687        3.05480986649540       -0.48846661884413
H           -2.87121740615948        2.46844739732276       -0.80344236374335
H           -2.25680211996060        2.74649624667223        0.84136374660156
H           -0.71248646632599       -3.16736438385516        0.92910745311986
H           -0.71050629878895       -3.24605364913323       -0.82935451234322
H           -2.24746330299623       -3.14783275001618        0.04096032837866
H            1.14107563875512       -2.99996358622550       -0.04284415998478
25
 energy: 25.331954042462 xtb: 6.6.1 (8d0f1dd)
C            2.92805215977941        1.21595035006190        0.34144738400705
N            2.20474714511142        0.05112961647525       -0.10446732967944
C            2.49842571647477       -1.31681572752964       -0.03230093107310
N            1.27932648493041       -2.00358024728654       -0.07852648308131
C            0.28467424054762       -1.09487128721955       -0.12036126450552
C            0.82160577951289        0.16010419046017       -0.16770964885996
C            0.04173996137152        1.30496206592738       -0.19356080321068
O            0.51999546825288        2.47273370729578       -0.24655184993775
N           -1.32950289668862        1.05015374431443       -0.13638976659228
C           -1.97679689582083        2.39594446644849       -0.15690701057302
C           -1.94562505333662       -0.18072690240287       -0.06097774571078
O           -3.14540429602716       -0.35312445706464       -0.01458447902552
N           -1.05706044511286       -1.35323577563867       -0.05245041842745
C           -1.20886553298938       -2.80815344576685        0.04462386106587
H            3.89482327886820        0.88253564059033        0.80045104819078
H            3.06112563219224        1.90554997577764       -0.54922764203632
H            2.27995069171249        1.78317439369588        1.09146583586257
H            3.40622172440239       -1.85788600830849       -0.19424681419771
H           -1.16441320610269        3.05524514088077       -0.56934665153522
H           -2.88497499490930        2.47781556393581       -0.78066004534751
H           -2.17093890096720        2.81547917848680        0.85970317205659
H           -0.66854956818094       -3.15148970872228        0.94889353100220
H           -0.67907590128419       -3.25403883691268       -0.81102025365342
H           -2.22062315334533       -3.20978700508720        0.06572685313686
H            1.14335722954456       -2.99804003023923       -0.05598865172779
25
 energy: 25.539395943367 xtb: 6.6.1 (8d0f1dd)
C            2.88794414978821        1.20212061167123        0.39042662334672
N            2.19566753888013        0.03052512480542       -0.12320505908919
C            2.48818539619380       -1.31793597412495       -0.03851512330145
N            1.28631973676743       -2.00584421914152       -0.10438890313170
C            0.27621260826942       -1.11143531304092       -0.14925464030834
C            0.82495612458047        0.13888936678335       -0.20065388467949
C            0.06439205825488        1.31031342669264       -0.23204934451413
O            0.55151702211683        2.45673278403745       -0.29121890517428
N           -1.32388195535804        1.07328403284080       -0.15008801093335
C           -1.96787612518395        2.41410466762834       -0.16810011765666
C           -1.94276617935754       -0.16695454203961       -0.05803160102265
O           -3.13798255635682       -0.32129863022435        0.01210574530443
N           -1.06094915381162       -1.34937298275854       -0.06927041384218
C           -1.19902988943787       -2.81082186409036        0.06310898648690
H            3.85513035836567        0.86355877322878        0.79923254155609
H            2.98204148799266        1.95647156480221       -0.46332578567079
H            2.25478798592416        1.71758089197375        1.18880401363888
H            3.40202459031638       -1.83342532237524       -0.26223692241158
H           -1.18496525390278        3.06243257320006       -0.64345407818005
H           -2.90524831848959        2.46799512319286       -0.73951398885883
H           -2.09269538284280        2.84789130493999        0.86607813357733
H           -0.64143418402799       -3.12659381576149        0.97164149272823
H           -0.67223084896703       -3.26308207954006       -0.78943557942581
H           -2.20136920522117       -3.24408475695547        0.10233985660404
H            1.17346466344282       -3.00202214357234       -0.08396113889504
25
 energy: 22.466711926815 xtb: 6.6.1 (8d0f1dd)
C            2.84996683205364        1.18597136540140        0.45294086365052
N            2.19325901812635        0.02363669507160       -0.14071999991613
C            2.48899663564418       -1.31591737951628       -0.02659653731665
N            1.29900117840860       -2.00102779138696       -0.13585466051950
C            0.27505667236558       -1.12885793816884       -0.19176673300285
C            0.83119707237613        0.12258539003904       -0.24059038327799
C            0.09333224856654        1.31658743092582       -0.28003392769185
O            0.56553823830746        2.44316419073074       -0.36067953835452
N           -1.31324685227683        1.09505455013677       -0.16542631244598
C           -1.96393930304643        2.41732144498782       -0.17890267372800
C           -1.92805907154132       -0.15371085585188       -0.05564658175961
O           -3.12109751252147       -0.27813639812067        0.05314993924919
N           -1.06119953037423       -1.34144621642361       -0.09970888188049
C           -1.20656903395095       -2.80038966208597        0.08735252567174
H            3.85645190835471        0.84558948991953        0.78142730259720
H            2.89510777805146        1.98176892050973       -0.33341959901767
H            2.24269488464118        1.62508326288277        1.30446186042081
H            3.41256538280147       -1.78088994991932       -0.36180700764566
H           -1.24169604652858        3.05498058947707       -0.70859192506243
H           -2.92235445441379        2.43898816368538       -0.67897414756103
H           -2.02643059673168        2.83652271320698        0.83919169917620
H           -0.64578784291249       -3.08669859289814        0.99753405503045
H           -0.69783705356525       -3.27360496339299       -0.76170197438113
H           -2.19252885364467       -3.23391778599149        0.15266960106735
H            1.22979296974601       -3.00362807104653       -0.12127306715487
25