25
 energy: 0.000000000000 xtb: 6.6.1 (8d0f1dd)
C            3.23720163006194        1.16630919979326        0.08434469647475
N            2.29877817382611        0.07527477071623        0.03981603040599
C            2.58028210190900       -1.21425402444508        0.03006176031096
N            1.43813958087363       -1.93419271955128        0.00098261760884
C            0.39035688448383       -1.05887472636071       -0.00790371836672
C            0.93510056364412        0.21347819449412        0.01709077491437
C            0.09450143893243        1.40504303904423       -0.00410947031874
O            0.49712751527797        2.54126714362870       -0.00342325688240
N           -1.25076640035757        1.06271879480407       -0.03085478223738
C           -2.21907211982101        2.15522099834493       -0.05001256985998
C           -1.81739487048744       -0.20012725993278       -0.04692818574614
O           -2.99983886758376       -0.37846417018721       -0.07008878229737
N           -0.92618586207120       -1.30210215599479       -0.03682761578324
C           -1.46982264913417       -2.64643102187190       -0.06029820460571
H            3.71247264356769        1.21471455160235        1.06488849150277
H            4.00791497605742        1.03430808813993       -0.67357694370751
H            2.69910007168542        2.09770118228144       -0.09130154882931
H            3.56654120610678       -1.63682992603973        0.04233140067262
H           -1.67107961066214        3.09322851271934       -0.02552706933167
H           -2.82428953597071        2.09428624779827       -0.95318082946668
H           -2.87644029173232        2.07745725625962        0.81450067533302
H           -1.17061996399332       -3.19584890659852        0.83242232437030
H           -1.14560257411436       -3.17511610292205       -0.95688275822323
H           -2.55549792440841       -2.55659984320617       -0.07459039797972
H            1.38130855184625       -2.94313852034425       -0.01389874181052
25
 energy: -5.394849408491 xtb: 6.6.1 (8d0f1dd)
C            3.24324298706248        1.17752113291998        0.08681125346254
N            2.30770324220409        0.09534458377770        0.03778948237157
C            2.59945186677255       -1.23272935590359        0.02995837005426
N            1.42744738328599       -1.94052678991272        0.00074837591460
C            0.39618944698717       -1.05654047065348       -0.00818169673237
C            0.92987648085395        0.22219605081787        0.01540806060131
C            0.10135486063732        1.39564013034383       -0.00506522252570
O            0.49799343332954        2.56146722415343       -0.00438346093923
N           -1.26064239392245        1.05064068095073       -0.03113432521837
C           -2.22014740513124        2.14785689162768       -0.05018527172849
C           -1.82386662879321       -0.20063856197687       -0.04721370906432
O           -3.02058606999626       -0.38208618787978       -0.07045793116854
N           -0.93441468002103       -1.30127114451048       -0.03692950837133
C           -1.47120926613857       -2.64376967422126       -0.06013494061788
H            3.72167544431264        1.22336468519472        1.06876891553807
H            4.01109815866576        1.04308451649555       -0.67644650295334
H            2.69610748794535        2.10200762820761       -0.08840688787969
H            3.57775235156082       -1.65885161140811        0.04246215740052
H           -1.65772057811049        3.07842685960254       -0.02563916894873
H           -2.82628055582143        2.09585193683577       -0.95417476563393
H           -2.87751583127055        2.07946318918619        0.81573362399600
H           -1.16726123133110       -3.19494164404176        0.83187204542638
H           -1.14221219252249       -3.17432393105821       -0.95585831583026
H           -2.55654604582572       -2.55389373504778       -0.07452085368166
H            1.36072440320309       -2.94426380132753       -0.01378582732411
25
 energy: -6.569424099737 xtb: 6.6.1 (8d0f1dd)
C            3.24869559299812        1.18424844181312        0.08932184679703
N            2.31348287679979        0.10637017058689        0.03432748054847
C            2.60865993114071       -1.24619922172913        0.02994165229808
N            1.41510190181653       -1.93960729430588        0.00092393540826
C            0.39900369863641       -1.05290266452338       -0.00870142271859
C            0.92566880030955        0.22940427780404        0.01300179461014
C            0.10674690656138        1.38339631107630       -0.00690166520249
O            0.48605670173792        2.56405178834295       -0.00668422446285
N           -1.27131578271601        1.03985532212355       -0.03187651211322
C           -2.21967428691577        2.14277886901113       -0.05037990678051
C           -1.82691899914218       -0.20206330351817       -0.04760053935578
O           -3.02773433044720       -0.38866048279181       -0.07063944347606
N           -0.94069391468086       -1.29856515080102       -0.03696497236526
C           -1.47030825748599       -2.64063300076337       -0.05976916006113
H            3.73452556946997        1.23303150084299        1.06961581366827
H            4.01551029549861        1.05897051584975       -0.67847999552170
H            2.69574002168394        2.10642289627607       -0.08066197951518
H            3.58035786433477       -1.67834186519352        0.04265595828600
H           -1.63814019311381        3.06243509536089       -0.02628100883635
H           -2.82762359059939        2.10004249571301       -0.95421603961778
H           -2.87721192012124        2.08459215557749        0.81664183857244
H           -1.16324525033778       -3.19328310853167        0.83155198574205
H           -1.13804727715197       -3.17298634695922       -0.95453657014675
H           -2.55574493953588       -2.55206965943241       -0.07434173244645
H            1.33932324919659       -2.94125913965655       -0.01291323716337
25
 energy: -6.666150317740 xtb: 6.6.1 (8d0f1dd)
C            3.25043001915611        1.18602496288831        0.09081097568992
N            2.31575440317376        0.10700154072977        0.03141710601357
C            2.60851684875069       -1.25201208401187        0.02977974055935
N            1.40964425620917       -1.93802734271985        0.00140285678067
C            0.39891457883015       -1.05160286265690       -0.00917881058945
C            0.92510299107954        0.23177922562654        0.01112707451763
C            0.10793633630455        1.38004287803808       -0.00891301235951
O            0.47429074858511        2.56374478781568       -0.00940075544993
N           -1.27732464946111        1.03629927474228       -0.03290219097901
C           -2.21854042356671        2.14279317194793       -0.05068460148127
C           -1.82873601431129       -0.20425621960086       -0.04800101944838
O           -3.02898452950493       -0.39550580119758       -0.07074077787003
N           -0.94214456674402       -1.29747260307169       -0.03690629007158
C           -1.46772019491969       -2.64021862610045       -0.05924856186244
H            3.74242804147509        1.23487439381349        1.06859660956658
H            4.01621268876613        1.07246480214917       -0.68045546537939
H            2.69527613648957        2.10908877293305       -0.07111344283413
H            3.57753557754203       -1.68940459626560        0.04251069698357
H           -1.62486219658569        3.05481410577096       -0.02756521757449
H           -2.82788629419275        2.10528398594317       -0.95377793776815
H           -2.87533874060083        2.09096943541152        0.81730070741258
H           -1.15957820594071       -3.19217073587749        0.83224672287749
H           -1.13415012902381       -3.17241910822512       -0.95374681577681
H           -2.55343075067270       -2.55334706172433       -0.07401611232943
H            1.32886873709860       -2.93971569418617       -0.01150758248012
25
 energy: -6.655700020658 xtb: 6.6.1 (8d0f1dd)
C            3.25075289133277        1.18717406409388        0.09342590634139
N            2.31836375440434        0.10484856930388        0.02647549789109
C            2.60569016104436       -1.25798845785242        0.02906618406140
N            1.40418899333100       -1.93614280947055        0.00232099283098
C            0.39752064065317       -1.05015563658095       -0.01011694217941
C            0.92553475800317        0.23383550295700        0.00777371996173
C            0.10874771004123        1.37857345281875       -0.01301060214818
O            0.45867600077744        2.56404820313077       -0.01484565755199
N           -1.28426233686269        1.03308715335756       -0.03516185665217
C           -2.21603342115783        2.14511324115465       -0.05151527218084
C           -1.83203884824714       -0.20765283926364       -0.04884287038421
O           -3.03079833929664       -0.40516802935027       -0.07083748203109
N           -0.94302856024383       -1.29660455555404       -0.03676760797973
C           -1.46241090942828       -2.64140954634024       -0.05801596177916
H            3.75288168086862        1.22990240478154        1.06677059234409
H            4.01250289813501        1.09391005981995       -0.68544684854373
H            2.69121052881018        2.11161034298661       -0.05121168319095
H            3.57137567385671       -1.70323553913643        0.04173895150261
H           -1.60732797112831        3.04737337780507       -0.03086178410641
H           -2.82813547318918        2.11507147629509       -0.95288032991876
H           -2.87070907949786        2.10318411130321        0.81856514962377
H           -1.15233244595656       -3.19094153393177        0.83420751557537
H           -1.12642980978907       -3.17258102219680       -0.95213940880871
H           -2.54859303860558       -2.55877728753646       -0.07317384249910
H            1.31686921008116       -2.93804610042238       -0.00848246403070
25
 energy: -6.499406991362 xtb: 6.6.1 (8d0f1dd)
C            3.24840783295461        1.18787731622052        0.09849057443305
N            2.32080823002229        0.10060735095151        0.01846328526530
C            2.60051514482511       -1.26383815423481        0.02689561378518
N            1.39825018128580       -1.93440818617354        0.00352800468075
C            0.39437261725337       -1.04817764814837       -0.01195734584479
C            0.92622713968031        0.23564846230026        0.00183347825136
C            0.10972378538618        1.37830633404884       -0.02069637875980
O            0.44258419848345        2.56516637918611       -0.02498647166961
N           -1.29152127904523        1.02989188494475       -0.03961273400558
C           -2.21146673963378        2.15022548262487       -0.05346810306225
C           -1.83740373691854       -0.21145595207505       -0.05041086620862
O           -3.03430509749332       -0.41585104164725       -0.07078601522458
N           -0.94425031953495       -1.29600040002105       -0.03656102637373
C           -1.45359541232890       -2.64488666381806       -0.05539691286180
H            3.76782019489596        1.21195102740091        1.06406645774961
H            3.99963271470505        1.12719325475660       -0.69577253411359
H            2.67992469520793        2.11335195530885       -0.01287990609948
H            3.56191946245756       -1.71934207641480        0.03955661434364
H           -1.58570307721224        3.04123180440849       -0.03813397022032
H           -2.82877283047825        2.13004417802730       -0.95139876808152
H           -2.86133491515607        2.12303437659184        0.82087334763983
H           -1.13928149047002       -3.18958125930008        0.83823281593722
H           -1.11256589831839       -3.17435942787821       -0.94853511768924
H           -2.54045558484745       -2.57130477448792       -0.07124401633283
H            1.30268485221570       -2.93629562039968       -0.00306612939096
25
 energy: -5.033327563285 xtb: 6.6.1 (8d0f1dd)
C            3.23732126146285        1.18919968791660        0.11706771748063
N            2.32559573706161        0.08787820316132       -0.00756477677245
C            2.58461788454637       -1.27847598048427        0.01779382010177
N            1.38143599252368       -1.93080443428252        0.00628214487995
C            0.38366745955058       -1.04250116237237       -0.01873651656962
C            0.92712631959292        0.23962146597523       -0.01856149605462
C            0.11290791662741        1.37822901622728       -0.04735605361332
O            0.40590029899360        2.56824273831836       -0.06019393302850
N           -1.30980377551221        1.02232406977469       -0.05538953129151
C           -2.19668205011334        2.16748652434082       -0.06099867987404
C           -1.85383594749670       -0.22015179071870       -0.05576042134362
O           -3.04589006352081       -0.44172427169557       -0.07006453241781
N           -0.94901926781283       -1.29469223060114       -0.03605880901910
C           -1.42595136067864       -2.65703107369351       -0.04568420853749
H            3.81630212604397        1.14059511394961        1.05483420998950
H            3.94741319954839        1.23459171670922       -0.73129358625774
H            2.63842889293776        2.11606318112397        0.12261342246215
H            3.53398844736969       -1.76223091410296        0.03078118337318
H           -1.52604614216415        3.02859193415422       -0.06556713297203
H           -2.83217277296689        2.17383793688239       -0.94651695934202
H           -2.82819602310685        2.18471476880648        0.82869283163621
H           -1.09616281777192       -3.18511962468573        0.85270971296936
H           -1.06688256780775       -3.18193243027009       -0.93467923767941
H           -2.51476993271296       -2.61560855395998       -0.06374580101623
H            1.26292185334237       -2.93207528830130        0.01443052904405
25
 energy: -2.330261382080 xtb: 6.6.1 (8d0f1dd)
C            3.22301840278915        1.18898519149748        0.13856715004164
N            2.32717036748738        0.07622002426653       -0.03380325769287
C            2.56921747832105       -1.28879308089437        0.00712355721873
N            1.36681989084136       -1.92870150304919        0.00730208155338
C            0.37253062172548       -1.03752320203173       -0.02726009400041
C            0.92680904431717        0.24178185913466       -0.04141817685780
C            0.11632872524005        1.37942977180781       -0.07652080920330
O            0.38462340275992        2.57013559472354       -0.09851687569764
N           -1.32374280604003        1.01847385092084       -0.07244431991067
C           -2.18314136118130        2.18525014868833       -0.06876598358896
C           -1.86919489402356       -0.22512338704502       -0.06129821387722
O           -3.05718694173048       -0.45980315922799       -0.06810808882093
N           -0.95448779381025       -1.29363344593103       -0.03626914030811
C           -1.39910787853650       -2.66935361854564       -0.03499167140392
H            3.86217980316352        1.06220534845516        1.04258482965364
H            3.88587166295121        1.33780118696279       -0.75875499275050
H            2.59929888995785        2.11182451481825        0.26271980312975
H            3.50828755691021       -1.79572432219302        0.01991373261946
H           -1.47972759059410        3.02267492865407       -0.09655793899068
H           -2.83861864873992        2.21221709482628       -0.93963838570342
H           -2.79163009832798        2.24239611006047        0.83800281409837
H           -1.05230026770467       -3.17961697330193        0.86833118985474
H           -1.02082558216290       -3.19040626436199       -0.91898209181543
H           -2.48927281530645       -2.66293397822422       -0.05487287436092
H            1.22929549962986       -2.92875408783806        0.03069165296031
25
 energy: -1.816891703038 xtb: 6.6.1 (8d0f1dd)
C            3.20774082280821        1.18532920289249        0.15690115416468
N            2.32217050385732        0.07029198203184       -0.05085433190406
C            2.55971152160683       -1.28554035176768       -0.00070907204521
N            1.36305440211450       -1.93006808704469        0.00504116712982
C            0.36430690145377       -1.03548645339318       -0.03626287087719
C            0.92488040991323        0.23958599159324       -0.06114518349546
C            0.11855014633553        1.38393632633014       -0.09946518523406
O            0.40062458766800        2.57002830090429       -0.12798187331210
N           -1.32354111382218        1.02331622234656       -0.08500224051650
C           -2.17702613359604        2.19758770917979       -0.07266960863338
C           -1.87718941400874       -0.22137802815016       -0.06501141081806
O           -3.06391509121191       -0.45631541619224       -0.06423420720537
N           -0.95873679422468       -1.29371041792929       -0.03813907362727
C           -1.38342444528797       -2.67791736641272       -0.02726604459936
H            3.87908717385218        1.00449106443203        1.03026634140571
H            3.83330905104722        1.38734140668798       -0.75539435810702
H            2.58097333776314        2.09366900607722        0.34876596604609
H            3.49572861405712       -1.79773274492295        0.00962145511291
H           -1.47738166607844        3.03291652807998       -0.12089011544385
H           -2.84859271208602        2.22699930373599       -0.93001398451377
H           -2.76207553017531        2.27062835678941        0.84792812316571
H           -1.02314328140452       -3.17470524574565        0.87930862268321
H           -0.99108883617854       -3.19716323713130       -0.90686899195429
H           -2.47305953938175       -2.69894322052494       -0.04733811570908
H            1.22125175291511       -2.92813222969415        0.03844773443515
25
 energy: -2.736394521914 xtb: 6.6.1 (8d0f1dd)
C            3.17831202536839        1.17397705303227        0.19357177878754
N            2.30090506130960        0.07511671064711       -0.07757725664818
C            2.55409714938359       -1.26058537242230       -0.01070986259365
N            1.36635678925881       -1.93922744524162       -0.00600853950851
C            0.35364509388181       -1.03609868619939       -0.05907098259862
C            0.91335351217426        0.22975773828573       -0.10278921186988
C            0.11357246154756        1.39012580521510       -0.14028920846329
O            0.48143152586677        2.56874588449075       -0.18159623250489
N           -1.30347586875819        1.04001112939942       -0.10552081512970
C           -2.17257779249144        2.21175774780998       -0.07457415947735
C           -1.88223689090545       -0.20085165423194       -0.07027943570376
O           -3.07315278995244       -0.41325001344790       -0.05191951525415
N           -0.97000306100222       -1.29669689313430       -0.04640187405218
C           -1.37031225840658       -2.68812175837546       -0.01497608047658
H            3.87159652990794        0.91933238616052        0.99802813877055
H            3.73665583544632        1.42494983804935       -0.69466778936082
H            2.57614241850071        2.02589402645881        0.46230919995173
H            3.49548096512674       -1.75472739499665       -0.01316899008102
H           -1.51598825601388        3.07046924186800       -0.17048182274200
H           -2.88048192784900        2.21763046386668       -0.90050150458030
H           -2.70403855813118        2.28729757886538        0.87327001083280
H           -0.98652583691338       -3.16196872690996        0.89602838590928
H           -0.95538935258676       -3.20806672540717       -0.88518562435291
H           -2.45374001513234       -2.75494509393541       -0.03228795421757
H            1.23858790830638       -2.93149723767499        0.04183324151069
25
 energy: 1.334998752875 xtb: 6.6.1 (8d0f1dd)
C            3.14951826949683        1.16491061044412        0.24290241224123
N            2.28926320976322        0.06986780410121       -0.12643923433880
C            2.53972025870280       -1.26014048104136       -0.02731771695012
N            1.35151285550691       -1.94393396468890       -0.01441241593452
C            0.33899085507770       -1.03346340617157       -0.08613941826567
C            0.90383369237561        0.22540114146869       -0.15736336007846
C            0.11288303837587        1.39047660889667       -0.20099997470806
O            0.51047926865245        2.56540057370433       -0.26011168378337
N           -1.30457607880069        1.04727874157046       -0.13938556343746
C           -2.15752864870161        2.23539835859478       -0.08621350635231
C           -1.89638509612365       -0.18988108608897       -0.08042733444116
O           -3.08715775671339       -0.39807933651834       -0.04088509243862
N           -0.98384038122466       -1.29608570092338       -0.05429560680555
C           -1.33916079561328       -2.70217506933692        0.00635161682799
H            3.92686739960621        0.77325533601629        0.95856660295085
H            3.60981981425487        1.58166974389499       -0.68946546368892
H            2.53104599360327        1.97504853733604        0.71491605945422
H            3.47620899017380       -1.76169038729283       -0.04114178298894
H           -1.49476373465960        3.08609688623053       -0.24675792993934
H           -2.91726427724436        2.23575688073026       -0.87011648890187
H           -2.62450987359088        2.35169231887767        0.89989219445876
H           -0.92595262921480       -3.14179238342451        0.92641717534310
H           -0.89342520833614       -3.22314523894885       -0.85099596761513
H           -2.41886143823318       -2.83051396712111       -0.01019489647019
H            1.21549694080256       -2.93232391813728        0.06065127200958
25
 energy: 3.486667742085 xtb: 6.6.1 (8d0f1dd)
C            3.13770654780740        1.15576796379365        0.28052957233296
N            2.28161266279460        0.07493675326591       -0.16007490223242
C            2.53972699713177       -1.26646004183964       -0.03122460095689
N            1.34209008761082       -1.94809306172799       -0.02982368012348
C            0.33760696054541       -1.03664081346162       -0.11338247507101
C            0.89451627267347        0.22193305681964       -0.20192767582382
C            0.10371489617156        1.38263498734272       -0.24863064255946
O            0.51621598123300        2.55417791405885       -0.31180925910447
N           -1.30167982354716        1.05215692638186       -0.16423721802740
C           -2.14760053010905        2.24434396906011       -0.09067883884620
C           -1.89389861848505       -0.17959396551329       -0.08788360037481
O           -3.08758583116440       -0.37475096664041       -0.02858024217782
N           -0.99154646352174       -1.29478138985077       -0.06752481319195
C           -1.32928344804080       -2.70235594002394        0.02145525020570
H            3.94396240556807        0.71025845637598        0.92980060064131
H            3.54864858946263        1.68928681234678       -0.65254597674643
H            2.51519862308754        1.92158607500507        0.87162212556974
H            3.47983466406604       -1.76206686363047       -0.06644905444484
H           -1.48114362077701        3.09134669999938       -0.30913458589632
H           -2.95649426431068        2.22018582064449       -0.83121330693384
H           -2.56268860372066        2.38101990351842        0.92171580810086
H           -0.90602757085166       -3.11965517456617        0.94802219803306
H           -0.87568365787854       -3.23196343268933       -0.82610029114968
H           -2.40356673687935       -2.85698101903605        0.00976615851168
H            1.20857914906964       -2.93726406746116        0.06534334641268
25
 energy: 1.385034684160 xtb: 6.6.1 (8d0f1dd)
C            3.13963519628786        1.14754130536135        0.31570958825227
N            2.27602364795403        0.09735139249188       -0.17978240546432
C            2.55472620785058       -1.28252268928927       -0.01840162119702
N            1.33266734471358       -1.94803169722073       -0.05679729525594
C            0.35175364618107       -1.04660455713275       -0.14720077943461
C            0.88176526537353        0.22117580543460       -0.24135756499302
C            0.08047739666877        1.36318558680658       -0.29085162527298
O            0.48132831130582        2.53241743418270       -0.35131767294359
N           -1.29721049343596        1.05568153120677       -0.18422882489973
C           -2.14124124997402        2.23947414849250       -0.08914836020111
C           -1.87024078681391       -0.17016797890818       -0.09250190681884
O           -3.07046384621142       -0.34105971265742       -0.01071964002828
N           -0.99415159739557       -1.29010468302406       -0.09276176274844
C           -1.33880215000330       -2.68567891452197        0.03303288507221
H            3.93391696169459        0.72027627570678        0.90763493724043
H            3.54707222482229        1.74568747896598       -0.56435486273235
H            2.53083656149244        1.86043042429771        0.94886792146542
H            3.50886254950065       -1.75463465474387       -0.10520344319954
H           -1.47214650469259        3.08172611453940       -0.36237046233029
H           -3.00136182643693        2.16942393165426       -0.77385886832542
H           -2.50967617145026        2.37767823683075        0.93598644992929
H           -0.92249995331197       -3.08707114821296        0.96515477191161
H           -0.89875363017371       -3.23625962236253       -0.80478728781498
H           -2.40724260200724       -2.83670629499676        0.03205071043741
H            1.21694016599747       -2.94417911072873        0.05424101549901
25
 energy: 2.888408217797 xtb: 6.6.1 (8d0f1dd)
C            3.10371357704802        1.14429067132638        0.38005140685377
N            2.26468967587608        0.10528853721577       -0.21079196499416
C            2.54572232653813       -1.27394105750080       -0.02270991339094
N            1.32732969527391       -1.94560764524535       -0.08126280393201
C            0.34595511110674       -1.04736020917952       -0.18964464583422
C            0.87456580312463        0.21822343517516       -0.29746704382972
C            0.06925770819952        1.36563623742605       -0.35945402425784
O            0.47944994361271        2.53001670634561       -0.44637808065842
N           -1.29444460760291        1.06499457736547       -0.21885822586669
C           -2.13052109286437        2.25396061155626       -0.09393711799124
C           -1.87143925402286       -0.16536882445397       -0.09869597926112
O           -3.07158458252659       -0.32445107240680        0.01580107160361
N           -1.00034992813501       -1.28657407482869       -0.12089795244662
C           -1.32064470401286       -2.68861180861471        0.05310015955439
H            3.95995332895340        0.62753811933122        0.87710847385049
H            3.45241246886363        1.81255882854979       -0.44425642949133
H            2.53335391887190        1.78549344132512        1.09997385357871
H            3.50220642601503       -1.73727376799709       -0.17156608612214
H           -1.47658369510002        3.08852597031418       -0.43046207314612
H           -3.04450732203466        2.16544520852427       -0.71556273906310
H           -2.42220002688014        2.42074276937328        0.96357906698374
H           -0.88209273833152       -3.05018580665048        0.99756014001054
H           -0.86641437519901       -3.25429859653537       -0.76938540882460
H           -2.38743852458699       -2.87967386031562        0.06139168610780
H            1.22182553574896       -2.94033978792814        0.04979852671440
25
 energy: 1.314090286979 xtb: 6.6.1 (8d0f1dd)
C            3.07511087172565        1.13578370592195        0.43226080555442
N            2.27369258469163        0.10460280651331       -0.21478276739972
C            2.54094947385713       -1.26326606499201       -0.01536298611073
N            1.33593056952343       -1.94143608049223       -0.10219144867950
C            0.34596953339925       -1.04781109562239       -0.22785077773013
C            0.88838331493640        0.21407717664265       -0.32748111908489
C            0.07418579359265        1.37355641018911       -0.40975052644851
O            0.47121989318417        2.53470780497930       -0.54581423986869
N           -1.29048194958973        1.07083021015725       -0.23945894090323
C           -2.12614698182950        2.25664749775015       -0.09739721942038
C           -1.86903481566120       -0.17391016688392       -0.09690735391832
O           -3.06338288883886       -0.32962575390615        0.04908156143437
N           -0.99606578801602       -1.28022390198756       -0.15756291129863
C           -1.31689419163257       -2.68039195621694        0.07016984831472
H            3.96124654924624        0.59591842152173        0.84844792005457
H            3.38619560435924        1.84828020211286       -0.30990475603608
H            2.53158807216789        1.68508295878801        1.19452665088067
H            3.49125746502046       -1.71711940145139       -0.26822510170727
H           -1.51828512355219        3.08302798195500       -0.45455817471849
H           -3.04222270449884        2.16761363674516       -0.66890364862802
H           -2.36658513091651        2.43419490077820        0.95616994587662
H           -0.87010595848349       -3.00462525518649        1.02668293259071
H           -0.86351703813609       -3.26968435341731       -0.73709155983989
H           -2.38411396782760       -2.87536762847510        0.09062146070230
H            1.24332148121414       -2.93183345325113        0.03231630253125
25