25
 energy: 0.000000000000 xtb: 6.6.1 (8d0f1dd)
C            3.23720163006194        1.16630919979326        0.08434469647475
N            2.29877817382611        0.07527477071623        0.03981603040599
C            2.58028210190900       -1.21425402444508        0.03006176031096
N            1.43813958087363       -1.93419271955128        0.00098261760884
C            0.39035688448383       -1.05887472636071       -0.00790371836672
C            0.93510056364412        0.21347819449412        0.01709077491437
C            0.09450143893243        1.40504303904423       -0.00410947031874
O            0.49712751527797        2.54126714362870       -0.00342325688240
N           -1.25076640035757        1.06271879480407       -0.03085478223738
C           -2.21907211982101        2.15522099834493       -0.05001256985998
C           -1.81739487048744       -0.20012725993278       -0.04692818574614
O           -2.99983886758376       -0.37846417018721       -0.07008878229737
N           -0.92618586207120       -1.30210215599479       -0.03682761578324
C           -1.46982264913417       -2.64643102187190       -0.06029820460571
H            3.71247264356769        1.21471455160235        1.06488849150277
H            4.00791497605742        1.03430808813993       -0.67357694370751
H            2.69910007168542        2.09770118228144       -0.09130154882931
H            3.56654120610678       -1.63682992603973        0.04233140067262
H           -1.67107961066214        3.09322851271934       -0.02552706933167
H           -2.82428953597071        2.09428624779827       -0.95318082946668
H           -2.87644029173232        2.07745725625962        0.81450067533302
H           -1.17061996399332       -3.19584890659852        0.83242232437030
H           -1.14560257411436       -3.17511610292205       -0.95688275822323
H           -2.55549792440841       -2.55659984320617       -0.07459039797972
H            1.38130855184625       -2.94313852034425       -0.01389874181052
25
 energy: -5.396248731807 xtb: 6.6.1 (8d0f1dd)
C            3.24346717554001        1.17748560047197        0.08679237722729
N            2.30780764159911        0.09540247794237        0.03776246375550
C            2.59945632919235       -1.23270077521305        0.02998749426216
N            1.42740769620482       -1.94041950378023        0.00076609397668
C            0.39623366543874       -1.05637272048340       -0.00821379802974
C            0.92998011184060        0.22234549344341        0.01535068466368
C            0.10145242418474        1.39579466481757       -0.00513359017724
O            0.49809289167478        2.56163101738883       -0.00447372616648
N           -1.26055518916684        1.05067118037681       -0.03112675123081
C           -2.22028605620786        2.14753869724445       -0.05007323610168
C           -1.82380297898662       -0.20061286078589       -0.04724532056365
O           -3.02049711626304       -0.38237188974986       -0.07044274763904
N           -0.93434633806177       -1.30110473074225       -0.03697047385993
C           -1.47138035444013       -2.64346840389427       -0.06015623190848
H            3.72181889552383        1.22333203429323        1.06879198415027
H            4.01139363170350        1.04290986277778       -0.67637587024662
H            2.69646974801390        2.10203190417031       -0.08854011761578
H            3.57771386542946       -1.65891382207608        0.04253552224431
H           -1.65812848907168        3.07833081361992       -0.02554520779806
H           -2.82617561795213        2.09506384383711       -0.95419943675139
H           -2.87772423042469        2.07859509932190        0.81582941879681
H           -1.16754944371619       -3.19462868913336        0.83188391296020
H           -1.14250306826691       -3.17404169090466       -0.95589914742855
H           -2.55670861546286       -2.55331964626381       -0.07453738260413
H            1.36057808961109       -2.94414935450680       -0.01373301776804
25
 energy: -6.566482367056 xtb: 6.6.1 (8d0f1dd)
C            3.24905701344963        1.18377775342909        0.08913064117515
N            2.31342607969509        0.10640159033362        0.03426951012979
C            2.60851796143986       -1.24571132408594        0.03007103614368
N            1.41541576381951       -1.93934860430514        0.00100090215830
C            0.39918239162130       -1.05271646672431       -0.00874318131927
C            0.92583496894180        0.22958649881679        0.01292633694398
C            0.10703314463022        1.38386789432675       -0.00694940847818
O            0.48663947701896        2.56423117339365       -0.00681052051380
N           -1.27082483117977        1.04028742654428       -0.03177395857643
C           -2.22013432338052        2.14226860363911       -0.05012196870174
C           -1.82629584339022       -0.20180555638182       -0.04761371111025
O           -3.02693817099429       -0.38891070978880       -0.07059845938380
N           -0.94030100706532       -1.29828550253919       -0.03705858492147
C           -1.47074381359080       -2.64000786234313       -0.05985436330714
H            3.73429301508022        1.23232526778044        1.06965148353577
H            4.01617980447280        1.05751825550955       -0.67815060314421
H            2.69689940511109        2.10625623974994       -0.08147620296344
H            3.58025893649840       -1.67741254604862        0.04287599328425
H           -1.64051851985069        3.06315912469118       -0.02588426765153
H           -2.82754460216886        2.09810018294149       -0.95421473998006
H           -2.87788207557951        2.08227851513232        0.81669055117026
H           -1.16423720817129       -3.19271616607984        0.83156958364690
H           -1.13904359012594       -3.17246616082011       -0.95471643531549
H           -2.55613006567875       -2.55062932917492       -0.07441021306848
H            1.34007075733325       -2.94101969582440       -0.01277552360546
25
 energy: -6.674131321687 xtb: 6.6.1 (8d0f1dd)
C            3.25095575747493        1.18500126666515        0.09033542486756
N            2.31551393744700        0.10702703436331        0.03141116756509
C            2.60848733939954       -1.25091260052781        0.03008458696012
N            1.41066689571350       -1.93774305298740        0.00154807276738
C            0.39933548696707       -1.05158491443043       -0.00918171049552
C            0.92533263823225        0.23192926973776        0.01113017819150
C            0.10856497531754        1.38104960384516       -0.00875924327409
O            0.47592861732239        2.56413445626720       -0.00928521553248
N           -1.27624093489678        1.03739215175495       -0.03260854746520
C           -2.21960729617802        2.14207058859179       -0.05027135825400
C           -1.82747651946831       -0.20354976154335       -0.04795895127412
O           -3.02754002637961       -0.39510229829505       -0.07068883488584
N           -0.94140777715358       -1.29712223147585       -0.03703971580314
C           -1.46862979569486       -2.63929525050694       -0.05944701244422
H            3.74131254620413        1.23353353914645        1.06880870422655
H            4.01743622154033        1.06861482509910       -0.67967166272648
H            2.69746134482248        2.10859003639776       -0.07354843024903
H            3.57791284755250       -1.68692301219570        0.04289832467180
H           -1.63024169317068        3.05677724723968       -0.02664356772937
H           -2.82808334825130        2.10202564908264       -0.95379856046970
H           -2.87685969373135        2.08683983514606        0.81721074282563
H           -1.16153298294601       -3.19151301371577        0.83216488539604
H           -1.13611094806691       -3.17174104294212       -0.95411257559789
H           -2.55424508763307       -2.55093409649621       -0.07418440726711
H            1.33128216351308       -2.93953562604839       -0.01135839785619
25
 energy: -6.705990835854 xtb: 6.6.1 (8d0f1dd)
C            3.25184498449027        1.18517512993441        0.09209194874074
N            2.31772841646240        0.10518253744311        0.02709000899575
C            2.60635711766574       -1.25531532386358        0.02988779388407
N            1.40698430972380       -1.93599218855895        0.00253048915949
C            0.39855678656659       -1.05051546651710       -0.00992085050641
C            0.92588905015895        0.23375872506280        0.00830729085191
C            0.10991678253767        1.38056345616260       -0.01193832733777
O            0.46363397491156        2.56486290605032       -0.01347466481924
N           -1.28150361467552        1.03549226865127       -0.03421929467228
C           -2.21860466067188        2.14349762280679       -0.05068347573167
C           -1.82945717637494       -0.20581764044381       -0.04860691722556
O           -3.02825991115216       -0.40250283555525       -0.07078672350297
N           -0.94170002133880       -1.29618418579037       -0.03697581432531
C           -1.46489462749575       -2.63970895578134       -0.05860778782647
H            3.74911911269024        1.22886573638850        1.06756588809221
H            4.01575624504816        1.08325941680996       -0.68305507087905
H            2.69601245315146        2.11028312704789       -0.05949378722846
H            3.57350162602074       -1.69681107765895        0.04252783322500
H           -1.61962511385595        3.05184402578673       -0.02840306243878
H           -2.82891519398727        2.10843206008223       -0.95306560289257
H           -2.87457775640707        2.09433460798025        0.81806155347988
H           -1.15690545423992       -3.19025235065254        0.83360387627856
H           -1.13105137569266       -3.17149725911496       -0.95305394563637
H           -2.55085530478475       -2.55382910597259       -0.07367538469238
H            1.32326401918524       -2.93809662812540       -0.00867207684507
25
 energy: -6.693308264182 xtb: 6.6.1 (8d0f1dd)
C            3.25129327796713        1.18463775324977        0.09468720670097
N            2.31943489931731        0.10247180825234        0.02162429536976
C            2.60341001697951       -1.25797852149103        0.02918210756039
N            1.40449505730685       -1.93469614057264        0.00369183900877
C            0.39695183234999       -1.04927869303306       -0.01103977183329
C            0.92669050634832        0.23506192064676        0.00441027875990
C            0.11130613234895        1.38148862173614       -0.01652382504420
O            0.45476084998176        2.56641770591030       -0.01935988352435
N           -1.28516299764131        1.03433999934455       -0.03669910457021
C           -2.21716387667010        2.14587142500158       -0.05149337186895
C           -1.83206516806360       -0.20747766387586       -0.04956146222138
O           -3.02975540376489       -0.40808333257640       -0.07081122729755
N           -0.94193791581029       -1.29555970862636       -0.03690568713497
C           -1.46031459090358       -2.64120132039390       -0.05722583656134
H            3.75722077313507        1.21676708330135        1.06633112725367
H            4.00972117264372        1.09976519027153       -0.68852494337298
H            2.69142314677672        2.11074445084731       -0.03890940234067
H            3.56852299055003       -1.70466836219243        0.04144555961742
H           -1.61128218197262        3.04959637491867       -0.03148501015972
H           -2.83014807882749        2.11556201314252       -0.95215227792531
H           -2.87086164437915        2.10309247639065        0.81928287340876
H           -1.15051632111918       -3.18913732675011        0.83584756330098
H           -1.12404507499156       -3.17214001390801       -0.95115413654666
H           -2.54662941658459       -2.55968023199054       -0.07276836304775
H            1.31686668295918       -2.93688690543112       -0.00485465138398
25
 energy: -6.566503313241 xtb: 6.6.1 (8d0f1dd)
C            3.24853901725565        1.18323261394105        0.10162607772857
N            2.32160287849414        0.09745946480762        0.00909556298758
C            2.59749020674285       -1.26158397651931        0.02665799674036
N            1.39986876064339       -1.93288400343082        0.00582579153555
C            0.39306304525623       -1.04662511702171       -0.01401538631198
C            0.92759525594446        0.23717226506136       -0.00515156694689
C            0.11400423764183        1.38363308091506       -0.02787594161196
O            0.44324478268732        2.56972302115165       -0.03383808439940
N           -1.29047498626284        1.03277394970476       -0.04306814876920
C           -2.21384847702629        2.15117742218116       -0.05387249398395
C           -1.83759449487757       -0.20929154364600       -0.05190793083080
O           -3.03358091874012       -0.41558838601303       -0.07062549921040
N           -0.94315938984355       -1.29455691085703       -0.03683533111404
C           -1.45072868965539       -2.64499859891122       -0.05348840862083
H            3.77565382162877        1.18279409152069        1.06362494893360
H            3.99137483036090        1.13660753927446       -0.70212879373363
H            2.67859140290414        2.11074988523543        0.01318614269354
H            3.55895466369514       -1.71742677096260        0.03793699836304
H           -1.59731008592335        3.04792723698553       -0.04005343504159
H           -2.83347576414152        2.12882347593866       -0.95012401258521
H           -2.86121765050174        2.12073657077278        0.82225325977771
H           -1.13584512391962       -3.18667654160767        0.84160972108205
H           -1.10791754365013       -3.17461831517336       -0.94568348425540
H           -2.53770973174707       -2.57466134004852       -0.07016300403397
H            1.30509462097055       -2.93487051112691        0.00404891775458
25
 energy: -5.397340056260 xtb: 6.6.1 (8d0f1dd)
C            3.23936494905827        1.17922735470135        0.12332534836310
N            2.32526952240435        0.08552359914569       -0.02661928384805
C            2.58233729588953       -1.26941565588758        0.01809270608729
N            1.38744284242088       -1.92915908456344        0.01057829152269
C            0.38238825237493       -1.03974198568968       -0.02344133788572
C            0.92861632831330        0.24196941367734       -0.03361091361671
C            0.12056055170976        1.38891314493380       -0.06149388218397
O            0.42120460720782        2.57758289124371       -0.07656055624671
N           -1.30226307328173        1.02995062099947       -0.06226384832564
C           -2.20490991237566        2.16556736924340       -0.06143552941047
C           -1.85196660612810       -0.21184013609865       -0.05879842279684
O           -3.04413642990341       -0.43043510496925       -0.06953876415082
N           -0.94760435824441       -1.29204251313006       -0.03696275616418
C           -1.42544133940296       -2.65534731390349       -0.04188370795899
H            3.82954947101239        1.07987887037604        1.05456945956760
H            3.93345710493615        1.24183069033411       -0.73978582932547
H            2.64210144952500        2.10918215064709        0.16886317223175
H            3.53490830979024       -1.74706642034431        0.02627015983743
H           -1.56387017917248        3.04643515515554       -0.06711543473212
H           -2.84446102341874        2.16070461347852       -0.94410676189619
H           -2.83226282976993        2.16645711131273        0.83096716905328
H           -1.09549160597049       -3.17893887877134        0.85914946180753
H           -1.06350107472800       -3.18263100396284       -0.92832046081386
H           -2.51401711485097       -2.61737573826100       -0.06169679762969
H            1.27493953054034       -2.93020054749511        0.02885241466201
25
 energy: -5.577570241352 xtb: 6.6.1 (8d0f1dd)
C            3.23679570334538        1.17794409835903        0.12803000365256
N            2.32350942733672        0.08580287315149       -0.03117198391656
C            2.58129411125806       -1.26752668979828        0.01664685789588
N            1.38696114702147       -1.92958517404350        0.00971255887003
C            0.38109245552454       -1.03923761460945       -0.02626023729564
C            0.92764179582755        0.24155242962811       -0.03941808452200
C            0.12018735490376        1.38973877792912       -0.06751461818785
O            0.42719329810213        2.57751468953565       -0.08357008216788
N           -1.30099665647849        1.03136513712721       -0.06549493015716
C           -2.20454443965631        2.16705256789014       -0.06184964321822
C           -1.85293246850396       -0.21009579237478       -0.05983552128059
O           -3.04536051398382       -0.42706218312384       -0.06835569940598
N           -0.94877225075278       -1.29201433279776       -0.03781232336218
C           -1.42348767850687       -2.65643456073494       -0.04002765161163
H            3.83202129958689        1.06734732335356        1.05099859631719
H            3.92339280535469        1.25030503964843       -0.73466496040093
H            2.64218064684982        2.10322698593914        0.18620055926975
H            3.53403805354994       -1.74434484888007        0.02315516106297
H           -1.56636343238899        3.04950029965220       -0.07193982939517
H           -2.84817732518550        2.16047212452746       -0.94122112047052
H           -2.82658498848966        2.16844281460012        0.83385541934068
H           -1.09099384405400       -3.17721521918482        0.86181503597671
H           -1.05881890739206       -3.18418286848773       -0.92516862601772
H           -2.51179347514238       -2.62347048671640       -0.05985819820072
H            1.27473254980999       -2.93006678841807        0.03078321337223
25
 energy: -5.108665603454 xtb: 6.6.1 (8d0f1dd)
C            3.21846589026153        1.16834811356587        0.17260699043594
N            2.31254827266621        0.08671565171933       -0.08150789997001
C            2.57130363446366       -1.26030872460384        0.00324872987545
N            1.37643392823482       -1.93161932335545        0.00392525313011
C            0.37025233713903       -1.03398636697324       -0.05256875806243
C            0.91963379477626        0.24046424167214       -0.09483404217431
C            0.11735624060257        1.39343335298726       -0.12589519877915
O            0.45828351135294        2.57785304697525       -0.15442507450437
N           -1.29749870074710        1.03917953149894       -0.09843499191919
C           -2.19873982140477        2.18098998082477       -0.06965827968184
C           -1.86279882216441       -0.19849108453236       -0.07044110999608
O           -3.05630968200364       -0.40803222067815       -0.05867013588773
N           -0.95954869995759       -1.29013625450078       -0.04534182518421
C           -1.40244292727162       -2.66515063133599       -0.02035714284393
H            3.87985655252605        0.92833879707896        1.02122270387404
H            3.82867638637491        1.36893248761052       -0.71838227986090
H            2.62605876329002        2.06247756413617        0.39446859220682
H            3.52244858502956       -1.73771306341572       -0.00666292876002
H           -1.56604597039854        3.06669796915933       -0.12413265194001
H           -2.88401108543076        2.16440516799482       -0.91701058591493
H           -2.77207489142856        2.19885290872458        0.85855195789099
H           -1.04765001508177       -3.15776636875242        0.89087999622045
H           -1.01258707926650       -3.19875899864440       -0.89269668796078
H           -2.48915403975807       -2.67758408851767       -0.04133044507279
H            1.25975850613180       -2.92811308646590        0.05447971102611
25
 energy: -3.286118762785 xtb: 6.6.1 (8d0f1dd)
C            3.20195178629400        1.15571915508629        0.23205433572315
N            2.29739708364534        0.09740493543798       -0.14491444114918
C            2.56820472432189       -1.25287271398094       -0.00880226462160
N            1.36435333157143       -1.93588663830955       -0.01024266626531
C            0.36424352179105       -1.03158550936281       -0.09184435605951
C            0.90700312422860        0.23670501134396       -0.16793350579300
C            0.10440051019914        1.39016225383774       -0.20049972358397
O            0.49838751620738        2.57062333640475       -0.24405583131601
N           -1.28956844746638        1.04965611990426       -0.14193961445134
C           -2.19378784235308        2.19186893959937       -0.07999417729815
C           -1.86545393492057       -0.18236109581157       -0.08376570101548
O           -3.06278953848578       -0.37550055900436       -0.04302837274122
N           -0.97213260164296       -1.28711319074044       -0.06036191482368
C           -1.38706241900697       -2.66767774334053        0.00611841320708
H            3.93370046234709        0.76591126711235        0.97506058720251
H            3.72018831013794        1.52590556265926       -0.67707405083763
H            2.61816540529568        1.99841786266523        0.66265664810329
H            3.52195085523404       -1.71998378159176       -0.05261073867796
H           -1.57076196486139        3.08416982184277       -0.20010399546980
H           -2.93972884787896        2.14617158353287       -0.87892758679806
H           -2.69939524649254        2.22360682168146        0.89129861023231
H           -1.01211126499493       -3.12511096626227        0.93078067726649
H           -0.97487441811888       -3.21710286900486       -0.84807484546706
H           -2.47013249167729       -2.72390114815169       -0.01408001515625
H            1.25006705456206       -2.92819785337545        0.07731842593758
25
 energy: 18.365073037896 xtb: 6.6.1 (8d0f1dd)
C            3.23023956838776        1.14529678302575        0.27234917499125
N            2.27532308245214        0.16665410763367       -0.16495607910633
C            2.62209377019497       -1.25852867146608        0.02458079321240
N            1.35911281061813       -1.94796107410723       -0.05404298306188
C            0.40618776883900       -1.05471102006957       -0.14152679095697
C            0.87983699898931        0.22140475469836       -0.21435443783076
C            0.03222360638374        1.33978296009477       -0.23335664533871
O            0.52542197644783        2.51982349010303       -0.27845793959185
N           -1.26478285057302        1.06175522653085       -0.16886797870725
C           -2.20407680734263        2.16301032951346       -0.08326552133479
C           -1.80756949975410       -0.16419202669991       -0.08758527036934
O           -3.02311678608039       -0.30317096534420       -0.01737217014810
N           -0.97539052066280       -1.28137809416523       -0.10007946953202
C           -1.43920319936311       -2.62149866743317        0.02323835088989
H            3.90142433846795        0.79458985046011        0.88761955621476
H            3.73163714992352        1.60891845237077       -0.51621281942997
H            2.69901814955206        1.87421822935246        0.77366918251568
H            3.60450922386929       -1.65154083870135       -0.12324159540283
H           -1.60245060841440        3.07192530166830       -0.27696255624477
H           -3.01485626931943        2.01458130610580       -0.81719139591883
H           -2.64948197915917        2.15565807314224        0.91019126077044
H           -1.09623139620444       -3.06833827432228        0.95914869546761
H           -1.06440770454446       -3.22225639537454       -0.81156622172033
H           -2.51151661778108       -2.63194609906135        0.01568236821557
H            1.29827046300925       -2.94306813578262        0.04959438856435
25
 energy: -1.602182278378 xtb: 6.6.1 (8d0f1dd)
C            3.20560408567811        1.15266216852362        0.27452388987166
N            2.28945467428130        0.12773056719810       -0.17117425110030
C            2.60022937059781       -1.24145399302613        0.00089097764835
N            1.38032017539896       -1.94685091578714       -0.04248803845276
C            0.38595793879785       -1.04608104923100       -0.13590099611361
C            0.90110064939552        0.22336948663952       -0.21525418054065
C            0.07885475370200        1.36821424747843       -0.24700553053781
O            0.53528106919154        2.54125039038513       -0.28954812852227
N           -1.26908365530942        1.05666441383946       -0.17250202708004
C           -2.20389423131806        2.16752939539736       -0.08985601930223
C           -1.83645397991660       -0.17025509135602       -0.09149642790731
O           -3.04131597490098       -0.32906357071239       -0.02042037339705
N           -0.96958602474312       -1.28418602888593       -0.09250024485789
C           -1.42982728971775       -2.63679837628744        0.02703314740716
H            3.96257647258744        0.70656463236452        0.93135625999523
H            3.70148265338096        1.62926810864629       -0.57354555609418
H            2.65288907131731        1.92923327224270        0.81729891189815
H            3.57455976346875       -1.66039748450281       -0.11682536212184
H           -1.61516220520390        3.07887496132987       -0.28009953598423
H           -3.00662620899449        2.03804366147793       -0.83277348707359
H           -2.64821469949199        2.17797841663040        0.91266810436484
H           -1.07741068622114       -3.07346223559927        0.96833542650832
H           -1.04672530086118       -3.22995309360924       -0.80916052969305
H           -2.50706136885686       -2.65099224558790        0.01595828973655
H            1.29526561567379       -2.93886103539599        0.05951957749575
25
 energy: -2.770748208172 xtb: 6.6.1 (8d0f1dd)
C            3.18732088616073        1.14149995071315        0.30035102754213
N            2.29427743317435        0.11482428832616       -0.18503425395072
C            2.57571433163022       -1.24531589178656        0.00240556149214
N            1.36373911089688       -1.93801674459396       -0.03775212001782
C            0.37199494979008       -1.03401800406235       -0.13972527780259
C            0.90624799171918        0.23312429833937       -0.23390212006354
C            0.08766511637111        1.38381332243873       -0.27937148499162
O            0.50733098841610        2.55618498734147       -0.32773104829975
N           -1.28091208318363        1.05871634302914       -0.18868880299974
C           -2.19104353746348        2.19514920987345       -0.08991201271460
C           -1.85335256086561       -0.17803372957671       -0.09757260408401
O           -3.05313952073471       -0.35485463226550       -0.01788729946789
N           -0.97102656482951       -1.28063135445198       -0.09710025681937
C           -1.38730731612860       -2.65732540892734        0.03505677739562
H            3.96855112528590        0.66020891429127        0.91176962092509
H            3.62724194466844        1.67546910782965       -0.56893458971327
H            2.63052623638804        1.88043970166635        0.89299276096166
H            3.53227694127637       -1.69367705027293       -0.15131271241188
H           -1.59439969731327        3.08662806950869       -0.26991393639643
H           -2.98553373012643        2.11170315842640       -0.82539773325668
H           -2.62887624995269        2.24531906749729        0.90893705311786
H           -1.00796343262346       -3.07702562578394        0.97778897285289
H           -0.97490289799938       -3.24465180183454       -0.79403298721084
H           -2.47404572029386       -2.72119419993130        0.01853797494103
H            1.26183092367305       -2.92930737362194        0.08346338711950
25
 energy: 0.121850423444 xtb: 6.6.1 (8d0f1dd)
C            3.16489873717301        1.13001762923311        0.35263635401505
N            2.29439744276054        0.11511191299526       -0.21739978231074
C            2.56304747257338       -1.24314299062309        0.00830332810340
N            1.35256132791817       -1.93192293762854       -0.04925659987729
C            0.36535122103751       -1.02653663569908       -0.16719800129483
C            0.90653431693424        0.23723097979639       -0.28040477324740
C            0.08677725514766        1.39047636462035       -0.34008441190431
O            0.49824830584033        2.55998322442622       -0.40891379199625
N           -1.28426695663632        1.06332903396303       -0.22165604052851
C           -2.18105867673359        2.21286108794283       -0.09768197685754
C           -1.85986531134807       -0.17927365329824       -0.10665531521518
O           -3.05713937601061       -0.35899329590783       -0.00407129433189
N           -0.97352066527887       -1.27650943402329       -0.11645895217606
C           -1.35717138126990       -2.66520516091144        0.05465408210774
H            4.00044908112829        0.56446959788830        0.85947388691067
H            3.52296540647003        1.77529276762792       -0.50012997309193
H            2.61520756424020        1.79664504127400        1.09054100381997
H            3.50631870592643       -1.70321240298656       -0.23282312550757
H           -1.58429478259910        3.09728175710666       -0.32397728540598
H           -3.01815299202504        2.13194024178107       -0.79202457074350
H           -2.56508028746517        2.29848027618261        0.92964110731569
H           -0.96136836606216       -3.05083425089835        1.00814822479229
H           -0.92575334752126       -3.26408474010639       -0.75822873981574
H           -2.44346167396628       -2.76447706862673        0.03886532975592
H            1.24659164770235       -2.91989874195617        0.10173521363115
25