25
 energy: 0.000000000000 xtb: 6.6.1 (8d0f1dd)
C            3.23720163006194        1.16630919979326        0.08434469647475
N            2.29877817382611        0.07527477071623        0.03981603040599
C            2.58028210190900       -1.21425402444508        0.03006176031096
N            1.43813958087363       -1.93419271955128        0.00098261760884
C            0.39035688448383       -1.05887472636071       -0.00790371836672
C            0.93510056364412        0.21347819449412        0.01709077491437
C            0.09450143893243        1.40504303904423       -0.00410947031874
O            0.49712751527797        2.54126714362870       -0.00342325688240
N           -1.25076640035757        1.06271879480407       -0.03085478223738
C           -2.21907211982101        2.15522099834493       -0.05001256985998
C           -1.81739487048744       -0.20012725993278       -0.04692818574614
O           -2.99983886758376       -0.37846417018721       -0.07008878229737
N           -0.92618586207120       -1.30210215599479       -0.03682761578324
C           -1.46982264913417       -2.64643102187190       -0.06029820460571
H            3.71247264356769        1.21471455160235        1.06488849150277
H            4.00791497605742        1.03430808813993       -0.67357694370751
H            2.69910007168542        2.09770118228144       -0.09130154882931
H            3.56654120610678       -1.63682992603973        0.04233140067262
H           -1.67107961066214        3.09322851271934       -0.02552706933167
H           -2.82428953597071        2.09428624779827       -0.95318082946668
H           -2.87644029173232        2.07745725625962        0.81450067533302
H           -1.17061996399332       -3.19584890659852        0.83242232437030
H           -1.14560257411436       -3.17511610292205       -0.95688275822323
H           -2.55549792440841       -2.55659984320617       -0.07459039797972
H            1.38130855184625       -2.94313852034425       -0.01389874181052
25
 energy: -5.360841365274 xtb: 6.6.1 (8d0f1dd)
C            3.24020740061626        1.17799488137856        0.08706102438702
N            2.30628154960837        0.09456582103033        0.03815254126278
C            2.59939459383012       -1.23310728072392        0.02956592365078
N            1.42798728596837       -1.94198254323290        0.00051012154213
C            0.39559257059316       -1.05880851772252       -0.00774573203090
C            0.92847250262231        0.22017031027559        0.01618513876213
C            0.10003654719896        1.39355341392917       -0.00413778006620
O            0.49665637182832        2.55924218913756       -0.00315734546709
N           -1.26181296600666        1.05023862022112       -0.03123273060561
C           -2.21827476297959        2.15216132459829       -0.05169779113247
C           -1.82471206287657       -0.20097787929542       -0.04678247195526
O           -3.02177505869995       -0.37821895055217       -0.07067652005842
N           -0.93533161768857       -1.30351854853355       -0.03637391855936
C           -1.46889891094615       -2.64783796571375       -0.05984698693657
H            3.71972223313034        1.22379061073649        1.06845600099813
H            4.00710362746442        1.04542095775201       -0.67739823416369
H            2.69121894480965        2.10167767804322       -0.08661936091131
H            3.57827843459109       -1.65798356270818        0.04147132270582
H           -1.65224097744728        3.07974774411133       -0.02690605026957
H           -2.82769564255668        2.10648963229342       -0.95383969715578
H           -2.87470200657037        2.09118024913919        0.81443742211779
H           -1.16337482195394       -3.19917047509977        0.83171280091622
H           -1.13829066913402       -3.17813673867117       -0.95530782944730
H           -2.55435036200614       -2.56164510369144       -0.07429698406679
H            1.36272246454077       -2.94581726452948       -0.01449896736918
25
 energy: -6.482700130661 xtb: 6.6.1 (8d0f1dd)
C            3.23976456181560        1.18530304553413        0.08981434631502
N            2.30877199675913        0.10456314357174        0.03545807763326
C            2.60767998317962       -1.24649087821173        0.02887379137068
N            1.41617045945448       -1.94311697630750        0.00023503766661
C            0.39702376749944       -1.05862231646516       -0.00751012831641
C            0.92134405694376        0.22427009881397        0.01525827412530
C            0.10360734228301        1.37861191593421       -0.00441358211125
O            0.48451636366999        2.55854054129654       -0.00280492702423
N           -1.27426782402561        1.03966963060948       -0.03237726542766
C           -2.21385340391513        2.15413884024926       -0.05359591685254
C           -1.82913057242886       -0.20293646687648       -0.04702966009307
O           -3.03055449106826       -0.38155716181886       -0.07125730584442
N           -0.94324434412172       -1.30389014980695       -0.03549851607304
C           -1.46483079114004       -2.65032490714953       -0.05893916569599
H            3.72807236657678        1.23322626218719        1.06872438735722
H            4.00402397502878        1.06444538544276       -0.68107791227297
H            2.68205881254891        2.10539898444538       -0.07611419174264
H            3.58098885605542       -1.67437998730134        0.03980572267535
H           -1.62228167506785        3.06690612317475       -0.03087953403695
H           -2.82799470786008        2.12426009183498       -0.95386525286646
H           -2.86914443811082        2.11307144365507        0.81476367987488
H           -1.15325278642766       -3.20300038937811        0.83131320056423
H           -1.12794299090344       -3.18164278558463       -0.95308833277260
H           -2.55067623625666       -2.57233675932019       -0.07370487743363
H            1.34536638744743       -2.94507812635697       -0.01505605287142
25
 energy: -6.530348113837 xtb: 6.6.1 (8d0f1dd)
C            3.23580661410895        1.18790664590454        0.09153388067951
N            2.30802219589731        0.10450673443610        0.03336296778507
C            2.60673927211269       -1.25248410837939        0.02814794065661
N            1.41062255251376       -1.94329903672992        0.00010913074272
C            0.39558547824723       -1.06021334753197       -0.00724396772149
C            0.91801113372365        0.22413851372876        0.01497570129246
C            0.10393010824945        1.37309938292033       -0.00453055761087
O            0.47410202382430        2.55572968779178       -0.00233110015989
N           -1.28175685161427        1.03648556292568       -0.03354666544002
C           -2.20876729662260        2.15966940250669       -0.05526912570174
C           -1.83238081463423       -0.20537359460491       -0.04728480175002
O           -3.03343089668795       -0.38721240997832       -0.07176676744411
N           -0.94655957430216       -1.30481935348461       -0.03453031916499
C           -1.45998407821245       -2.65388885540568       -0.05793110688327
H            3.73133282037375        1.23527354171011        1.06732549307508
H            3.99739695618315        1.08087241820494       -0.68465790357313
H            2.67277217151523        2.10742602629955       -0.06429744329184
H            3.57845546545012       -1.68269892490792        0.03765386645747
H           -1.59903902091842        3.06124767938014       -0.03637290406922
H           -2.82568451477498        2.13878108924548       -0.95376153799809
H           -2.86176412844259        2.13316547619840        0.81545823918597
H           -1.14431603592095       -3.20545778912919        0.83197868961700
H           -1.11877618596982       -3.18403674818806       -0.95156763528286
H           -2.54638726728930       -2.58421362132896       -0.07294891794433
H            1.33828454112633       -2.94557576941156       -0.01547125930872
25
 energy: -6.373384024946 xtb: 6.6.1 (8d0f1dd)
C            3.22607531786426        1.19087004812552        0.09466645219166
N            2.30579610585449        0.10057411771527        0.02986674101009
C            2.60219790345577       -1.25949533602408        0.02660335174681
N            1.40443688000554       -1.94435842766527       -0.00027452957383
C            0.39171155601413       -1.06374323770479       -0.00679918141030
C            0.91404610048900        0.22173142584722        0.01475261302513
C            0.10391277777954        1.36781418461594       -0.00452106736992
O            0.46090413374603        2.55142391515042       -0.00096467880254
N           -1.29138544360927        1.03372972154793       -0.03562188053591
C           -2.19905287063093        2.17072901934350       -0.05877231735934
C           -1.83832274847179       -0.20919390123731       -0.04765799133772
O           -3.03786860722094       -0.39630805528086       -0.07271627214856
N           -0.95079918946134       -1.30681086407431       -0.03258947428392
C           -1.45102715779538       -2.66100993798332       -0.05581486445003
H            3.73409436801926        1.23211207770113        1.06459304682504
H            3.98060322854653        1.10934855427631       -0.69253126655638
H            2.65246986363802        2.10885523991531       -0.03997494841027
H            3.57250820224071       -1.69307247134477        0.03277979158394
H           -1.56323214863115        3.05549313407802       -0.04878211689054
H           -2.82098865502308        2.16243149749552       -0.95359866245942
H           -2.84642108875612        2.16930651341637        0.81683218397523
H           -1.12811295846912       -3.20913429672976        0.83397892628031
H           -1.10221986398660       -3.18786919558900       -0.94884599801633
H           -2.53832387506293       -2.60696108999197       -0.07124135092371
H            1.33121283740158       -2.94743403343102       -0.01633260996222
25
 energy: -6.028780994042 xtb: 6.6.1 (8d0f1dd)
C            3.21231211721274        1.19362458308260        0.09913043852547
N            2.30258523628822        0.09432405418993        0.02592914073871
C            2.59596186024630       -1.26474550700396        0.02427315304659
N            1.39974800387158       -1.94670797569461       -0.00125749261256
C            0.38634711040643       -1.06800996516275       -0.00646275808935
C            0.91051722391518        0.21738560985836        0.01456655304251
C            0.10431092321225        1.36384558332928       -0.00415487843589
O            0.45393860848883        2.54683632170365        0.00167099229873
N           -1.29868722856825        1.03211687484955       -0.03794590246984
C           -2.18720399853001        2.18362786989707       -0.06398005906353
C           -1.84522716419170       -0.21217060086234       -0.04797241293359
O           -3.04311238031317       -0.40367658275131       -0.07387486635974
N           -0.95513652831784       -1.30924192836053       -0.03004973198894
C           -1.44080114291759       -2.66960224402562       -0.05277843382370
H            3.73625148761865        1.22131329181710        1.06115779615388
H            3.95469422945383        1.14334183710249       -0.70362795225642
H            2.62404497641526        2.10807516776194       -0.00588497489923
H            3.56542137747223       -1.70126572239408        0.02528453760295
H           -1.52835354420445        3.05243919960686       -0.06760361237306
H           -2.81613039123248        2.18575106422549       -0.95340416623688
H           -2.82544549161377        2.21134244121942        0.81837419717922
H           -1.10893846769597       -3.21265947553051        0.83715262022818
H           -1.08281162792838       -3.19199500964942       -0.94513352240737
H           -2.52876781514667       -2.63449157543172       -0.06858952863384
H            1.32669729399496       -2.95042870960485       -0.01778524008503
25
 energy: -5.371523004625 xtb: 6.6.1 (8d0f1dd)
C            3.19127190741258        1.19730829237879        0.10706875827125
N            2.29751993873060        0.08541375177109        0.02058314522417
C            2.58758933342453       -1.26951441541684        0.02017350849127
N            1.39494899989653       -1.95128180252849       -0.00377939045385
C            0.37863548640156       -1.07391167831327       -0.00649352154359
C            0.90617502136822        0.21016099005570        0.01416690215120
C            0.10548786330878        1.35915136021405       -0.00294608996020
O            0.45470319529586        2.54048977240284        0.00738767039002
N           -1.30454469357382        1.03123758648027       -0.04095088027215
C           -2.17070487795775        2.20049053508195       -0.07312638773673
C           -1.85408387321915       -0.21392792574063       -0.04826610552510
O           -3.05017855606140       -0.40880774702977       -0.07556214624198
N           -0.96104133869069       -1.31258915083105       -0.02622756888207
C           -1.42762806191473       -2.68111988594779       -0.04763708584338
H            3.74109062046363        1.19863228829577        1.05546704056145
H            3.91086753589853        1.19334242738654       -0.72077881835607
H            2.58049664031266        2.10444265594531        0.05069785149579
H            3.55641568293005       -1.70894931643911        0.01182510963083
H           -1.48830561670992        3.05146420966794       -0.10114148728650
H           -2.81195652341029        2.20992046548987       -0.95286932299659
H           -2.79193980238853        2.26843602632241        0.82027736299820
H           -1.08288585019322       -3.21637316753814        0.84264485297411
H           -1.05687303368119       -3.19729512092375       -0.93887959169975
H           -2.51582171068838       -2.67226445496803       -0.06372498846320
H            1.32297638098171       -2.95542709364365       -0.02087492077984
25
 energy: -4.351321643127 xtb: 6.6.1 (8d0f1dd)
C            3.16472604214732        1.20186079907188        0.11963589671877
N            2.29075975230436        0.07561483968879        0.01425794971664
C            2.57862992172669       -1.27307591112983        0.01405218049651
N            1.39040716865390       -1.95805007988132       -0.00896668259723
C            0.36974586102735       -1.08098932753832       -0.00765020426045
C            0.90114060802526        0.20061600986464        0.01321173813701
C            0.10680203714204        1.35361154128700       -0.00010089749769
O            0.46546238091843        2.53258188445679        0.01826646380121
N           -1.30733073554792        1.03167394308503       -0.04420904331068
C           -2.15127098142646        2.21899476865408       -0.08703062587568
C           -1.86325544401542       -0.21321921869398       -0.04848519672621
O           -3.05793385597546       -0.40885135051778       -0.07773179574639
N           -0.96816484538677       -1.31655521513302       -0.02141383837990
C           -1.41352524385332       -2.69392834854846       -0.04005089342661
H            3.75190227627136        1.16351840790017        1.04630514682630
H            3.84855345308523        1.25818173294344       -0.74124052859757
H            2.52698908876307        2.09699015340408        0.13159914171636
H            3.54709622227631       -1.71474363923384       -0.00934274089704
H           -1.44906848697080        3.05274507045306       -0.15368549734598
H           -2.81265089786125        2.22650652398586       -0.95099195084819
H           -2.74486661198154        2.33581579056658        0.82216662189773
H           -1.05316538643439       -3.21909126278274        0.85078615762254
H           -1.02825070450640       -3.20321558537858       -0.92966710991992
H           -2.50091975461747       -2.71571276045760       -0.05584776209348
H            1.32040280417198       -2.96225016389392       -0.02683263326284
25
 energy: -3.254054174902 xtb: 6.6.1 (8d0f1dd)
C            3.13873941253366        1.20604138002515        0.13664283203753
N            2.28336965442465        0.06816165645057        0.00833386637985
C            2.57164834731758       -1.27346185906334        0.00673627790695
N            1.38777314238934       -1.96568190210377       -0.01785280425973
C            0.36207887992708       -1.08752025975136       -0.01114181927680
C            0.89646391602813        0.19087677240874        0.01119035352066
C            0.10652289886272        1.34866079108975        0.00533605264500
O            0.48532269870871        2.52492311655988        0.03636167783136
N           -1.30475453063894        1.03408105441976       -0.04674502196440
C           -2.13347527966671        2.23406236753370       -0.10460879456882
C           -1.86983450275829       -0.20908637286211       -0.04860988104291
O           -3.06415516865124       -0.40099239998100       -0.08001678891132
N           -0.97480938102347       -1.32025494957853       -0.01686626220762
C           -1.40258578769277       -2.70453648701862       -0.03064971856810
H            3.76914266303637        1.12129106823775        1.03331348049797
H            3.77667009225704        1.32497153725247       -0.75578516400405
H            2.47969731347697        2.08441901686215        0.22504035971645
H            3.54019835263743       -1.71556462715664       -0.03806214322314
H           -1.42348890307752        3.05611331339069       -0.22421414497758
H           -2.82411645428562        2.22348152909953       -0.94553071868636
H           -2.68830102497746        2.39968022956355        0.82337632780066
H           -1.02737501402677       -3.21896403042455        0.86091802333685
H           -1.00553195851743       -3.20841842866843       -0.91838867417805
H           -2.48765208257548       -2.75379197660838       -0.04479196958170
H            1.32066738422808       -2.96946193750497       -0.03695145007547
25
 energy: -2.515635274361 xtb: 6.6.1 (8d0f1dd)
C            3.12024784636001        1.20842982376742        0.15906483812610
N            2.27657401434670        0.06675721502439        0.00403768567795
C            2.56963300774968       -1.26914703006252       -0.00083108251974
N            1.38832706152996       -1.97274189165439       -0.03240736582671
C            0.35819805295343       -1.09153793948676       -0.01889839049054
C            0.89303922344867        0.18340401095517        0.00761432130685
C            0.10198555986035        1.34516474836378        0.01528176122157
O            0.51063359748956        2.51934843467786        0.06519930064447
N           -1.29470216668177        1.03831852338628       -0.04784291791050
C           -2.12137837311403        2.24064807099927       -0.12571523622733
C           -1.87107199931808       -0.20085762909988       -0.04878836330772
O           -3.06700757918629       -0.38230304348746       -0.08239452711317
N           -0.97943960573662       -1.32280079856612       -0.01405872585574
C           -1.39880350585509       -2.70954861658095       -0.01948347118150
H            3.79464295616954        1.07580738842175        1.01558041852789
H            3.70345616409036        1.38419589744893       -0.75491339398027
H            2.45470199838696        2.06439694725775        0.32444477721884
H            3.53848124603845       -1.70871301762918       -0.07688213724218
H           -1.42260727383936        3.05997524880881       -0.31793320830928
H           -2.85477700243049        2.18701765022375       -0.93185901307140
H           -2.62322808864427        2.45082306980426        0.82313784771733
H           -1.01241747154300       -3.21394545214897        0.87302815248843
H           -0.99726966539966       -3.21227864011156       -0.90525719970071
H           -2.47992275774797       -2.77591863047100       -0.02933985337697
H            1.32491942900901       -2.97546573766864       -0.05375032066843
25
 energy: -1.142239837139 xtb: 6.6.1 (8d0f1dd)
C            3.10581010468807        1.21064946630562        0.18953694718123
N            2.27069148119824        0.06799788980262       -0.00086171529879
C            2.57042151569302       -1.26940447063457       -0.00958075576569
N            1.38587943573851       -1.97915518651863       -0.05263132463058
C            0.35619379688037       -1.09529059438844       -0.03003600667851
C            0.88861818840790        0.17746192955033        0.00478761972938
C            0.09361537096374        1.33795327669043        0.03090018695642
O            0.52081252477759        2.51236313320648        0.10301238008841
N           -1.28742102853043        1.03993940268698       -0.05066761832214
C           -2.10774325957238        2.24717512519726       -0.15442748309066
C           -1.87171514237669       -0.19405655173572       -0.04990383345080
O           -3.07014149084991       -0.36418397149870       -0.08690186918755
N           -0.98476971247997       -1.32513917672786       -0.01183765330780
C           -1.39509440494984       -2.71400703604973       -0.00409608881493
H            3.83902422189755        1.01880316028977        0.99061967540194
H            3.61863278797055        1.47060679617252       -0.75520488749960
H            2.43212315280596        2.04075797606586        0.46445018864980
H            3.53737245984052       -1.70641877821253       -0.13193275318399
H           -1.41398059142398        3.05492894051627       -0.44838765118385
H           -2.90003130065396        2.13789714956636       -0.90790580867029
H           -2.54024527947095        2.52554786370436        0.82034914164349
H           -0.99588802692393       -3.20693106760669        0.88989801521623
H           -0.99118273299850       -3.21969295923135       -0.88709014871733
H           -2.47363851792793       -2.79775858089249       -0.00705568945307
H            1.32487111523247       -2.98101513408612       -0.07799897146413
25
 energy: -1.330965615262 xtb: 6.6.1 (8d0f1dd)
C            3.13441961404705        1.20484909025643        0.22053306040775
N            2.27391764708591        0.09011558522932        0.00152463441609
C            2.59062156629310       -1.26620355688938       -0.00907004751218
N            1.38821367135805       -1.97650528321240       -0.08021831401542
C            0.37095233729561       -1.08734069761662       -0.04973176119829
C            0.89087820745590        0.18648116687362        0.00186312473798
C            0.07438792137441        1.33480250045182        0.05766511328957
O            0.50709419487826        2.51421956072529        0.15166996511541
N           -1.27023011498716        1.04079695011086       -0.05150515589854
C           -2.11976360123189        2.22369756711963       -0.18079463460665
C           -1.85459765183610       -0.18525746822100       -0.05420102526217
O           -3.06062963422972       -0.33408758051458       -0.09301975928232
N           -0.97994874911355       -1.32089867718685       -0.01886391715899
C           -1.41489892731799       -2.69681022955172        0.01135083370394
H            3.90006255757988        0.98549108084891        0.95463211788580
H            3.58528906403625        1.51011341140176       -0.71034952738913
H            2.50154949832832        2.00593920108409        0.56794433253839
H            3.55223443644388       -1.69328013497095       -0.19867822904753
H           -1.47842055479382        3.03498849957305       -0.57943646335427
H           -2.97495602411443        2.02499750851332       -0.86105873652621
H           -2.48002356287375        2.53460693238994        0.79826382764500
H           -1.02185737120721       -3.18795058025422        0.90732503693170
H           -1.03624432952845       -3.22475571537545       -0.86928689130154
H           -2.49260133640689       -2.75202140331389        0.02201048542471
H            1.32676580940028       -2.97695912529900       -0.11153417339595
25
 energy: -1.006588798592 xtb: 6.6.1 (8d0f1dd)
C            3.12835816429091        1.20622070431567        0.24215522158162
N            2.27314912844826        0.08884233641961       -0.00258729163504
C            2.59155040101947       -1.27500209437842       -0.01051354442078
N            1.38229642799642       -1.97732419263662       -0.09439507359714
C            0.37072296822010       -1.08968007460306       -0.05637286970949
C            0.88970719377990        0.18428587437838        0.00495080217916
C            0.07236641058513        1.32844891098573        0.07378091103949
O            0.49083372552119        2.50718533588622        0.17836599351495
N           -1.27616981312322        1.03858457133247       -0.06036829413178
C           -2.11171395919271        2.22934471726965       -0.20719719056950
C           -1.85668530179493       -0.18964612984809       -0.06021711385366
O           -3.06235237711556       -0.34033057992056       -0.10090400827115
N           -0.98222015433945       -1.32105977983023       -0.01914703812311
C           -1.41012718976682       -2.69943391623744        0.02763409841412
H            3.95283624425244        0.93523227153401        0.92336949905576
H            3.52122922193123        1.60049428793904       -0.71929125023695
H            2.49152555564433        1.99204349546021        0.69751743019519
H            3.54710099144345       -1.69954798265810       -0.25205041113106
H           -1.47041774225024        3.01143220824782       -0.65978165392438
H           -2.98862334082596        2.01542393567798       -0.84451898026671
H           -2.42920190499103        2.60148320709633        0.77477637158920
H           -1.00805493010783       -3.18094293114162        0.92646557355966
H           -1.03430928526958       -3.23638693590239       -0.84975164175167
H           -2.48984853417525       -2.76214961209589        0.04568691888836
H            1.32026276775569       -2.97848902511870       -0.13057256224793
25
 energy: -1.772268055522 xtb: 6.6.1 (8d0f1dd)
C            3.13456802951418        1.20655772472861        0.24543306375528
N            2.28044180270706        0.08332267690899       -0.00176737653414
C            2.59170063047751       -1.28956931999900        0.00577562339736
N            1.37731498352521       -1.96767792897819       -0.09917106395671
C            0.37275569044573       -1.08841615298957       -0.05556303688746
C            0.89565484164711        0.18849045169880        0.01477183780616
C            0.08424352728382        1.32934071129605        0.08248104296932
O            0.44545564428056        2.50341153476491        0.18705400968539
N           -1.29996938985669        1.03083053648638       -0.07559944057975
C           -2.11819436346973        2.22890588795108       -0.21833473549185
C           -1.86065965453909       -0.21304730129816       -0.06975604805074
O           -3.06031116509855       -0.38770910269126       -0.10870934466804
N           -0.97685631768605       -1.31738022413515       -0.02668544555687
C           -1.40696176795365       -2.69719132076165        0.03795052358374
H            3.97502086166365        0.92632456566095        0.89808578935748
H            3.52241586930903        1.64398023268192       -0.70785126918335
H            2.51654265259544        1.99152711247404        0.73638465777084
H            3.53432103283923       -1.70658987085671       -0.29426717115674
H           -1.46395012366739        2.96440623678511       -0.65718397662062
H           -2.96169242141039        2.05588928957512       -0.83426121137068
H           -2.43729833527258        2.64410362195238        0.74400682828658
H           -1.00377136032660       -3.17495634035905        0.94045472144819
H           -1.04510574520196       -3.25005825480420       -0.83710300248077
H           -2.49579526761354       -2.74376075064247        0.06436283657715
H            1.31234501374357       -2.97170541327691       -0.14347391595261
25
 energy: -1.362489624850 xtb: 6.6.1 (8d0f1dd)
C            3.13148404294996        1.20532514137372        0.28171055104400
N            2.28088698780449        0.08313492173597        0.00179051294671
C            2.59333667520213       -1.28784023102069        0.01791788420636
N            1.38080975464942       -1.96441944431328       -0.12575179527679
C            0.37355376885783       -1.08696889479735       -0.06903506895925
C            0.89943912012292        0.18809316702540        0.01670369304038
C            0.08393846544790        1.33277009554287        0.09889245832237
O            0.43517382706714        2.50192077191544        0.24092183661016
N           -1.29929655544968        1.03021501312581       -0.08386034407751
C           -2.11394240545926        2.22825894457765       -0.24950945741719
C           -1.86004767334235       -0.21989368833868       -0.07431749604456
O           -3.05812590318660       -0.39749105407372       -0.11662521657861
N           -0.97273377731941       -1.31570769648355       -0.03483988517695
C           -1.40829077028627       -2.69428873624588        0.05456133012535
H            4.01919138566342        0.87441075057197        0.86362940817552
H            3.45694338636217        1.71082978328765       -0.66663287926420
H            2.54201020115964        1.95963489530436        0.86176170402046
H            3.52486133411205       -1.69159786464587       -0.38276088487767
H           -1.47557239751681        2.93887591556782       -0.82076654539019
H           -3.03817323550402        1.98790210530308       -0.78121892358855
H           -2.34315981069496        2.72761849208312        0.73863005939717
H           -0.99812826489024       -3.16009702229632        0.96029053156048
H           -1.06270178119717       -3.26215282152413       -0.81743165691080
H           -2.49793501088275       -2.73076911415554        0.09519355953610
H            1.31869330426633       -2.96873482734787       -0.18221947927568
25