25
 energy: 0.000000000000 xtb: 6.6.1 (8d0f1dd)
C            3.23720163006194        1.16630919979326        0.08434469647475
N            2.29877817382611        0.07527477071623        0.03981603040599
C            2.58028210190900       -1.21425402444508        0.03006176031096
N            1.43813958087363       -1.93419271955128        0.00098261760884
C            0.39035688448383       -1.05887472636071       -0.00790371836672
C            0.93510056364412        0.21347819449412        0.01709077491437
C            0.09450143893243        1.40504303904423       -0.00410947031874
O            0.49712751527797        2.54126714362870       -0.00342325688240
N           -1.25076640035757        1.06271879480407       -0.03085478223738
C           -2.21907211982101        2.15522099834493       -0.05001256985998
C           -1.81739487048744       -0.20012725993278       -0.04692818574614
O           -2.99983886758376       -0.37846417018721       -0.07008878229737
N           -0.92618586207120       -1.30210215599479       -0.03682761578324
C           -1.46982264913417       -2.64643102187190       -0.06029820460571
H            3.71247264356769        1.21471455160235        1.06488849150277
H            4.00791497605742        1.03430808813993       -0.67357694370751
H            2.69910007168542        2.09770118228144       -0.09130154882931
H            3.56654120610678       -1.63682992603973        0.04233140067262
H           -1.67107961066214        3.09322851271934       -0.02552706933167
H           -2.82428953597071        2.09428624779827       -0.95318082946668
H           -2.87644029173232        2.07745725625962        0.81450067533302
H           -1.17061996399332       -3.19584890659852        0.83242232437030
H           -1.14560257411436       -3.17511610292205       -0.95688275822323
H           -2.55549792440841       -2.55659984320617       -0.07459039797972
H            1.38130855184625       -2.94313852034425       -0.01389874181052
25
 energy: 0.705819779001 xtb: 6.6.1 (8d0f1dd)
C            3.27471859739970        1.15552914251645        0.09367843272208
N            2.32524234165609        0.08627051398749        0.04375668117783
C            2.60969342792309       -1.24159740530347        0.02699058777452
N            1.43599114066110       -1.94311399006594       -0.00312396210892
C            0.40921670854717       -1.05282702380782       -0.00350774570020
C            0.94666748663055        0.22384136507582        0.02525273194532
C            0.11746160617359        1.40297545740015        0.00719763791625
O            0.52774613366153        2.56350527061797        0.02081835238834
N           -1.25485888118352        1.06876378964808       -0.04648556166659
C           -2.25303264391895        2.15049750840075       -0.09261324881023
C           -1.80858071655386       -0.18689058903985       -0.04106384879541
O           -3.00406234286770       -0.36983170934825       -0.06227052069792
N           -0.92151662827546       -1.28997891570549       -0.02976483153246
C           -1.46247752830678       -2.63081016265432       -0.05750803429484
H            3.74517575134796        1.20024716689132        1.07917673663598
H            4.04861319720169        1.00576187290687       -0.66088831606475
H            2.74280999543025        2.08587010350945       -0.09204176761406
H            3.58574003286532       -1.67145657328340        0.03014795120064
H           -1.68784124236638        3.08897233769933       -0.03990601172354
H           -3.07503199861347        2.10876630399754       -0.89042354357090
H           -2.91337774953636        2.06459461606591        0.73923952032307
H           -1.16118544269901       -3.18530304592874        0.83315626795785
H           -1.13449382595210       -3.15890430857281       -0.95504333942872
H           -2.54749973843876       -2.53913682575001       -0.07287113574985
H            1.36709698715051       -2.94671629708500       -0.02486913613619
25
 energy: 19.656276909225 xtb: 6.6.1 (8d0f1dd)
C            3.32782133023368        1.12931427964292        0.10620620557037
N            2.35305269969096        0.09022863594760        0.04917589684852
C            2.63388336157174       -1.26750671772004        0.02113884756991
N            1.43297268212664       -1.94457663387760       -0.01004381590563
C            0.42996905214297       -1.04221704884202        0.00180163130547
C            0.95929649220573        0.23885083668166        0.03770995456207
C            0.14107854071183        1.40486839136021        0.01960375955559
O            0.55554599246098        2.57462365120512        0.06448862722046
N           -1.26860898113872        1.08868347951090       -0.08269718281055
C           -2.30955525771117        2.15002204875939       -0.14384673651837
C           -1.79236005511949       -0.16597565079494       -0.04185639422011
O           -2.99250276444644       -0.35993032607296       -0.04585908601897
N           -0.91271549289722       -1.26861504364243       -0.01920482744654
C           -1.44936088738697       -2.60720664423834       -0.05173463674352
H            3.79220806922143        1.17476712307794        1.09695685157490
H            4.11062214220850        0.95685849772715       -0.63798406976466
H            2.81758178788088        2.06770089991483       -0.09477743482113
H            3.60072773349550       -1.70662755094917        0.00896375139355
H           -1.72967316413517        3.08549590721898       -0.07721723793004
H           -3.37469206985005        2.11234345905322       -0.81708751260988
H           -2.96842711350590        2.04078007237365        0.66952256979093
H           -1.14763180326580       -3.16859284777335        0.83591852260355
H           -1.11842599818224       -3.13354804564557       -0.95102372403740
H           -2.53389704786547       -2.51482914844595       -0.06879994442167
H            1.35530541949003       -2.94588302229916       -0.04232011859957
25
 energy: 37.017386968946 xtb: 6.6.1 (8d0f1dd)
C            3.37737556054417        1.09879263561120        0.11655336994862
N            2.37270311143868        0.08662836088009        0.05228977267758
C            2.64348884351077       -1.28061015898729        0.01471428334503
N            1.43408687410905       -1.94114113489316       -0.01872739120976
C            0.44356816350520       -1.03152833696245        0.00505223999388
C            0.97080331007267        0.25214217311959        0.04755391575838
C            0.15298493661617        1.41797511577285        0.03044745252029
O            0.56920193181119        2.58436324976650        0.10317883182353
N           -1.28404027205955        1.11212615665146       -0.11362259912820
C           -2.37404770944995        2.15031521199728       -0.18184100433831
C           -1.78162506711262       -0.14962682234571       -0.03906985653289
O           -2.98163556803661       -0.35652295906158       -0.02503406808230
N           -0.90178150227057       -1.24842540760986       -0.00836751323513
C           -1.43600391813085       -2.58615803077621       -0.04495269531922
H            3.83421062804155        1.14236693707697        1.11217010423035
H            4.16935979868144        0.89949506552289       -0.61382490331537
H            2.90034697256689        2.05214331405298       -0.10009056574356
H            3.60689680762143       -1.72931583771720       -0.01496218580024
H           -1.80186128031376        3.09018466038106       -0.10719043307146
H           -3.57995827957142        2.11323956684347       -0.79480022911552
H           -3.01630201402099        2.00680362902267        0.63625564036425
H           -1.13313030970542       -3.15031671643409        0.84049033518348
H           -1.10368378483105       -3.10787827332966       -0.94674456607719
H           -2.52047151089308       -2.49315090003728       -0.06156505123191
H            1.35172894581287       -2.94287289637251       -0.06087898749707
25
 energy: 48.617472899319 xtb: 6.6.1 (8d0f1dd)
C            3.39858807371949        1.08251044701245        0.12186841933145
N            2.38108595725697        0.08248540829719        0.05194225525184
C            2.64502533432350       -1.28257347925444        0.01444376574681
N            1.43784333135718       -1.93855717532285       -0.02235510603144
C            0.44923818081229       -1.02805617509000        0.00428595316070
C            0.97751976882755        0.25618740131524        0.04903272257321
C            0.16334242347572        1.42560044946309        0.03042386320928
O            0.57922289949406        2.58458334769018        0.12056275372458
N           -1.28826479717081        1.12262345523050       -0.13456881242863
C           -2.39828763262583        2.15495652265364       -0.19756247060561
C           -1.77602336516613       -0.14301731809401       -0.03814853360132
O           -2.97456153026722       -0.35570109099295       -0.00964308890496
N           -0.89513897781390       -1.23961609032459       -0.00352619888565
C           -1.42950172368682       -2.57790716549019       -0.04166701736806
H            3.84677676140024        1.12725556411262        1.12155660070713
H            4.19462223877724        0.86788168711643       -0.59903693374075
H            2.94065750707790        2.04244590526468       -0.10538657464676
H            3.60801951564060       -1.73392293550557       -0.02512563483813
H           -1.83327989001666        3.09715460503645       -0.11151418949083
H           -3.69902294818930        2.12938438849194       -0.78816440807018
H           -3.03365421362037        1.98153729263271        0.61534575501427
H           -1.12641066668625       -3.14226087134568        0.84306406618451
H           -1.09671312028682       -3.09729632223983       -0.94435472166536
H           -2.51412722119646       -2.48579169339480       -0.05789842090620
H            1.35525876250005       -2.94087755509018       -0.06654014757257
25
 energy: 58.672701966392 xtb: 6.6.1 (8d0f1dd)
C            3.40496855249906        1.07584790178081        0.12340993119882
N            2.38584431074974        0.07796392987936        0.04983034503987
C            2.64476759991487       -1.28200065736988        0.01734381398579
N            1.44196323322915       -1.93813840314074       -0.02272629918240
C            0.45156118678289       -1.02890965441663        0.00251921053065
C            0.98276813028679        0.25508676062527        0.04817573484712
C            0.17632947257082        1.42903343660630        0.02931317452592
O            0.58986836149304        2.58186555349097        0.13224827828576
N           -1.28452908738241        1.12554373217578       -0.14653467480596
C           -2.39579415047405        2.16038804523673       -0.20177698218932
C           -1.77212676494532       -0.13983430640640       -0.03732010405170
O           -2.96909174529202       -0.35272120058759        0.00001558391769
N           -0.89151193471299       -1.23649208777186       -0.00141823869186
C           -1.42769797755864       -2.57543330692068       -0.04046281946516
H            3.84723584762280        1.12434521149251        1.12525958902658
H            4.20197577573534        0.85668104420613       -0.59241060901552
H            2.95342199437139        2.03620894341739       -0.10886916235216
H            3.60833453687564       -1.73366992289028       -0.02875436678795
H           -1.83460720395418        3.10179867614858       -0.10459448819838
H           -3.78691818664035        2.14958366919557       -0.78732421616107
H           -3.04179480525441        1.96028174698587        0.59168830159502
H           -1.12540069235298       -3.13950760467733        0.84433435566462
H           -1.09461784751861       -3.09415966907914       -0.94308374175155
H           -2.51238664530477       -2.48371832123763       -0.05681041256315
H            1.35965270719545       -2.94101491457107       -0.06501830725432
25
 energy: 81.125946361141 xtb: 6.6.1 (8d0f1dd)
C            3.41048262710868        1.06801174901964        0.12412716979722
N            2.39619034736299        0.06623646481456        0.04310861892155
C            2.64339767480865       -1.28037397555892        0.02685845099307
N            1.45163353572250       -1.93924845647070       -0.02230415518160
C            0.45478796170390       -1.03389749171703       -0.00164859652334
C            0.99534449303839        0.24913653445044        0.04515775006493
C            0.21192357423497        1.43443906479801        0.02902988458719
O            0.61519570488989        2.57614312064662        0.15554048915003
N           -1.26705761027149        1.12645377258209       -0.15897845347189
C           -2.35782723279032        2.17349635912025       -0.19878000798762
C           -1.76380198486686       -0.13477969585233       -0.03109957727332
O           -2.95718374264949       -0.34407291456097        0.01868030541784
N           -0.88489167593352       -1.23354521312907        0.00264313206678
C           -1.42668746610943       -2.57375172621401       -0.03918594395569
H            3.84283304308772        1.12449839904291        1.12903548085372
H            4.20837484899440        0.84722451053122       -0.58404893768760
H            2.96282287246799        2.02609991938549       -0.11373970442713
H            3.60846254584982       -1.73279636306577       -0.03296864416081
H           -1.80950473476170        3.11298503845777       -0.07837120898932
H           -3.99540985569717        2.19733052540733       -0.79459803132839
H           -3.06362994883615        1.91354265984937        0.51871975409650
H           -1.12698833335230       -3.13756948617453        0.84601212247263
H           -1.09324661374418       -3.09152683363599       -0.94141753590822
H           -2.51133452655086       -2.48170000671570       -0.05616444677407
H            1.36832916422980       -2.94330735283868       -0.05857401860515
25
 energy: 98.401401968821 xtb: 6.6.1 (8d0f1dd)
C            3.41743021516875        1.05875892064435        0.12718288879144
N            2.40899568616332        0.05117604442091        0.03624475218642
C            2.64244657584309       -1.27980301436425        0.03822099845655
N            1.46323889330651       -1.94119250718641       -0.02221769126109
C            0.45928711253639       -1.04027980488585       -0.00591692594674
C            1.01091437465800        0.24135929499749        0.04167611495848
C            0.25483891743534        1.43896589730451        0.03119793704505
O            0.64363824550093        2.56827991021611        0.17756461562847
N           -1.24211790582038        1.12710961789087       -0.16220461520076
C           -2.29274514697255        2.18872706803260       -0.19465492772309
C           -1.75167795449505       -0.12957006506409       -0.02103086717850
O           -2.94040727371468       -0.33642928512291        0.03781414523611
N           -0.87503145133336       -1.23131907838828        0.00660340360750
C           -1.42411363722004       -2.57236550408160       -0.03989748635582
H            3.83920321850348        1.12270541802109        1.13526046734313
H            4.21695219048056        0.83818493016637       -0.57311351300416
H            2.97290040763727        2.01524978341815       -0.11538768565960
H            3.60900411476880       -1.73331573119048       -0.03362584841033
H           -1.76725341135683        3.12847785837672       -0.05834674672219
H           -4.30297383811763        2.24844056802438       -0.78882556765708
H           -3.08024785254747        1.87603711295530        0.41845717822640
H           -1.12861537933921       -3.13663744562108        0.84565957842774
H           -1.09075017647664       -3.08858051427479       -0.94205866063544
H           -2.50875803104273       -2.47842273441155       -0.05820423890012
H            1.37805677437036       -2.94652813770555       -0.05336340910501
25
 energy: 102.581419015429 xtb: 6.6.1 (8d0f1dd)
C            3.42081775405976        1.05197332284628        0.12914305679555
N            2.41849697954238        0.03643853467549        0.03337876289359
C            2.64153971119651       -1.27853771954916        0.04339612471270
N            1.47402241483429       -1.94405326011726       -0.02274858521279
C            0.46247067936438       -1.04640091489594       -0.00717826144794
C            1.02529725431889        0.23229320890827        0.04283961949717
C            0.28978684447902        1.44132351361954        0.03989284840471
O            0.66532264159292        2.56087631529226        0.19539162377028
N           -1.21279112772922        1.12657613554014       -0.14105149955977
C           -2.20693229868980        2.19884670671858       -0.18635270417125
C           -1.73973001128787       -0.12611891224760       -0.00866988960477
O           -2.92466398344385       -0.33141079659294        0.05216586590306
N           -0.86418824369100       -1.23189548836836        0.00897374762680
C           -1.42124923909070       -2.57274153086141       -0.04227721997731
H            3.83586700818213        1.12048027631736        1.13836047857786
H            4.22099379480122        0.83419871110665       -0.56695635010660
H            2.97661167935418        2.00756577922478       -0.11469154565065
H            3.60989613703802       -1.73249488977543       -0.03466494140343
H           -1.71321598557216        3.14372567870507       -0.03751057183952
H           -4.59940022513536        2.27815834661547       -0.76934845712131
H           -3.10806726804126        1.87070929065427        0.28990297650851
H           -1.12998389257340       -3.13760286659831        0.84356559981587
H           -1.08937352426538       -3.08733879614774       -0.94480430034939
H           -2.50604463402972       -2.47530211534005       -0.06122981347737
H            1.38673220272223       -2.95023992755795       -0.05249266843665
25
 energy: 95.636969309615 xtb: 6.6.1 (8d0f1dd)
C            3.40958687755153        1.05912908794462        0.12910690585323
N            2.41604111535835        0.02380824171948        0.04044091829600
C            2.63668632826018       -1.27213338952565        0.03599127288155
N            1.47949347497313       -1.94776207512337       -0.02185520183343
C            0.45530586952154       -1.04853914049626       -0.00599572045263
C            1.03467553375498        0.22203277238119        0.04217958975322
C            0.29695536779302        1.43698078893287        0.05213938064484
O            0.65791747093892        2.56283202047672        0.18471350211650
N           -1.15943965198759        1.11897340639378       -0.03905392491018
C           -2.00609188429558        2.17930166788986       -0.12856723500153
C           -1.73482001850779       -0.13023203756861       -0.00044875693875
O           -2.91854970386011       -0.33448256137783        0.03911810047071
N           -0.85497696039151       -1.24272082534495       -0.00160071712518
C           -1.42116347453404       -2.58012151257246       -0.04865817255547
H            3.82876577094210        1.12086275435718        1.13410117565872
H            4.21112936037045        0.85172353122035       -0.57379189362936
H            2.95209251689236        2.01571308408834       -0.10677081546762
H            3.60728438581708       -1.72833104239717       -0.02365877460970
H           -1.62348610850105        3.16223360560639       -0.00307030835142
H           -4.87752584479264        2.24596245470046       -0.73435041696308
H           -3.13009836483310        1.93933405176753        0.09248119505791
H           -1.13298327719367       -3.14254955845227        0.83917515420051
H           -1.09301443366720       -3.09461169661251       -0.95084825975662
H           -2.50656914875818       -2.47545491550864       -0.06752572690308
H            1.38499946708503       -2.95292011032705       -0.05621737428781
25
 energy: 90.741648219486 xtb: 6.6.1 (8d0f1dd)
C            3.39242910049025        1.07865491051400        0.12904568849122
N            2.40946106673987        0.03144903065763        0.05773409157973
C            2.64483592979754       -1.27903644579878        0.02588900496144
N            1.47577865568855       -1.95377540807160       -0.01523998755198
C            0.45316088745628       -1.04812629645350        0.00226612031370
C            1.02963685471844        0.22365803551236        0.05114555980652
C            0.26911071211669        1.41995776328372        0.05812488340884
O            0.64834111509976        2.57343542192623        0.15485196295865
N           -1.14360144154146        1.11976003461961        0.00800673359628
C           -1.94245030850173        2.15346230529365       -0.09669555620995
C           -1.74017988517617       -0.13743053457205       -0.01044774874364
O           -2.93161911627386       -0.33389959083969       -0.00331696745817
N           -0.86276144303787       -1.25424598990324       -0.01155454493986
C           -1.42737468705224       -2.58749462212347       -0.05467380709298
H            3.82249799364075        1.13385030041980        1.13003363663416
H            4.19210184625979        0.88696119918082       -0.58960463910706
H            2.90437414154671        2.02728067683336       -0.09595196594348
H            3.61315273791322       -1.73567316737264       -0.00693156929771
H           -1.58465651707569        3.15043877448116       -0.00079987071865
H           -4.90958794355244        2.19696617728249       -0.72436010034861
H           -3.02644621316053        2.01773789585784        0.07330698963117
H           -1.13947845636415       -3.15139704213377        0.83343851225864
H           -1.09915966895692       -3.10576749978699       -0.95585573132088
H           -2.51231520467534       -2.48177963268018       -0.07586070845005
H            1.37696451183675       -2.95595769395477       -0.05551609030998
25
 energy: 88.484770205651 xtb: 6.6.1 (8d0f1dd)
C            3.39011974910250        1.08337278702687        0.12053934014383
N            2.41794025802803        0.03293665485862        0.06403462551113
C            2.65931923977295       -1.29342657567779        0.01182384411491
N            1.48212795390918       -1.96042690732037       -0.01633339338197
C            0.46531340591282       -1.05563587300476        0.01719491409542
C            1.03541127682659        0.22346740147512        0.07918623999872
C            0.27878457063870        1.40090913202029        0.10188536731368
O            0.68430161955804        2.56902300048500        0.15684742186601
N           -1.13519316239918        1.12843875456839        0.03745174843204
C           -1.95749189560037        2.17237298724947       -0.09273879687113
C           -1.73082217967561       -0.14079388443213        0.00842397342664
O           -2.92932775456832       -0.31773677992736       -0.01467668926896
N           -0.86762476687204       -1.25861613578623       -0.00013202493906
C           -1.43062648937957       -2.58944354837734       -0.05303433795308
H            3.82895119761253        1.14295544201095        1.11846559414039
H            4.18031576389075        0.90518784619269       -0.61024407265866
H            2.87982485681803        2.02154309947195       -0.09527774291708
H            3.62461590609341       -1.74705555039709       -0.01425582004707
H           -1.54260154488585        3.15035662257140        0.06476723458104
H           -4.98847433219900        2.21318974026002       -0.75917266005713
H           -3.05739812775939        2.02435257198545       -0.03814203682066
H           -1.14043405541181       -3.15921497883681        0.83165035051052
H           -1.10368035178580       -3.10911407358808       -0.95595732972389
H           -2.51449640840497       -2.48641297587299       -0.07258755827405
H            1.38335993871461       -2.96120015478324       -0.06268429507426
25
 energy: 87.943794696883 xtb: 6.6.1 (8d0f1dd)
C            3.38711491901846        1.08652391542915        0.11941955309119
N            2.41115943357679        0.03973417981239        0.06534290799899
C            2.65677385280072       -1.29310484061659        0.00667453243402
N            1.47552121815640       -1.95744515671112       -0.01715067186955
C            0.46481867425087       -1.05394366139047        0.01755814491493
C            1.02908517306001        0.22632600402477        0.07525064373248
C            0.25949600583170        1.39487734233267        0.09547672881480
O            0.68115589965735        2.56947101874376        0.11149941208680
N           -1.13873902460475        1.13099786251840        0.04746547945411
C           -1.97836692802783        2.17661972579247       -0.05718689270080
C           -1.73012917604566       -0.14687640216575        0.00269892876846
O           -2.93119624035392       -0.31182989518954       -0.02284101855579
N           -0.87368361284537       -1.25875837356056       -0.00589186341399
C           -1.43218954896186       -2.58862780421264       -0.05099281074913
H            3.82822789845203        1.14287115295060        1.11771371071983
H            4.18019046239282        0.90375604989654       -0.60935207465311
H            2.88074666248849        2.02889430633018       -0.09742214366995
H            3.62152947017827       -1.74260125155308       -0.00507218220305
H           -1.54687648553292        3.15304527874524        0.10812079871064
H           -4.89801950302378        2.19672377478948       -0.77603162031962
H           -3.05313600875692        2.00461931626384       -0.04792552878201
H           -1.13825756870685       -3.15518798619241        0.83516802800891
H           -1.10497459949416       -3.11151286858145       -0.95267784837902
H           -2.51591765301219       -2.48763449053375       -0.07005032057823
H            1.37788134743848       -2.95790859475010       -0.06275999671361
25
 energy: 87.303792814700 xtb: 6.6.1 (8d0f1dd)
C            3.38752511428549        1.08252478535578        0.12059974024702
N            2.40869520461483        0.03858952489930        0.06458397250756
C            2.65089869541950       -1.28979540531083        0.00777667181741
N            1.47481694364595       -1.95410585991592       -0.01924597605978
C            0.46531938032149       -1.05482540089406        0.01588073022501
C            1.02833264119216        0.22565475822674        0.07218817656239
C            0.25824500384088        1.39826532087244        0.09031464227019
O            0.68465107105636        2.56734697081500        0.11589796386164
N           -1.13955299039600        1.13430523024536        0.04763623942270
C           -1.98327065910750        2.18358312503710       -0.02257108236441
C           -1.72580432394564       -0.15015808595699        0.00580403101335
O           -2.92529877784525       -0.30685758141377       -0.01298473426852
N           -0.87406654282310       -1.25489626835368       -0.00852124384134
C           -1.43183625978949       -2.58632752520053       -0.05263628082854
H            3.82725368675510        1.14164913828169        1.11951313215373
H            4.18055488440832        0.89601866696956       -0.60400401646794
H            2.88846262634968        2.02709820685932       -0.09850686346891
H            3.61811899177332       -1.73591433002545       -0.00613887488374
H           -1.54279350633958        3.15364583874552        0.09861325172134
H           -4.91198134080056        2.17202200948019       -0.77118345545654
H           -3.04828569327473        2.00610481728791       -0.07976054099753
H           -1.13765603148383       -3.15295732603310        0.83344843741233
H           -1.10456049441000       -3.10844336424354       -0.95452539250208
H           -2.51588210001366       -2.48736882936229       -0.07150323019646
H            1.38032914450248       -2.95612981419374       -0.06364140173155
25
 energy: 87.421184963790 xtb: 6.6.1 (8d0f1dd)
C            3.38923121340306        1.07884581873253        0.11645514412025
N            2.40711832509035        0.03583082214277        0.06375522939673
C            2.64588236863587       -1.28677223272659        0.00622148656531
N            1.47423586181980       -1.95249756733162       -0.01894451059874
C            0.46373580330054       -1.05425253394215        0.01822281937057
C            1.02776943386403        0.22491771755692        0.07454220817414
C            0.25270458755565        1.40564912297324        0.09355954034657
O            0.68280549998872        2.56589914345068        0.13765287303536
N           -1.14079692021816        1.13901998736364        0.05100077722371
C           -1.98017508313545        2.18392679991240        0.04153635809090
C           -1.72585533054328       -0.15237953144352        0.00196290072772
O           -2.92488197961887       -0.30263017259112       -0.01571270063987
N           -0.87414423300828       -1.24915945737758       -0.01123762828385
C           -1.43124750681504       -2.58403278189194       -0.05052066946500
H            3.83102095964650        1.13972382551655        1.11402080564929
H            4.17963582649707        0.89239119671876       -0.60933447441705
H            2.89236499013493        2.02392648673483       -0.10080738533257
H            3.61698676002142       -1.73250842002089       -0.01798075787417
H           -1.55194014509685        3.16218996076579        0.09754815938542
H           -4.87839003981196        2.14563731885114       -0.77964991270807
H           -3.06888872122171        2.00454281745544       -0.13884342009961
H           -1.13752932898512       -3.14911278695565        0.83653912630243
H           -1.10377206039109       -3.10685307415557       -0.95120958969318
H           -2.51593616876093       -2.48694055719806       -0.06861005782673
H            1.38228055558501       -2.95633330036799       -0.06313242530224
25