      -----------------------------------------------------------      
     |                   =====================                   |     
     |                           x T B                           |     
     |                   =====================                   |     
     |                         S. Grimme                         |     
     |          Mulliken Center for Theoretical Chemistry        |     
     |                    University of Bonn                     |     
      -----------------------------------------------------------      

   * xtb version 6.6.1 (8d0f1dd) compiled by 'conda@1efc2f54142f' on 2023-08-01

   xtb is free software: you can redistribute it and/or modify it under
   the terms of the GNU Lesser General Public License as published by
   the Free Software Foundation, either version 3 of the License, or
   (at your option) any later version.
   
   xtb is distributed in the hope that it will be useful,
   but WITHOUT ANY WARRANTY; without even the implied warranty of
   MERCHANTABILITY or FITNESS FOR A PARTICULAR PURPOSE.  See the
   GNU Lesser General Public License for more details.
   
   Cite this work as:
   * C. Bannwarth, E. Caldeweyher, S. Ehlert, A. Hansen, P. Pracht,
     J. Seibert, S. Spicher, S. Grimme, WIREs Comput. Mol. Sci., 2020, 11,
     e01493. DOI: 10.1002/wcms.1493
   
   for GFN2-xTB:
   * C. Bannwarth, S. Ehlert and S. Grimme., J. Chem. Theory Comput., 2019,
     15, 1652-1671. DOI: 10.1021/acs.jctc.8b01176
   for GFN1-xTB:
   * S. Grimme, C. Bannwarth, P. Shushkov, J. Chem. Theory Comput., 2017,
     13, 1989-2009. DOI: 10.1021/acs.jctc.7b00118
   for GFN0-xTB:
   * P. Pracht, E. Caldeweyher, S. Ehlert, S. Grimme, ChemRxiv, 2019, preprint.
     DOI: 10.26434/chemrxiv.8326202.v1
   for GFN-FF:
   * S. Spicher and S. Grimme, Angew. Chem. Int. Ed., 2020, 59, 15665-15673.
     DOI: 10.1002/anie.202004239
   
   for ALPB and GBSA implicit solvation:
   * S. Ehlert, M. Stahn, S. Spicher, S. Grimme, J. Chem. Theory Comput.,
     2021, 17, 4250-4261. DOI: 10.1021/acs.jctc.1c00471
   
   for DFT-D4:
   * E. Caldeweyher, C. Bannwarth and S. Grimme, J. Chem. Phys., 2017,
     147, 034112. DOI: 10.1063/1.4993215
   * E. Caldeweyher, S. Ehlert, A. Hansen, H. Neugebauer, S. Spicher,
     C. Bannwarth and S. Grimme, J. Chem. Phys., 2019, 150, 154122.
     DOI: 10.1063/1.5090222
   * E. Caldeweyher, J.-M. Mewes, S. Ehlert and S. Grimme, Phys. Chem. Chem. Phys.
     2020, 22, 8499-8512. DOI: 10.1039/D0CP00502A
   
   for sTDA-xTB:
   * S. Grimme and C. Bannwarth, J. Chem. Phys., 2016, 145, 054103.
     DOI: 10.1063/1.4959605
   
   in the mass-spec context:
   * V. Asgeirsson, C. Bauer and S. Grimme, Chem. Sci., 2017, 8, 4879.
     DOI: 10.1039/c7sc00601b
   * J. Koopman and S. Grimme, ACS Omega 2019, 4, 12, 15120-15133.
     DOI: 10.1021/acsomega.9b02011
   
   for metadynamics refer to:
   * S. Grimme, J. Chem. Theory Comput., 2019, 155, 2847-2862
     DOI: 10.1021/acs.jctc.9b00143
   
   for SPH calculations refer to:
   * S. Spicher and S. Grimme, J. Chem. Theory Comput., 2021, 17, 1701-1714
     DOI: 10.1021/acs.jctc.0c01306
   
   with help from (in alphabetical order)
   P. Atkinson, C. Bannwarth, F. Bohle, G. Brandenburg, E. Caldeweyher
   M. Checinski, S. Dohm, S. Ehlert, S. Ehrlich, I. Gerasimov, C. Hölzer
   A. Katbashev, J. Koopman, C. Lavigne, S. Lehtola, F. März, M. Müller,
   F. Musil, H. Neugebauer, J. Pisarek, C. Plett, P. Pracht, F. Pultar,
   J. Seibert, P. Shushkov, S. Spicher, M. Stahn, M. Steiner, T. Strunk,
   J. Stückrath, T. Rose, and J. Unsleber
   
 * started run on 2024/06/05 at 19:59:21.834     

           -------------------------------------------------
          |                Calculation Setup                |
           -------------------------------------------------

          program call               : xtb xtbopt.xyz --opt crude --input .xc2 --gfn2
          hostname                   : n-62-31-11
          coordinate file            : xtbopt.xyz
          omp threads                :                     1

   ID    Z sym.   atoms
    1    6 C      1, 3, 5-7, 10, 11, 14
    2    7 N      2, 4, 9, 13
    3    8 O      8, 12
    4    1 H      15-25
########################################################################
[WARNING] Please study the warnings concerning your input carefully
-1- readin_getIntValue: could not parse ''
########################################################################

           -------------------------------------------------
          |                 G F N 2 - x T B                 |
           -------------------------------------------------

        Reference                      10.1021/acs.jctc.8b01176
      * Hamiltonian:
        H0-scaling (s, p, d)           1.850000    2.230000    2.230000
        zeta-weighting                 0.500000
      * Dispersion:
        s8                             2.700000
        a1                             0.520000
        a2                             5.000000
        s9                             5.000000
      * Repulsion:
        kExp                           1.500000    1.000000
        rExp                           1.000000
      * Coulomb:
        alpha                          2.000000
        third order                    shell-resolved
        anisotropic                    true
        a3                             3.000000
        a5                             4.000000
        cn-shift                       1.200000
        cn-exp                         4.000000
        max-rad                        5.000000

q/qsh data taken from xtbrestart
CAMM data taken from xtbrestart

          ...................................................
          :                      SETUP                      :
          :.................................................:
          :  # basis functions                  67          :
          :  # atomic orbitals                  67          :
          :  # shells                           39          :
          :  # electrons                        74          :
          :  max. iterations                   250          :
          :  Hamiltonian                  GFN2-xTB          :
          :  restarted?                       true          :
          :  GBSA solvation                  false          :
          :  PC potential                    false          :
          :  electronic temp.         5000.0000000     K    :
          :  accuracy                    1.0000000          :
          :  -> integral cutoff          0.2500000E+02      :
          :  -> integral neglect         0.1000000E-07      :
          :  -> SCF convergence          0.1000000E-05 Eh   :
          :  -> wf. convergence          0.1000000E-03 e    :
          :  Broyden damping             0.4000000          :
          ...................................................

 iter      E             dE          RMSdq      gap      omega  full diag
   1    -42.7112438 -0.427112E+02  0.196E-05    1.47       0.0  T
   2    -42.7112438  0.101466E-10  0.257E-05    1.47     778.1  T
   3    -42.7112438 -0.172165E-10  0.879E-06    1.47    2274.5  T

   *** convergence criteria satisfied after 3 iterations ***

         #    Occupation            Energy/Eh            Energy/eV
      -------------------------------------------------------------
         1        2.0000           -0.8906285             -24.2352
       ...           ...                  ...                  ...
        31        2.0000           -0.6173029             -16.7977
        32        1.9999           -0.6109835             -16.6257
        33        1.9999           -0.6050572             -16.4644
        34        1.9999           -0.6029966             -16.4084
        35        1.9992           -0.5712776             -15.5453
        36        1.9972           -0.5519289             -15.0188
        37        1.6657           -0.4733980             -12.8818 (HOMO)
        38        0.2821           -0.4193633             -11.4115 (LUMO)
        39        0.0447           -0.3881523             -10.5622
        40        0.0115           -0.3663493              -9.9689
        41        0.0001           -0.2814438              -7.6585
        42        0.0000           -0.1973872              -5.3712
       ...           ...                  ...                  ...
        67                          0.5340987              14.5336
      -------------------------------------------------------------
                  HL-Gap            0.0540348 Eh            1.4704 eV
             Fermi-level           -0.4479695 Eh          -12.1899 eV

 SCC (total)                   0 d,  0 h,  0 min,  0.025 sec
 SCC setup                      ...        0 min,  0.000 sec (  1.133%)
 Dispersion                     ...        0 min,  0.000 sec (  1.350%)
 classical contributions        ...        0 min,  0.000 sec (  0.375%)
 integral evaluation            ...        0 min,  0.005 sec ( 20.471%)
 iterations                     ...        0 min,  0.006 sec ( 21.951%)
 molecular gradient             ...        0 min,  0.014 sec ( 54.082%)
 printout                       ...        0 min,  0.000 sec (  0.591%)

         :::::::::::::::::::::::::::::::::::::::::::::::::::::
         ::                     SUMMARY                     ::
         :::::::::::::::::::::::::::::::::::::::::::::::::::::
         :: total energy             -42.188295112572 Eh    ::
         :: gradient norm              0.007703264342 Eh/a0 ::
         :: HOMO-LUMO gap              1.470361207499 eV    ::
         ::.................................................::
         :: SCC energy               -42.711243750335 Eh    ::
         :: -> isotropic ES            0.124051973062 Eh    ::
         :: -> anisotropic ES         -0.004994848519 Eh    ::
         :: -> anisotropic XC          0.011357614722 Eh    ::
         :: -> dispersion             -0.022968138159 Eh    ::
         :: repulsion energy           0.522832575713 Eh    ::
         :: add. restraining           0.000000000000 Eh    ::
         :: total charge               1.000000000000 e     ::
         :::::::::::::::::::::::::::::::::::::::::::::::::::::

      ----------------------------------------------------------- 
     |                   =====================                   |
     |                        A N C O P T                        |
     |                   =====================                   |
     |               Approximate Normal Coordinate               |
     |                Rational Function Optimizer                |
      ----------------------------------------------------------- 

          ...................................................
          :                      SETUP                      :
          :.................................................:
          :   optimization level             crude          :
          :   max. optcycles                   200          :
          :   ANC micro-cycles                  20          :
          :   degrees of freedom                69          :
          :.................................................:
          :   RF solver                   davidson          :
          :   write xtbopt.log                true          :
          :   linear?                        false          :
          :   energy convergence         0.5000000E-03 Eh   :
          :   grad. convergence          0.1000000E-01 Eh/α :
          :   maxmium RF displ.          1.0000000          :
          :   Hlow (freq-cutoff)         0.1000000E-01      :
          :   Hmax (freq-cutoff)         5.0000000          :
          :   S6 in model hess.         20.0000000          :
          ...................................................

generating ANC from model Hessian ...
Using Lindh-Hessian (1995)
 Shifting diagonal of input Hessian by    7.3333876869591200E-003
 Lowest  eigenvalues of input Hessian
    0.000000    0.000000    0.000000    0.000000    0.000000    0.000000
    0.010000    0.011358    0.013027    0.016083    0.016887    0.018967
    0.020029    0.021096    0.024892    0.025537    0.027624    0.039704
 Highest eigenvalues
    2.024561    2.159895    2.188158    2.237895    2.301131    2.513528


........................................................................
.............................. CYCLE    1 ..............................
........................................................................

 iter      E             dE          RMSdq      gap      omega  full diag
   1    -42.7112438 -0.427112E+02  0.543E-06    1.47       0.0  T
   2    -42.7112438  0.447642E-12  0.604E-06    1.47    3310.9  T
   3    -42.7112438 -0.703437E-12  0.302E-06    1.47    6616.3  T
     SCC iter.                  ...        0 min,  0.005 sec
     gradient                   ...        0 min,  0.013 sec
 * total energy  :   -42.1882951 Eh     change       -0.1286082E-11 Eh
   gradient norm :     0.0077033 Eh/α   predicted     0.0000000E+00 (-100.00%)
   displ. norm   :     0.1979025 α      lambda       -0.1025261E-02
   maximum displ.:     0.0998517 α      in ANC's #9, #10, #2, ...

   *** GEOMETRY OPTIMIZATION CONVERGED AFTER 1 ITERATIONS ***

------------------------------------------------------------------------
 total energy gain   :        -0.0000000 Eh       -0.0000 kcal/mol
 total RMSD          :         0.0000000 a0        0.0000 Å
 total power (kW/mol):        -0.0000000 (step)   -0.0000 (real)
------------------------------------------------------------------------

 ANCopt (total)                0 d,  0 h,  0 min,  0.033 sec
 optimizer setup                ...        0 min,  0.000 sec (  1.286%)
 model hessian                  ...        0 min,  0.006 sec ( 19.288%)
 ANC generation                 ...        0 min,  0.001 sec (  2.324%)
 coordinate transformation      ...        0 min,  0.000 sec (  0.021%)
 single point calculation       ...        0 min,  0.024 sec ( 71.717%)
 optimization log               ...        0 min,  0.001 sec (  4.381%)
 hessian update                 ...        0 min,  0.000 sec (  0.003%)
 rational function              ...        0 min,  0.000 sec (  0.702%)

================
 final structure:
================
25
 xtb: 6.6.1 (8d0f1dd)
C            3.10258522551216        1.21806918805998       -0.04161129433439
N            2.17559184834315        0.12041593419890       -0.06642139821509
C            2.50062510068928       -1.18661758964135       -0.06167662274877
N            1.37389038204423       -1.93513226017187       -0.03305585246114
C            0.30566304017557       -1.09612305247488       -0.01599207973299
C            0.79934561181389        0.21423790547785       -0.03817119937622
C           -0.08355223117985        1.28745707110913       -0.03474778430643
O            0.32684221474856        2.56840794390537       -0.03252388025751
N           -1.43266458843918        1.00667675941798       -0.01970399194866
C           -2.35680571102107        1.97990669106545       -0.05252924535330
C           -1.94574442293160       -0.33743990908875        0.06768390854827
O           -3.12817615701315       -0.53045698802258        0.14525892564579
N           -1.02366632226854       -1.36565281267884        0.04181338152055
C           -1.50061071661197       -2.73478874631580        0.08409070393990
H            3.47854333389766        1.37918921719020        0.97137968644795
H            3.94469138468020        1.00900493999854       -0.69948057163475
H            2.59457448177968        2.12074285437587       -0.37243199806751
H            3.49784209179759       -1.57228052502509       -0.07420750825563
H           -0.42578301409751        3.14024686504316        0.19445002870007
H           -2.11330364677577        2.99517369712792       -0.28562119570622
H           -3.37371681619267        1.70192808387927        0.09654170801632
H           -1.15357061855194       -3.22958892232783        0.99122537964185
H           -1.15811260381371       -3.27996623167146       -0.79532546713460
H           -2.58895269896674       -2.71160463719257        0.08791724344351
H            1.34489634648152       -2.94356693463871       -0.02568925847092

 Bond Distances (Angstroems)
 ---------------------------
C1-N2=1.4369         C1-H15=1.0925        C1-H16=1.0889        C1-H17=1.0874        N2-C1=1.4369         N2-C3=1.3469         
N2-C6=1.3797         C3-N2=1.3469         C3-N4=1.3530         C3-H18=1.0693        N4-C3=1.3530         N4-C5=1.3584         
N4-H25=1.0089        C5-N4=1.3584         C5-C6=1.4005         C5-N13=1.3576        C6-N2=1.3797         C6-C5=1.4005         
C6-C7=1.3897         C7-C6=1.3897         C7-O8=1.3451         C7-N9=1.3781         O8-C7=1.3451         O8-H19=0.9721        
N9-C7=1.3781         N9-C10=1.3425        N9-C11=1.4414        C10-N9=1.3425        C10-H20=1.0698       C10-H21=1.0647       
C11-N9=1.4414        C11-O12=1.2006       C11-N13=1.3813       O12-C11=1.2006       N13-C5=1.3576        N13-C11=1.3813       
N13-C14=1.4504       C14-N13=1.4504       C14-H22=1.0900       C14-H23=1.0899       C14-H24=1.0886       H15-C1=1.0925        
H16-C1=1.0889        H17-C1=1.0874        H18-C3=1.0693        H19-O8=0.9721        H20-C10=1.0698       H21-C10=1.0647       
H22-C14=1.0900       H23-C14=1.0899       H24-C14=1.0886       H25-N4=1.0089        
 C  H  Rav=1.0823 sigma=0.0104  Rmin=1.0647  Rmax=1.0925     9
 C  C  Rav=1.3951 sigma=0.0054  Rmin=1.3897  Rmax=1.4005     2
 N  H  Rav=1.0089 sigma=0.0000  Rmin=1.0089  Rmax=1.0089     1
 N  C  Rav=1.3842 sigma=0.0381  Rmin=1.3425  Rmax=1.4504    11
 O  H  Rav=0.9721 sigma=0.0000  Rmin=0.9721  Rmax=0.9721     1
 O  C  Rav=1.2728 sigma=0.0722  Rmin=1.2006  Rmax=1.3451     2

 selected bond angles (degree)
 --------------------
H15-C1-N2=110.53               H16-C1-N2=109.99               H16-C1-H15=108.81              H17-C1-N2=109.12               
H17-C1-H15=108.69              H17-C1-H16=109.69              C3-N2-C1=125.84                C6-N2-C1=126.24                
C6-N2-C3=107.86                N4-C3-N2=109.63                H18-C3-N2=125.10               H18-C3-N4=125.27               
C5-N4-C3=108.27                H25-N4-C3=125.24               H25-N4-C5=126.49               C6-C5-N4=107.49                
N13-C5-N4=130.38               N13-C5-C6=122.11               C5-C6-N2=106.76                C7-C6-N2=133.34                
C7-C6-C5=119.91                O8-C7-C6=122.79                N9-C7-C6=117.69                N9-C7-O8=119.52                
H19-O8-C7=108.93               C10-N9-C7=121.73               C11-N9-C7=122.63               C11-N9-C10=115.62              
H20-C10-N9=122.46              H21-C10-N9=117.70              H21-C10-H20=119.72             

 selected dihedral angles (degree)
 ---------------------------------
C3-N2-C1-H15=281.28           C3-N2-C1-H16= 41.45           C3-N2-C1-H17=161.81           C6-N2-C1-H15= 98.14           
C6-N2-C1-H16=218.31           C6-N2-C1-H17=338.67           N4-C3-N2-C1=177.42            N4-C3-N2-C6=  0.08            
H18-C3-N2-C1=357.67           H18-C3-N2-C6=180.34           C5-N4-C3-N2=359.86            C5-N4-C3-H18=179.61           
H25-N4-C3-N2=179.87           H25-N4-C3-H18=359.62          C6-C5-N4-C3=  0.14            C6-C5-N4-H25=180.13           
N13-C5-N4-C3=181.55           N13-C5-N4-H25=  1.54          C5-C6-N2-C1=182.68            C5-C6-N2-C3=  0.00            
C7-C6-N2-C1=  3.00            C7-C6-N2-C3=180.32            N2-C6-C5-N4=359.91            N2-C6-C5-N13=178.64           
C7-C6-C5-N4=179.64            C7-C6-C5-N13=358.37           O8-C7-C6-N2=358.50            O8-C7-C6-C5=178.85            
N9-C7-C6-N2=179.15            N9-C7-C6-C5=359.50            H19-O8-C7-C6=194.15           H19-O8-C7-N9= 13.48           
C10-N9-C7-C6=181.87           C10-N9-C7-O8=  2.50           C11-N9-C7-C6=  3.56           C11-N9-C7-O8=184.19           
H20-C10-N9-C7= 12.45          H20-C10-N9-C11=190.87         H21-C10-N9-C7=188.24          H21-C10-N9-C11=  6.66         
           -------------------------------------------------
          |                Final Singlepoint                |
           -------------------------------------------------

          ...................................................
          :                      SETUP                      :
          :.................................................:
          :  # basis functions                  67          :
          :  # atomic orbitals                  67          :
          :  # shells                           39          :
          :  # electrons                        74          :
          :  max. iterations                   250          :
          :  Hamiltonian                  GFN2-xTB          :
          :  restarted?                      false          :
          :  GBSA solvation                  false          :
          :  PC potential                    false          :
          :  electronic temp.         5000.0000000     K    :
          :  accuracy                    1.0000000          :
          :  -> integral cutoff          0.2500000E+02      :
          :  -> integral neglect         0.1000000E-07      :
          :  -> SCF convergence          0.1000000E-05 Eh   :
          :  -> wf. convergence          0.1000000E-03 e    :
          :  Broyden damping             0.4000000          :
          ...................................................

 iter      E             dE          RMSdq      gap      omega  full diag
   1    -42.7112438 -0.427112E+02  0.249E-06    1.47       0.0  T
   2    -42.7112438  0.127898E-12  0.374E-06    1.47    5348.8  T
   3    -42.7112438 -0.291323E-12  0.999E-07    1.47   20010.4  T

   *** convergence criteria satisfied after 3 iterations ***

         #    Occupation            Energy/Eh            Energy/eV
      -------------------------------------------------------------
         1        2.0000           -0.8906286             -24.2352
       ...           ...                  ...                  ...
        31        2.0000           -0.6173030             -16.7977
        32        1.9999           -0.6109835             -16.6257
        33        1.9999           -0.6050572             -16.4644
        34        1.9999           -0.6029966             -16.4084
        35        1.9992           -0.5712776             -15.5453
        36        1.9972           -0.5519290             -15.0188
        37        1.6657           -0.4733980             -12.8818 (HOMO)
        38        0.2821           -0.4193632             -11.4115 (LUMO)
        39        0.0447           -0.3881523             -10.5622
        40        0.0115           -0.3663493              -9.9689
        41        0.0001           -0.2814438              -7.6585
        42        0.0000           -0.1973872              -5.3712
       ...           ...                  ...                  ...
        67                          0.5340987              14.5336
      -------------------------------------------------------------
                  HL-Gap            0.0540348 Eh            1.4704 eV
             Fermi-level           -0.4479695 Eh          -12.1899 eV

 SCC (total)                   0 d,  0 h,  0 min,  0.024 sec
 SCC setup                      ...        0 min,  0.000 sec (  0.829%)
 Dispersion                     ...        0 min,  0.000 sec (  0.718%)
 classical contributions        ...        0 min,  0.000 sec (  0.308%)
 integral evaluation            ...        0 min,  0.005 sec ( 19.819%)
 iterations                     ...        0 min,  0.005 sec ( 20.505%)
 molecular gradient             ...        0 min,  0.014 sec ( 57.323%)
 printout                       ...        0 min,  0.000 sec (  0.452%)

         :::::::::::::::::::::::::::::::::::::::::::::::::::::
         ::                     SUMMARY                     ::
         :::::::::::::::::::::::::::::::::::::::::::::::::::::
         :: total energy             -42.188295112574 Eh    ::
         :: gradient norm              0.007703266226 Eh/a0 ::
         :: HOMO-LUMO gap              1.470360543125 eV    ::
         ::.................................................::
         :: SCC energy               -42.711243750337 Eh    ::
         :: -> isotropic ES            0.124051835505 Eh    ::
         :: -> anisotropic ES         -0.004994845244 Eh    ::
         :: -> anisotropic XC          0.011357615546 Eh    ::
         :: -> dispersion             -0.022968138786 Eh    ::
         :: repulsion energy           0.522832575713 Eh    ::
         :: add. restraining           0.000000000000 Eh    ::
         :: total charge               1.000000000000 e     ::
         :::::::::::::::::::::::::::::::::::::::::::::::::::::

           -------------------------------------------------
          |                Property Printout                |
           -------------------------------------------------

    * Orbital Energies and Occupations

         #    Occupation            Energy/Eh            Energy/eV
      -------------------------------------------------------------
         1        2.0000           -0.8906286             -24.2352
       ...           ...                  ...                  ...
        25        2.0000           -0.6676871             -18.1687
        26        2.0000           -0.6611313             -17.9903
        27        2.0000           -0.6583534             -17.9147
        28        2.0000           -0.6448770             -17.5480
        29        2.0000           -0.6259425             -17.0328
        30        2.0000           -0.6221726             -16.9302
        31        2.0000           -0.6173030             -16.7977
        32        1.9999           -0.6109835             -16.6257
        33        1.9999           -0.6050572             -16.4644
        34        1.9999           -0.6029966             -16.4084
        35        1.9992           -0.5712776             -15.5453
        36        1.9972           -0.5519290             -15.0188
        37        1.6657           -0.4733980             -12.8818 (HOMO)
        38        0.2821           -0.4193632             -11.4115 (LUMO)
        39        0.0447           -0.3881523             -10.5622
        40        0.0115           -0.3663493              -9.9689
        41        0.0001           -0.2814438              -7.6585
        42        0.0000           -0.1973872              -5.3712
        43        0.0000           -0.1823178              -4.9611
        44                         -0.1447696              -3.9394
        45                         -0.1232669              -3.3543
        46                         -0.1038599              -2.8262
        47                         -0.0639360              -1.7398
        48                         -0.0435822              -1.1859
       ...                                ...                  ...
        67                          0.5340987              14.5336
      -------------------------------------------------------------
                  HL-Gap            0.0540348 Eh            1.4704 eV
             Fermi-level           -0.4479695 Eh          -12.1899 eV

     #   Z          covCN         q      C6AA      α(0)
     1   6 C        3.690    -0.087    22.356     6.766
     2   7 N        2.822     0.050    20.369     6.703
     3   6 C        3.034     0.031    27.285     8.568
     4   7 N        2.779    -0.057    22.338     7.020
     5   6 C        3.045     0.083    26.109     8.381
     6   6 C        3.085     0.001    27.906     8.660
     7   6 C        2.786     0.150    24.725     8.145
     8   8 O        1.659    -0.365    20.174     6.063
     9   7 N        2.741    -0.011    21.468     6.881
    10   6 C        2.815    -0.086    30.132     8.994
    11   6 C        2.740     0.303    21.855     7.654
    12   8 O        0.859    -0.360    20.899     6.129
    13   7 N        2.736    -0.050    22.202     6.998
    14   6 C        3.700    -0.072    22.042     6.714
    15   1 H        0.924     0.098     1.802     2.099
    16   1 H        0.925     0.097     1.813     2.105
    17   1 H        0.925     0.118     1.631     1.997
    18   1 H        0.927     0.113     1.673     2.023
    19   1 H        0.804     0.342     0.608     1.225
    20   1 H        0.927     0.078     2.003     2.213
    21   1 H        0.927     0.112     1.677     2.025
    22   1 H        0.925     0.083     1.950     2.184
    23   1 H        0.925     0.082     1.962     2.190
    24   1 H        0.925     0.124     1.580     1.965
    25   1 H        0.860     0.223     0.998     1.565

 Mol. C6AA /au·bohr⁶  :       6633.883371
 Mol. C8AA /au·bohr⁸  :     153073.660268
 Mol. α(0) /au        :        125.268105


Wiberg/Mayer (AO) data.
largest (>0.10) Wiberg bond orders for each atom

 ---------------------------------------------------------------------------
     #   Z sym  total        # sym  WBO       # sym  WBO       # sym  WBO
 ---------------------------------------------------------------------------
     1   6 C    3.930 --     2 N    0.991    16 H    0.970    17 H    0.967
                            15 H    0.960
     2   7 N    3.591 --     3 C    1.299     6 C    1.132     1 C    0.991
     3   6 C    3.721 --     2 N    1.299     4 N    1.260    18 H    0.957
     4   7 N    3.565 --     3 C    1.260     5 C    1.199    25 H    0.922
     5   6 C    3.866 --     6 C    1.266     4 N    1.199    13 N    1.159
     6   6 C    3.939 --     7 C    1.280     5 C    1.266     2 N    1.132
     7   6 C    3.753 --     6 C    1.280     9 N    1.133     8 O    1.099
                            10 C    0.131
     8   8 O    2.103 --     7 C    1.099    19 H    0.835
     9   7 N    3.637 --    10 C    1.305     7 C    1.133    11 C    0.981
    10   6 C    3.539 --     9 N    1.305    21 H    0.963    20 H    0.957
                             7 C    0.131
    11   6 C    3.908 --    12 O    1.699    13 N    1.118     9 N    0.981
    12   8 O    2.032 --    11 C    1.699    13 N    0.147
    13   7 N    3.543 --     5 C    1.159    11 C    1.118    14 C    0.972
                            12 O    0.147
    14   6 C    3.927 --    13 N    0.972    23 H    0.972    22 H    0.971
                            24 H    0.966
    15   1 H    0.983 --     1 C    0.960
    16   1 H    0.987 --     1 C    0.970
    17   1 H    0.985 --     1 C    0.967
    18   1 H    0.986 --     3 C    0.957
    19   1 H    0.882 --     8 O    0.835
    20   1 H    0.993 --    10 C    0.957
    21   1 H    0.987 --    10 C    0.963
    22   1 H    0.990 --    14 C    0.971
    23   1 H    0.991 --    14 C    0.972
    24   1 H    0.984 --    14 C    0.966
    25   1 H    0.950 --     4 N    0.922
 ---------------------------------------------------------------------------

Topologies differ in total number of bonds
Writing topology from bond orders to xtbtopo.mol

molecular dipole:
                 x           y           z       tot (Debye)
 q only:        2.207      -0.779       0.044
   full:        2.325      -0.918       0.064       6.356
molecular quadrupole (traceless):
                xx          xy          yy          xz          yz          zz
 q only:        3.171      -5.625      15.469      -0.122       0.835     -18.640
  q+dip:       -0.095     -10.422      17.429       0.093       1.040     -17.334
   full:       -1.078      -9.780      17.211       0.212       1.213     -16.132

           -------------------------------------------------
          |                Geometry Summary                 |
           -------------------------------------------------

      molecular mass/u    :      195.1988581
   center of mass at/Å    :       -0.0797243      -0.0364379      -0.0015725
  moments of inertia/u·Å² :        0.4821404E+03   0.7120047E+03   0.1187002E+04
rotational constants/cm⁻¹ :        0.3496416E-01   0.2367629E-01   0.1420185E-01

 * 25 selected distances

     #   Z          #   Z                                           value/Å
     1   6 C        2   7 N                                       1.4369326
     2   7 N        3   6 C                                       1.3468504
     3   6 C        4   7 N                                       1.3530058
     4   7 N        5   6 C                                       1.3584320
     2   7 N        6   6 C                                       1.3797299
     5   6 C        6   6 C                                       1.4004501
     6   6 C        7   6 C                                       1.3897194
     7   6 C        8   8 O                                       1.3450889
     7   6 C        9   7 N                                       1.3781032
     9   7 N       10   6 C                                       1.3424944
    11   6 C       12   8 O                                       1.2005909
     5   6 C       13   7 N                                       1.3576099
    11   6 C       13   7 N                                       1.3813470
    13   7 N       14   6 C                                       1.4504471 (max)
     1   6 C       15   1 H                                       1.0924537
     1   6 C       16   1 H                                       1.0888723
     1   6 C       17   1 H                                       1.0873533
     3   6 C       18   1 H                                       1.0692684
     8   8 O       19   1 H                                       0.9720915 (min)
    10   6 C       20   1 H                                       1.0697628
    10   6 C       21   1 H                                       1.0647078
    14   6 C       22   1 H                                       1.0900264
    14   6 C       23   1 H                                       1.0899066
    14   6 C       24   1 H                                       1.0885957
     4   7 N       25   1 H                                       1.0088784

 * 6 distinct bonds (by element types)

   Z      Z             #   av. dist./Å        max./Å        min./Å
   1 H    6 C           9     1.0823274     1.0924537     1.0647078
   6 C    6 C           2     1.3950848     1.4004501     1.3897194
   1 H    7 N           1     1.0088784     1.0088784     1.0088784
   6 C    7 N          10     1.3784952     1.4504471     1.3424944
   1 H    8 O           1     0.9720915     0.9720915     0.9720915
   6 C    8 O           2     1.2728399     1.3450889     1.2005909


optimized geometry written to: xtbopt.xyz


           -------------------------------------------------
          | TOTAL ENERGY              -42.188295112574 Eh   |
          | GRADIENT NORM               0.007703266226 Eh/α |
          | HOMO-LUMO GAP               1.470360543125 eV   |
           -------------------------------------------------

------------------------------------------------------------------------
 * finished run on 2024/06/05 at 19:59:21.957     
------------------------------------------------------------------------
 total:
 * wall-time:     0 d,  0 h,  0 min,  0.123 sec
 *  cpu-time:     0 d,  0 h,  0 min,  0.094 sec
 * ratio c/w:     0.764 speedup
 SCF:
 * wall-time:     0 d,  0 h,  0 min,  0.025 sec
 *  cpu-time:     0 d,  0 h,  0 min,  0.025 sec
 * ratio c/w:     1.000 speedup
 ANC optimizer:
 * wall-time:     0 d,  0 h,  0 min,  0.063 sec
 *  cpu-time:     0 d,  0 h,  0 min,  0.056 sec
 * ratio c/w:     0.899 speedup

