72
 energy: -99.173821741733 gnorm: 1.060663027879 xtb: 6.6.1 (8d0f1dd)
N           -1.90385725485989        2.76768606065794        2.19362325771454
C           -1.85639789329331        2.10639046509350        1.13412049446559
C           -3.01997135761450        1.91159976787951        0.19908685230503
C           -3.53038116366352        0.48689855735434        0.31832560173110
C           -4.66135389210271        0.11315699240851       -0.62386898969509
C           -4.99771179202979       -1.36285817124796       -0.54787939580193
O           -5.93296410644750       -1.86044790871776       -1.33414123773500
C           -6.63441318969018       -1.20484884974098       -2.21001220141494
C           -4.41957642824802       -2.23725246651732        0.40048113224698
O           -4.88048726783080       -3.50663494984542        0.35669850863918
C           -4.43430664568011       -4.42843151963051        1.32534383223684
C           -3.45754890565551       -1.75780786024146        1.26663717434411
C           -3.02840260115524       -0.40904224125497        1.19668856351338
C           -2.47376655883383        2.13365182391658       -1.23843249055524
C           -1.55381916242589        1.00955753164362       -1.74826232040792
C           -0.20120576491731        1.04798727714160       -1.14565822107199
N            0.49789217366380       -0.01652132681056       -0.75489181805409
C            1.87280329037113        0.12293019140483       -0.33842006384732
C            2.85991299290112       -0.33070900303534       -1.43048246056384
C            4.26964187887189       -0.12680741423678       -0.95055107000074
C            4.91020324323960        1.08649261736441       -1.13631711744734
C            6.19825802835125        1.28830325747558       -0.66432475933628
C            6.86969797980893        0.27869425026742        0.00907727544753
O            8.11935957382082        0.36203619282753        0.50605568791003
C            8.85182524366095        1.55123752483757        0.32159650377417
C            6.21807366975054       -0.96848345499958        0.20981507591241
O            6.94196695964207       -1.89483207376505        0.87243930327542
C            6.39048238289451       -3.17110985523948        1.08905243753470
C            4.93051396095860       -1.14665235905937       -0.26952746155942
C           -0.05135201499764       -1.34975016764473       -0.79086723132660
C           -4.18738046495951        2.90869509015567        0.47216210973821
C           -4.84652702135473        2.63932296643618        1.82327750707728
C           -3.75670392949605        4.37116133879424        0.39679705164134
H           -5.56768227079024        0.62537315250739       -0.21467106766632
H           -6.53879588903880       -0.14697696635010       -2.38111352473232
H           -7.35746060201576       -1.79018078947605       -2.74439206927221
H           -4.53406295478077        0.33458436457619       -1.32245326783375
H           -4.64557190839341       -4.07657514807076        2.33896209129492
H           -4.99404914585800       -5.34224265216300        1.13545034560953
H           -3.36373205361775       -4.63085568544636        1.22280328057651
H           -3.01503849311043       -2.39740022954098        2.00971181684267
H           -2.26061464493286       -0.10725359876870        1.89302908708522
H           -3.31642072206367        2.22825764706440       -1.92350842021447
H           -1.92592417138154        3.07591136542437       -1.26344227025322
H           -2.02538750665754        0.04076902278520       -1.59298100136804
H           -1.44271487595307        1.15439769118423       -2.83089130684757
H           -0.93977532687832        1.61740694349803        0.75140737708188
H            0.32398562987696        1.99097744441144       -1.15674399363492
H            2.03504623973306       -0.47182250834160        0.56507351714349
H            2.07192929189537        1.16871201806190       -0.09702358989660
H            2.68229643912937        0.25761663030771       -2.33220722538243
H            2.69051724251345       -1.38225620586307       -1.66479710443295
H            4.41224483578292        1.88549220478756       -1.66444083202768
H            6.67361536656840        2.24088158553167       -0.83086945744345
H            8.36891310092610        2.40043332768773        0.81493954475359
H            8.99033978647947        1.77554016783507       -0.74035666768685
H            9.82145977176373        1.37113085852847        0.78173718517812
H            7.15844618934642       -3.73631864114768        1.61351467817430
H            5.49161790276505       -3.12005606552634        1.71229510704417
H            6.15419181578508       -3.67220275019640        0.14505692464993
H            4.42948755761205       -2.09180236522080       -0.12952262992264
H           -0.22234984781704       -1.67891464413322       -1.81864310809984
H           -0.99839871359147       -1.39005840609213       -0.24705861824837
H            0.64643582834326       -2.03637989027748       -0.31861311079631
H           -4.93068483714733        2.74824634016929       -0.31743997629898
H           -4.15160296681930        2.87304197973340        2.62252182648243
H           -5.14854462637461        1.59977552329540        1.92404769512644
H           -5.72765182581131        3.26638436203362        1.93212296322648
H           -2.98131592836157        4.57797661300890        1.12734679631315
H           -3.39864042191842        4.63789946708470       -0.59411376975157
H           -4.61093836486518        5.00385608332656        0.62259817071672
H           -1.04915726602386        2.84715899259310        2.73628791641878
72
 energy: -99.334991175291 gnorm: 0.046527600131 xtb: 6.6.1 (8d0f1dd)
N           -1.90366849668888        2.76778655061755        2.19350698582527
C           -1.85626322325172        2.10661516087809        1.13409413526350
C           -3.02030864554720        1.91084528720278        0.19977347451221
C           -3.52895586808366        0.48599874002610        0.33597038286226
C           -4.68556585041146        0.08399835423421       -0.51922179755433
C           -5.00395534853050       -1.37229154711941       -0.53399002522198
O           -5.93239966050370       -1.86169974865553       -1.33410976459198
C           -6.63426428990228       -1.20480288496059       -2.20919039411256
C           -4.41897753743862       -2.24224678050335        0.40348722563205
O           -4.88057922498289       -3.50916952622594        0.35702892624813
C           -4.43410666676798       -4.42935535390075        1.32574635601127
C           -3.45720881995724       -1.75914291204500        1.26841171705909
C           -3.02453179473013       -0.41100753180155        1.20202977439440
C           -2.47408924912715        2.13336551275845       -1.23820660051718
C           -1.55383015077956        1.00954711886390       -1.74819274906285
C           -0.20116489940292        1.04801543205788       -1.14562603935768
N            0.49793809831436       -0.01651762292314       -0.75491356710590
C            1.87280418862001        0.12289773032032       -0.33840684845356
C            2.85990960035083       -0.33069529344457       -1.43050470453970
C            4.26962944862731       -0.12681436326705       -0.95057197381357
C            4.91021991585205        1.08647433394574       -1.13635585031580
C            6.19826797961004        1.28828696027526       -0.66435518459942
C            6.86973113129235        0.27869548231445        0.00907715766812
O            8.11937133248468        0.36202479329234        0.50601207049080
C            8.85183206036580        1.55124392972148        0.32160620887570
C            6.21808712831198       -0.96848484094392        0.20979815543290
O            6.94197129203660       -1.89483294746672        0.87240109512522
C            6.39050170413431       -3.17111744373572        1.08904705029565
C            4.93051217352862       -1.14663096400103       -0.26953920025067
C           -0.05145376254967       -1.34977757607707       -0.79083706691197
C           -4.18737355060739        2.90870380081612        0.47225590812478
C           -4.84651506884558        2.63941449173125        1.82338142198069
C           -3.75668050560867        4.37113907370620        0.39678155809530
H           -5.58213271351108        0.62576623470484       -0.19110426471157
H           -6.53860046390866       -0.14710732933985       -2.38074188212212
H           -7.35697523606852       -1.78989049104859       -2.74448946314433
H           -4.49983451864058        0.38903610365916       -1.49838458513590
H           -4.64564517606406       -4.07671218330444        2.33895926815907
H           -4.99389997721162       -5.34262713039396        1.13559211439399
H           -3.36359009733166       -4.63090088615458        1.22285536334942
H           -3.01451073507342       -2.39819848468097        2.01034784673470
H           -2.25798372104246       -0.10779279266733        1.89501031026975
H           -3.31646931373367        2.22819230814874       -1.92348950371393
H           -1.92611682041707        3.07577941099270       -1.26340138609456
H           -2.02549859500192        0.04067809394803       -1.59299034660723
H           -1.44262812366873        1.15452357543689       -2.83092943871250
H           -0.93981739686402        1.61742242188648        0.75150258473326
H            0.32402677578230        1.99099791082856       -1.15675398065885
H            2.03505482065569       -0.47194783491478        0.56505789718270
H            2.07196851166144        1.16871758783787       -0.09691295857150
H            2.68227543460167        0.25765622741422       -2.33219986090459
H            2.69052942098267       -1.38225287893630       -1.66483901426207
H            4.41227203393242        1.88549357025243       -1.66446595090400
H            6.67363354834561        2.24086716638829       -0.83090393645045
H            8.36890218147425        2.40042201404625        0.81493545757281
H            8.99037359131022        1.77555073530497       -0.74033624153573
H            9.82144765078706        1.37113211148351        0.78176055994452
H            7.15847359124844       -3.73630385707893        1.61350718622116
H            5.49163974157499       -3.12006146494936        1.71228537119177
H            6.15421134310215       -3.67221964728763        0.14505454933400
H            4.42952267205433       -2.09181379325615       -0.12952936532203
H           -0.22243045879696       -1.67887888494675       -1.81852927706003
H           -0.99842861780940       -1.39000280405195       -0.24700142410183
H            0.64636135607088       -2.03640665137712       -0.31863725167751
H           -4.93071657947373        2.74819563185365       -0.31735503450551
H           -4.15159893220635        2.87312122845248        2.62259008723033
H           -5.14853702138052        1.59983758723990        1.92416042943475
H           -5.72762965232736        3.26643532279802        1.93215911584154
H           -2.98135123429555        4.57801502624072        1.12739448614026
H           -3.39856586399767        4.63790192386880       -0.59408534689081
H           -4.61096874653887        5.00387300195055        0.62254560143325
H           -1.04913052103437        2.84717602645426        2.73623928902952
72
 energy: -99.336804575960 gnorm: 0.033848802402 xtb: 6.6.1 (8d0f1dd)
N           -1.90389680448204        2.76694090180530        2.19501053859449
C           -1.85854801605472        2.10434518621081        1.13642100924226
C           -3.02396027697129        1.90956268734757        0.20284359119921
C           -3.53652930494994        0.48618970011089        0.33373762867426
C           -4.68855539238846        0.09581628163423       -0.54434211033072
C           -5.00864501056503       -1.36515228570206       -0.52825115337017
O           -5.93216468221466       -1.85937151968722       -1.32867134362985
C           -6.63498665769698       -1.20499531474518       -2.20434242950069
C           -4.42492637001907       -2.24161750769466        0.41356557281397
O           -4.88019421765864       -3.51238337415593        0.36362605462717
C           -4.43037553084468       -4.43552107988247        1.32875448248616
C           -3.46004126943650       -1.76068293265174        1.27641193700974
C           -3.02534619778533       -0.41319107953963        1.20463716019671
C           -2.47473462641053        2.13185241098244       -1.23386540840396
C           -1.55382310926072        1.00935349093896       -1.74575077468266
C           -0.20087246383964        1.04778705823074       -1.14370853955797
N            0.49807340693379       -0.01712958098074       -0.75378942525413
C            1.87314474156956        0.12160043603138       -0.33775209957075
C            2.85993703651164       -0.33069869975486       -1.43072097629954
C            4.26983905672590       -0.12700284970249       -0.95113658864769
C            4.91063066701207        1.08613501163697       -1.13729958364352
C            6.19868329675180        1.28799445973214       -0.66539433584407
C            6.87012021718164        0.27850093116232        0.00816072871760
O            8.11963544544128        0.36189278633579        0.50527683560129
C            8.85203164872282        1.55127319969851        0.32166712255448
C            6.21849851785280       -0.96866044169438        0.20901766600312
O            6.94243746526225       -1.89490960379066        0.87169452874657
C            6.39108840494324       -3.17118128258078        1.08877106125667
C            4.93086081560499       -1.14676479238246       -0.27016664397293
C           -0.05261779768211       -1.34994281073500       -0.78938523738062
C           -4.18917306482499        2.90928114739480        0.47428443526469
C           -4.84771705681581        2.64224621934395        1.82618501559930
C           -3.75684675174640        4.37128902580215        0.39731655402607
H           -5.58972514318539        0.64343010396927       -0.22274209520991
H           -6.54736772809574       -0.14591223756191       -2.36998724931497
H           -7.34449560985032       -1.79491193070976       -2.75177685399969
H           -4.49585294328483        0.39867921614887       -1.53898210430418
H           -4.64344418885784       -4.08548686910747        2.34241241702053
H           -4.98755051987518       -5.35029601836909        1.13744437973752
H           -3.35898620367762       -4.63285899354144        1.22591641890652
H           -3.01238228602172       -2.40182325170182        2.01503736122816
H           -2.23968107351841       -0.11799040916107        1.88398990307555
H           -3.31620592128985        2.22952089087007       -1.91992476435399
H           -1.92712490609134        3.07431017096621       -1.25698662479596
H           -2.02600801577651        0.04037529619929       -1.59139855129572
H           -1.44223266548792        1.15615911108802       -2.82849299094260
H           -0.94234495931976        1.61607067701432        0.75210727156109
H            0.32468120803295        1.99062121771570       -1.15542663974050
H            2.03561313275165       -0.47457146480688        0.56480333697971
H            2.07264676846114        1.16708025453792       -0.09473469468464
H            2.68187292380745        0.25847510021518       -2.33181305394432
H            2.69060055632812       -1.38207850172174       -1.66592037958498
H            4.41281703986954        1.88516623917461       -1.66543973132446
H            6.67422422417139        2.24044649354588       -0.83221564187024
H            8.36863348068781        2.40022331496727        0.81488091234174
H            8.99120289375520        1.77586955473448       -0.74009680006456
H            9.82140327313916        1.37125398869155        0.78238005258699
H            7.15926448485523       -3.73603104237668        1.61329743691060
H            5.49225586895100       -3.12008055596321        1.71208001234128
H            6.15483156079141       -3.67260364548501        0.14493450539281
H            4.42992757711448       -2.09191981300665       -0.13000072627868
H           -0.22470535670212       -1.67857731312130       -1.81694620290533
H           -0.99928388613231       -1.38917263228360       -0.24494527897287
H            0.64489883667290       -2.03737386768510       -0.31793757457653
H           -4.93219487738011        2.74776213964850       -0.31517430693253
H           -4.15192260862500        2.87701812892945        2.62443980185262
H           -5.15014239822958        1.60304344286408        1.92861581618847
H           -5.72851201389850        3.26978516892597        1.93439658869625
H           -2.98218517102750        4.57826649231680        1.12869510394119
H           -3.39747919735161        4.63713530963774       -0.59339003449336
H           -4.61113211561965        5.00474519298643        0.62128080288049
H           -1.04842456195920        2.84753478522986        2.73607974802189
72
 energy: -99.337741680057 gnorm: 0.017324268524 xtb: 6.6.1 (8d0f1dd)
N           -1.90432479910805        2.76601162494763        2.19787065771167
C           -1.86051260756581        2.10257466663228        1.13989512469293
C           -3.02588646459363        1.90882538326220        0.20574409052272
C           -3.54194582677812        0.48603693529778        0.32776296139973
C           -4.68654473912875        0.09954515250314       -0.56902511310559
C           -5.01780447896322       -1.36166640469395       -0.52182371137566
O           -5.93746908473366       -1.86206977616434       -1.32144214736870
C           -6.63951096043672       -1.21098747911394       -2.19912356822841
C           -4.43097990524585       -2.24152648009482        0.42082206192775
O           -4.88380213087809       -3.51415780927045        0.37121659369568
C           -4.42720187437150       -4.43904883153652        1.33258610532944
C           -3.46169039406171       -1.76109196641212        1.27861763873115
C           -3.02543018671556       -0.41463791793940        1.19874586317299
C           -2.47315462420463        2.13503885086548       -1.22901193877272
C           -1.55364280442123        1.01149383212531       -1.74112988556781
C           -0.20031354343077        1.04807171299990       -1.13967785138014
N            0.49808111853752       -0.01783338340241       -0.75140046306795
C            1.87364478625902        0.11919262823995       -0.33627683627447
C            2.85978612640036       -0.33068394680793       -1.43095642256363
C            4.27008583118310       -0.12730963758831       -0.95220241211692
C            4.91114987830845        1.08564411463110       -1.13890380849671
C            6.19937233238516        1.28744400211801       -0.66738410499216
C            6.87081611689441        0.27813746435467        0.00646704135091
O            8.12018619031013        0.36157953308960        0.50383393380935
C            8.85230302384144        1.55134629002476        0.32156478828343
C            6.21912452702432       -0.96896799789325        0.20750718096887
O            6.94322846549717       -1.89505072293026        0.87018430049439
C            6.39216986087116       -3.17132447828270        1.08799051900659
C            4.93134421834106       -1.14704668366035       -0.27136773378577
C           -0.05475298160313       -1.34987058427092       -0.78684742774184
C           -4.18957483940230        2.91038190162338        0.47721102630179
C           -4.84839529443832        2.64586266692701        1.82951124059203
C           -3.75649580322233        4.37208645345442        0.39902601528671
H           -5.58899299397051        0.65732918139589       -0.25881320799501
H           -6.55941426976410       -0.15062247412669       -2.35931863508310
H           -7.33480625243869       -1.80554746930166       -2.75961157544663
H           -4.48545658019170        0.39814873454952       -1.58768946003321
H           -4.63990256104355       -4.09439185699572        2.34825509112854
H           -4.97967101302310       -5.35629574439864        1.13922115682977
H           -3.35517240833134       -4.63175261298326        1.22691431163344
H           -3.01220908415459       -2.40137615326587        2.01803328346048
H           -2.23807399526215       -0.11982635315021        1.87759526099784
H           -3.31323750176583        2.23622794309311       -1.91628188237497
H           -1.92455128149207        3.07692888258203       -1.24843747289268
H           -2.02735567677969        0.04295122442122       -1.58772789254880
H           -1.44145235392849        1.15993532930527       -2.82373361401347
H           -0.94436143890148        1.61496968339868        0.75460161481601
H            0.32647944260560        1.99020416389447       -1.15240696711914
H            2.03666569699149       -0.47943231904650        0.56458777072735
H            2.07379881933582        1.16401237390840       -0.09065591793748
H            2.68081062826012        0.26008075487888       -2.33082368123133
H            2.69059216466892       -1.38169645452908       -1.66796907157526
H            4.41346763884185        1.88466364073776       -1.66720711259155
H            6.67507426583255        2.23973994763993       -0.83461394428578
H            8.36801146314720        2.39985555069569        0.81465276831986
H            8.99266172978446        1.77651583106016       -0.73991780312967
H            9.82119155624346        1.37145409183091        0.78333068996932
H            7.16059004271441       -3.73568350575619        1.61269031440668
H            5.49346357149645       -3.12010353439201        1.71144260610493
H            6.15584737027595       -3.67331252827895        0.14447747914282
H            4.43054269888892       -2.09225004036649       -0.13091629386132
H           -0.22883155522089       -1.67760489621994       -1.81426601806373
H           -1.00090047918768       -1.38759857904531       -0.24143643567498
H            0.64235518898039       -2.03872654256439       -0.31685978058440
H           -4.93293566099284        2.74886285709824       -0.31165833329419
H           -4.15234858198961        2.88131857481213        2.62738542145317
H           -5.15118151631939        1.60686141893837        1.93272012013377
H           -5.72871979277455        3.27423183709076        1.93734766113277
H           -2.98305951607205        4.57964486034530        1.13150438587112
H           -3.39523148607457        4.63665588612293       -0.59131102525736
H           -4.61089941289013        5.00634161188359        0.62052450719360
H           -1.04813040105075        2.84742709419623        2.73765280583075
72
 energy: -99.337966138576 gnorm: 0.007748640253 xtb: 6.6.1 (8d0f1dd)
N           -1.90603445398865        2.76502648349098        2.19966648668958
C           -1.86275742657785        2.10089727086274        1.14210973866616
C           -3.02703016744228        1.90957668931232        0.20603744225221
C           -3.54384029781037        0.48643559983320        0.32372123986243
C           -4.68392829141307        0.09590594804723       -0.57630194474013
C           -5.02226865332957       -1.36296637890884       -0.52024372879325
O           -5.94198212513608       -1.86651461474571       -1.31827465714144
C           -6.64351384075240       -1.21804569631942       -2.19795975924521
C           -4.43233339535178       -2.24159478633224        0.42112724429043
O           -4.88764994001589       -3.51342034304341        0.37519846659641
C           -4.42611099882294       -4.43836934675566        1.33443760373642
C           -3.46168534464918       -1.76017274213246        1.27643179686446
C           -3.02811679091060       -0.41308276148870        1.19478770020741
C           -2.47053054464522        2.13882482351923       -1.22680514460610
C           -1.55187404511233        1.01469173552523       -1.73908453639158
C           -0.19907037680031        1.04894197366299       -1.13633896187607
N            0.49822965099249       -0.01810056189830       -0.74922312996175
C            1.87415712534364        0.11703448502276       -0.33460736787107
C            2.85951258363820       -0.33078457777026       -1.43092834974319
C            4.27019504005103       -0.12767776178659       -0.95306393268338
C            4.91146334210894        1.08511589392172       -1.14028061008125
C            6.19988470855415        1.28685669247462       -0.66919183605060
C            6.87135608934665        0.27773068696922        0.00492819507206
O            8.12066033945156        0.36120694688099        0.50246515365715
C            8.85242991252564        1.55136827496157        0.32131540122885
C            6.21959622427171       -0.96932755334487        0.20613051004326
O            6.94389725601607       -1.89524233276518        0.86880582225160
C            6.39306562724789       -3.17148601184896        1.08729408060888
C            4.93165908691158       -1.14741023329125       -0.27236887422881
C           -0.05667001166795       -1.34932390195181       -0.78471971033045
C           -4.19010447763318        2.91174343516532        0.47850311275507
C           -4.84849677570564        2.64722841211011        1.83102844841692
C           -3.75598756979813        4.37315750364877        0.40048615344516
H           -5.58448074817425        0.66192342288690       -0.27720618496431
H           -6.56602371099351       -0.15752309963071       -2.35785137103083
H           -7.33568515619647       -1.81414589925068       -2.75998764844771
H           -4.47800590261894        0.38970698737244       -1.60874893231196
H           -4.63752789764742       -4.09709047870444        2.35151060694505
H           -4.97533449209024       -5.35740125600966        1.14005492522946
H           -3.35373406890221       -4.62743029183386        1.22586804933012
H           -3.01168224151639       -2.39884223964520        2.01676672053381
H           -2.24447435916138       -0.11519576159547        1.87611546304574
H           -3.30924562467390        2.24299011200344       -1.91519782166697
H           -1.92006102105521        3.07968405286867       -1.24256388521641
H           -2.02705053040793        0.04686695207227       -1.58640183673209
H           -1.43849716805373        1.16349339334801       -2.82148169905315
H           -0.94630110490204        1.61340027157080        0.75701081716040
H            0.32895325895827        1.99038478773437       -1.14857292990329
H            2.03738846717184       -0.48376081289143        0.56477473020495
H            2.07501723165969        1.16120318152427       -0.08677119015268
H            2.67964008284046        0.26143370238573       -2.32965848246418
H            2.69041032717612       -1.38145015348671       -1.66958577833430
H            4.41378472754886        1.88409439212482       -1.66869947408776
H            6.67565428323617        2.23905546259173       -0.83682953982614
H            8.36728313893542        2.39948809629571        0.81425390656408
H            8.99380684083724        1.77701620082006       -0.73994052395073
H            9.82090783369648        1.37165723892722        0.78401335927997
H            7.16165838161786       -3.73547611318401        1.61214297114937
H            5.49449172970957       -3.12009577141057        1.71089696230944
H            6.15663781397652       -3.67397077656105        0.14408067027858
H            4.43094787727539       -2.09263872640353       -0.13158825174093
H           -0.23240650538655       -1.67638537673799       -1.81206764992923
H           -1.00233529676486       -1.38572735748622       -0.23835492619522
H            0.63987443552980       -2.03947832387325       -0.31581866392559
H           -4.93397379670277        2.75064252527094       -0.30999823405166
H           -4.15258045503142        2.88251190724726        2.62910795007918
H           -5.15157790986620        1.60822668923019        1.93381942327126
H           -5.72848041994253        3.27606444998766        1.93903448251625
H           -2.98344241869668        4.58090385634804        1.13387086249817
H           -3.39327473323615        4.63728365406754       -0.58940448991514
H           -4.61035997849811        5.00789638365533        0.62065095714093
H           -1.04952675154917        2.84660098983954        2.73893944606105
