72
 energy: 0.000000000000 xtb: 6.6.1 (8d0f1dd)
N           -1.47310921155849        2.74401293103706        2.22063921685122
C           -1.55658879776851        2.16490285539332        1.13274273951491
C           -2.74549199786261        2.05621232186130        0.23826248438941
C           -3.31377553111525        0.64333411542669        0.32332512650568
C           -4.30230156009016        0.24487110156316       -0.58026161703006
C           -4.85238763031941       -1.02286490450319       -0.53363588718165
O           -5.81419972815119       -1.48606034185536       -1.36157882725342
C           -6.39655633239252       -0.60827000183299       -2.29568474302620
C           -4.39972501531283       -1.94646102182611        0.44396929121966
O           -4.98748311285188       -3.16145997157803        0.41085992006324
C           -4.66362127904578       -4.10093827755394        1.40909127743729
C           -3.42072513477031       -1.54561384810496        1.33436546260297
C           -2.88302799614223       -0.26315800396994        1.27400150770375
C           -2.19303798107274        2.30467000305896       -1.18742977106749
C           -1.26651538239283        1.17243369445008       -1.65249429687285
C            0.01082524939134        1.09745454476277       -0.89354803499847
N            0.61779393476578       -0.02034948052406       -0.57705522512502
C            2.00145210352228       -0.02376006389122       -0.15611399603240
C            2.92554934655222       -0.53865282675074       -1.27700088804721
C            4.35756843073516       -0.43050757231754       -0.83075544324989
C            5.07346135469827        0.73206409086248       -1.03980965825901
C            6.38627986649936        0.84224441421807       -0.60344822702769
C            7.00047264773336       -0.20824756335880        0.05722314418200
O            8.26703657141718       -0.21011313101264        0.52410943644933
C            9.06912227848686        0.92943601033931        0.31863058007678
C            6.27039964270142       -1.40439753960823        0.28033466008274
O            6.94829939911432       -2.38012925705718        0.92751999079483
C            6.31537317745639       -3.61583200086742        1.15217711710877
C            4.96302794628964       -1.49347471867959       -0.16064430359178
C           -0.05511211367372       -1.29906247805359       -0.62085686319744
C           -3.86758037025447        3.07992600430699        0.58498060215443
C           -4.49286159663096        2.77383493050346        1.94313289484366
C           -3.39165179876499        4.52917666589254        0.54797523472093
H           -4.66030026466202        0.94509067363451       -1.31640568823548
H           -6.85037928558380        0.25803162192116       -1.80468845313260
H           -7.17287442604349       -1.18600110843259       -2.79318157561361
H           -5.66836817451085       -0.26952966318766       -3.04040255244073
H           -4.88416720672258       -3.71589460520039        2.40913542187496
H           -5.29223570620378       -4.96637458756866        1.20969236903657
H           -3.61139813139015       -4.39919835331056        1.35529357841967
H           -3.07077796610445       -2.21868765711333        2.10002662693138
H           -2.14562754426994        0.02067850696302        2.01001344383370
H           -3.02188875377605        2.38238012313952       -1.88813545054866
H           -1.65198530896729        3.25146700677685       -1.20556284570283
H           -1.81103374245520        0.23006524641044       -1.62116301628650
H           -0.99335688527853        1.37490212198123       -2.69443256973690
H           -0.67628064361333        1.65183887049447        0.61785727145403
H            0.63525841192517        1.98466369793744       -0.92314021190751
H            2.11132552493482       -0.65949692842762        0.72532613231274
H            2.30680473056284        0.98978251704176        0.11078972794250
H            2.76694198818247        0.06750735147374       -2.17075252200790
H            2.67954581369920       -1.57455627803457       -1.51167743520200
H            4.62169998552446        1.56295612048703       -1.56123579000624
H            6.92357674630170        1.75715815945204       -0.79119596719031
H            8.65159112996149        1.81001823324363        0.81701555159939
H            9.20136171144928        1.14042857828877       -0.74698991949293
H           10.03428838009630        0.69003240176163        0.76064937965836
H            7.05567174969094       -4.23621171795340        1.65347565939075
H            5.43848001056755       -3.50813558175093        1.79970565785717
H            6.02060041905269       -4.09420497120334        0.21253282636366
H            4.40102758497114       -2.40127266373392       -0.00490198249042
H           -0.22071299714579       -1.61775583601871       -1.65116008982042
H           -1.01972258008625       -1.24102717432227       -0.10935206830928
H            0.55899954147532       -2.04486085926761       -0.12333730421426
H           -4.63991875734388        2.95501092798550       -0.18098088071825
H           -3.76095216473977        2.90314704960906        2.73380821053058
H           -4.87457614030224        1.75695641518947        1.97884603101694
H           -5.31925552549014        3.45579210326349        2.12325564252114
H           -2.60025590131176        4.69225046143352        1.27368918226171
H           -3.03987406413880        4.81897652321898       -0.43870975059559
H           -4.22191740670577        5.18069648090034        0.80616693961239
H           -0.59832433787845        2.77744694953323        2.72958984441332
72
 energy: -5.703386038764 xtb: 6.6.1 (8d0f1dd)
N           -1.56253127363118        2.69916355702067        2.27503552802132
C           -1.59820354955864        2.12658160557585        1.15647521096069
C           -2.77596451414599        2.07250948851253        0.23185053133598
C           -3.34961877383339        0.66901017872903        0.29459967072631
C           -4.34395806462124        0.25347768595793       -0.58940639281439
C           -4.87457183158868       -1.02058237320429       -0.52517327870790
O           -5.83719226366488       -1.50889389993695       -1.35477396518365
C           -6.41844560878988       -0.64131354010013       -2.29265978543754
C           -4.41474501066268       -1.92464705511203        0.45791359736873
O           -4.99842885707941       -3.15597558286230        0.44138973487720
C           -4.64764300099464       -4.08078084985534        1.43617337517104
C           -3.42975446672112       -1.50961781853145        1.33129417086991
C           -2.89364582444676       -0.23101276962757        1.23177735621130
C           -2.19857779626063        2.32843741296113       -1.18355528891972
C           -1.27109015903833        1.19953138836239       -1.68143680811895
C            0.00859346752836        1.12131600852710       -0.92111204936714
N            0.62002902591403       -0.07265138323870       -0.53532667130021
C            2.00642558264262       -0.08036615216906       -0.16245078580746
C            2.95911044415174       -0.54747058005862       -1.27667543735078
C            4.37880568493815       -0.42995502316981       -0.81394442266839
C            5.09112293726454        0.73642937178254       -1.01504912570845
C            6.40379077555029        0.84437755235431       -0.58312371848573
C            7.01601327645504       -0.21202334364163        0.06593122928317
O            8.29727607364633       -0.21889938202026        0.52668639437719
C            9.09034287299527        0.92019602827017        0.31659002606467
C            6.28967317090129       -1.40324359178918        0.28906688415628
O            6.97314742118711       -2.39018649912121        0.93175554458457
C            6.33360315753777       -3.62037892995590        1.15168759416999
C            4.98363884911900       -1.49343576124869       -0.14752928008415
C           -0.07413166179224       -1.31727634315669       -0.66541877801481
C           -3.88699229263729        3.09389257485506        0.57914873292833
C           -4.52645395082428        2.77954106415438        1.92986263895507
C           -3.38770680940177        4.53601836170852        0.57440791217905
H           -4.70632028930410        0.93993204450104       -1.33662517678378
H           -6.87910112349271        0.22650574343907       -1.80914185617761
H           -7.19088580058946       -1.22744367880469       -2.78701701238833
H           -5.69159550742079       -0.30206691641255       -3.03876444590189
H           -4.86467728928820       -3.69171919354249        2.43575441438583
H           -5.26588164178936       -4.95738496686421        1.24935637533803
H           -3.59203942991152       -4.36749662576257        1.37603051715495
H           -3.06057376373479       -2.17190555895995        2.09853119633093
H           -2.08618712131807        0.03663352150212        1.89667901443896
H           -3.02424649047094        2.43416202009840       -1.88810546478327
H           -1.64094014645269        3.26555515487746       -1.17692984693910
H           -1.82317870744194        0.26187575462462       -1.64812234015975
H           -1.03115622065899        1.40585926903199       -2.73170268690988
H           -0.73217720940059        1.67623096443027        0.62539755190154
H            0.67380268277164        1.96294798955888       -1.01657430478442
H            2.14832248938559       -0.70500556527927        0.72431936982630
H            2.29895205501281        0.93817842737133        0.11736901120628
H            2.79613048241507        0.07327431135911       -2.15966796060955
H            2.71406347799207       -1.58003683908339       -1.52386990112041
H            4.63327066381215        1.56969009683705       -1.52738762414057
H            6.94027101754296        1.76048184390494       -0.76915876638608
H            8.67774229165108        1.80061357183074        0.82077953069224
H            9.21511396426414        1.13717708319312       -0.74999207616217
H           10.06017331267449        0.68071619260901        0.74954432555205
H            7.07428245489404       -4.24722059056284        1.64603040126577
H            5.46003151752640       -3.51353941223188        1.80387277814195
H            6.03106193917122       -4.09476145843441        0.21173642025356
H            4.41698365051816       -2.39805926141199        0.01012497777871
H           -0.19706072926512       -1.61941752458641       -1.71138236545563
H           -1.06302563801385       -1.24430966500050       -0.20430417382009
H            0.49829076635384       -2.08058584716769       -0.14202459279340
H           -4.65481648892484        2.99455866603330       -0.19547881226384
H           -3.79348211492708        2.88259494518767        2.72161177426412
H           -4.92104526564977        1.76698765640021        1.94742481017995
H           -5.34279501985225        3.47218866375649        2.11706305628641
H           -2.59292086546773        4.66382724263690        1.30286944856046
H           -3.02336016503993        4.83414148497062       -0.40506168144142
H           -4.20834178752873        5.19621644598910        0.84372562670919
H           -0.65023620086865        2.67523745287145        2.73881105311601
72
 energy: -2.765084008468 xtb: 6.6.1 (8d0f1dd)
N           -1.62528815133875        2.60761786557252        2.30810676312208
C           -1.63622518775079        2.09917744336089        1.15644903750071
C           -2.80309111680838        2.08530288492347        0.21858909012775
C           -3.38247451252423        0.68994489070638        0.26401357290350
C           -4.38509817397227        0.26215062480012       -0.60051775374747
C           -4.89941778555157       -1.01829277843444       -0.52005350012099
O           -5.85324451855394       -1.52863617033946       -1.34586365620710
C           -6.44089051080053       -0.67507400840303       -2.29126334536188
C           -4.42934586274040       -1.90614663682596        0.47173880782972
O           -5.00398793279068       -3.14298781542923        0.47167965129299
C           -4.63216580187905       -4.05980149526231        1.46384153740399
C           -3.43489153323426       -1.47554038117668        1.32549849706568
C           -2.89314805010681       -0.20409529509086        1.18202237340682
C           -2.20468830508375        2.35242523521380       -1.18461981735516
C           -1.27941086376608        1.22008933684436       -1.69835093497903
C            0.01158280234208        1.11706729673560       -0.94651893206608
N            0.60814137577228       -0.10210328897493       -0.51689261095553
C            2.01627784906938       -0.12643868908174       -0.16771272416032
C            2.98555462025867       -0.55495330129305       -1.27537860445850
C            4.40004504871333       -0.42766765730717       -0.79138775992146
C            5.10767153570649        0.74078492765001       -0.98917804791609
C            6.42177556786764        0.84573247646793       -0.56329269611847
C            7.03598726205062       -0.21559492260857        0.07493231233419
O            8.32005401563720       -0.22690752561877        0.52600092216086
C            9.11289504438140        0.91178528062591        0.31399799059543
C            6.31033821969364       -1.40638038937338        0.29820490132230
O            6.99463962876094       -2.39736096365435        0.93274027412870
C            6.35281643412958       -3.62655234442339        1.15090811333231
C            5.00335724560113       -1.49422630660881       -0.13292152774620
C           -0.09624639593802       -1.33174721302979       -0.71047658196373
C           -3.90477872839251        3.11082960210563        0.57512950733952
C           -4.55867828442676        2.78413468494434        1.91572361833694
C           -3.38318587620969        4.54339124068005        0.60209339246318
H           -4.75609846223511        0.93666208667001       -1.35422624544803
H           -6.90837131137015        0.19244929344057       -1.81439507742349
H           -7.20839323712528       -1.27182990737962       -2.77968809545915
H           -5.71635753969564       -0.33669519302336       -3.03980620048507
H           -4.84657058192037       -3.66549692874673        2.46102674919013
H           -5.24200671460563       -4.94433769572403        1.28718967139001
H           -3.57441708291973       -4.33657147726463        1.39644002294825
H           -3.05145582328476       -2.12385504358682        2.09805957769468
H           -2.02930633996275        0.04850585570328        1.78263996715570
H           -3.02555190377824        2.47911964516384       -1.89153357094807
H           -1.63419353165714        3.27973320847547       -1.15533681950965
H           -1.84044234695609        0.28910022241730       -1.67233977249986
H           -1.05663356108764        1.43182898335879       -2.75132180725808
H           -0.75805011496893        1.72000200718740        0.58046099386416
H            0.69875177184908        1.93704277536620       -1.09005127064121
H            2.17786220218794       -0.74423245199967        0.71823815794296
H            2.29567404970644        0.89427083181512        0.12810372452873
H            2.82678151269698        0.07677503920839       -2.15133853283664
H            2.75070105184615       -1.58559102015668       -1.53616013419053
H            4.64546901190854        1.57718562339239       -1.49269519886253
H            6.95706699024072        1.76226596673674       -0.74843873296944
H            8.70476710872698        1.79005012003442        0.82501474041809
H            9.23013447794508        1.13352883066353       -0.75267042393815
H           10.08608929260356        0.67040018322824        0.73836099168780
H            7.09477786227237       -4.25775162553981        1.63804134498158
H            5.48375101125313       -3.51960907167246        1.80859849345003
H            6.04356596298290       -4.09644724892162        0.21091779288350
H            4.43392794439348       -2.39673575255248        0.02493558189018
H           -0.17113905173392       -1.61728806713753       -1.76578945736901
H           -1.10622851646860       -1.24543183981493       -0.29988819160903
H            0.43448725513302       -2.10957011058373       -0.16198729545752
H           -4.66626584896912        3.03424722866175       -0.20742228874841
H           -3.83016404687926        2.86366709599467        2.71246940687588
H           -4.96674979275533        1.77716387815487        1.91579956690566
H           -5.36580891000457        3.48541752862316        2.10939469626809
H           -2.58822968831812        4.64025491395223        1.33497186684161
H           -3.00770645526224        4.85304227711598       -0.36897974797821
H           -4.19393447920731        5.21109436339952        0.88232933524854
H           -0.70020257855408        2.58002466306478        2.75650139945388
72
 energy: 2.279425248315 xtb: 6.6.1 (8d0f1dd)
N           -1.67973200854453        2.50567727180325        2.32931766878809
C           -1.66737248227679        2.06762216101189        1.14730517705820
C           -2.82866464282861        2.09663345520427        0.20323824745038
C           -3.41469204676707        0.70882904244553        0.23224336438303
C           -4.42649768362385        0.26932976008261       -0.61150218454667
C           -4.92467471911117       -1.01711447937759       -0.51479457237560
O           -5.87007367653119       -1.54854506841935       -1.33665891859058
C           -6.46338753225770       -0.70827926370192       -2.28926021415152
C           -4.44449797712445       -1.88857299853327        0.48572489661924
O           -5.01023279117015       -3.13059837393457        0.50275740126716
C           -4.61665364908028       -4.03934348255765        1.49200710831293
C           -3.43903759519119       -1.44315975772024        1.31806001406891
C           -2.88838350054030       -0.18272063776299        1.12610748865510
C           -2.21141091890469        2.37802020656344       -1.18694747467572
C           -1.29114547381158        1.24219906408289       -1.71728230199844
C            0.00741964516597        1.11691741358882       -0.97216389386233
N            0.58890604973808       -0.12385181365668       -0.49613705947686
C            2.02353871645898       -0.13822471801770       -0.15480304395505
C            3.00740911373533       -0.55373029437008       -1.26561752594488
C            4.41855620204210       -0.42274553230425       -0.76560802552025
C            5.12386648010194        0.74633195223745       -0.96234796465899
C            6.43971896264549        0.84748295839843       -0.54366103564831
C            7.05555358872017       -0.21897427745739        0.08372685943815
O            8.34241800788504       -0.23492725682036        0.52535152240921
C            9.13490161088780        0.90335906275154        0.31149910562646
C            6.33023150379065       -1.40916088138645        0.30688415636113
O            7.01542632574284       -2.40437899882688        0.93321647245503
C            6.37138639690607       -3.63252382634397        1.15008009116424
C            5.02180359191315       -1.49386695228149       -0.11779912737386
C           -0.11541883894217       -1.34211303974497       -0.75484814027794
C           -3.92078566232167        3.12742542683390        0.57124838134508
C           -4.59013620610599        2.78885267801921        1.90119429161915
C           -3.37702270958367        4.54982357826156        0.62949623495715
H           -4.80580279235697        0.93187495447138       -1.37151173961684
H           -6.93749170192680        0.15898566084555       -1.81893944016855
H           -7.22605611074547       -1.31493733411854       -2.77219953507510
H           -5.74095496218547       -0.37062871895131       -3.04006373401416
H           -4.82830169931530       -3.63989193807160        2.48687077897511
H           -5.21744886845768       -4.93218656413545        1.32599159078008
H           -3.55670398495178       -4.30562357510590        1.41713680898250
H           -3.04282833067471       -2.07658132311465        2.09718442369265
H           -1.97702707239001        0.05668540290833        1.66279264336427
H           -3.02647899646408        2.52797377573328       -1.89537718948273
H           -1.62669866052918        3.29408332880026       -1.13148524605211
H           -1.86086877454929        0.31748632236916       -1.69940788038123
H           -1.08094054851960        1.45948000007443       -2.77137693899153
H           -0.77072446599826        1.75382455594406        0.53062687100718
H            0.71934048215189        1.90919077747008       -1.16557485458184
H            2.20642153497241       -0.77328708400549        0.71441747183256
H            2.29733079008344        0.87157249453205        0.14476064874915
H            2.85666265128053        0.08149480881980       -2.14116051074091
H            2.78338460471612       -1.58447045081156       -1.54052701098215
H            4.65794316861447        1.58554111689449       -1.45798473591912
H            6.97410758705845        1.76432294959382       -0.72790402566868
H            8.73126752435565        1.77953988563402        0.82925391692100
H            9.24467149478042        1.12972346849936       -0.75521971487743
H           10.11126796998504        0.65986218077507        0.72737064820792
H            7.11472281713802       -4.26785884919579        1.63000970800067
H            5.50687955551200       -3.52569051072551        1.81341463776952
H            6.05544140148321       -4.09823069260001        0.21024924120682
H            4.45010644554185       -2.39466058498174        0.03995596215207
H           -0.14243024392218       -1.61163238323615       -1.81776875163404
H           -1.14499797383893       -1.24417226365744       -0.39595247771741
H            0.37240038391802       -2.13489968587226       -0.18415349707078
H           -4.67573134422164        3.07375761264212       -0.21926888760792
H           -3.86699574010478        2.84417040443880        2.70350617413579
H           -5.01259215628905        1.78815998171126        1.88351745697680
H           -5.38770101685141        3.49928969715765        2.10098718002529
H           -2.58258264996897        4.61597543450058        1.36652578017742
H           -2.99038571710241        4.87091660320673       -0.33306495188483
H           -4.17797752955750        5.22494113830118        0.92025901166210
H           -0.74770538338551        2.48199910912297        2.77018008597544
72
 energy: 10.207888748918 xtb: 6.6.1 (8d0f1dd)
N           -1.71261535988538        2.40444654111219        2.32888615720401
C           -1.69308204500198        2.03606299392604        1.12442946572768
C           -2.85451047280808        2.10830670664356        0.18542884390375
C           -3.44655170333275        0.72697843641995        0.19867560336954
C           -4.46803435257286        0.27648622629813       -0.62331054519779
C           -4.95005061725876       -1.01559914214630       -0.51006693095792
O           -5.88734988162565       -1.56797210521413       -1.32726257377672
C           -6.48696199841460       -0.74235316882765       -2.28767457037718
C           -4.45964380622832       -1.87019377571970        0.49940733831314
O           -5.01627943937790       -3.11698915185248        0.53391486228143
C           -4.60105193644302       -4.01777453246240        1.51980072853298
C           -3.44212207778889       -1.41088521031263        1.30874406177998
C           -2.88338111455952       -0.16406140312651        1.06553541501213
C           -2.21853828978872        2.40533111395795       -1.18987731631981
C           -1.30477699873338        1.26677242110656       -1.73472438098851
C           -0.00209294815056        1.12682920656480       -0.99047034731141
N            0.56764978615934       -0.12878335051703       -0.46644287688450
C            2.05283891851824       -0.15700863353468       -0.15079620610272
C            3.03400354567221       -0.55531333449382       -1.26156507686296
C            4.43928429575916       -0.41864435342252       -0.74112127656380
C            5.14029020506374        0.75222557655023       -0.93519902058249
C            6.45768467643224        0.84988640851972       -0.52335647469584
C            7.07522921955207       -0.22182014706103        0.09283466634207
O            8.36489409016137       -0.24243223729740        0.52473052946549
C            9.15726835167195        0.89523755067445        0.30880562185602
C            6.35042305986683       -1.41158912188115        0.31616940123918
O            7.03653848910531       -2.41112348329925        0.93367181477524
C            6.38984468832222       -3.63806631283555        1.14898980198787
C            5.04072855733688       -1.49363984294115       -0.10208625197454
C           -0.13102037521342       -1.34329953186314       -0.79761118064368
C           -3.93579122046160        3.14421834510368        0.56803780326001
C           -4.62023735975843        2.79431335713676        1.88742253128089
C           -3.36983935590361        4.55531347638050        0.65691357021648
H           -4.85550680511965        0.92741105836475       -1.38920174440865
H           -6.96812838263770        0.12504922424209       -1.82515880248408
H           -7.24462231534516       -1.36001599176048       -2.76374112895564
H           -5.76730502737229       -0.40625511397576       -3.04177060732722
H           -4.80956337673217       -3.61340883906937        2.51252765476792
H           -5.19313991904393       -4.91844685912913        1.36438422590747
H           -3.53919591301809       -4.27416562042714        1.43716973715082
H           -3.03316803899126       -2.02857157033958        2.09501614405163
H           -1.93134842588612        0.06220480611028        1.53737894531257
H           -3.02675639984665        2.57772942872618       -1.89917826320031
H           -1.61903199531837        3.30886456792666       -1.10589803181568
H           -1.88257090927695        0.34734956373555       -1.72412592731397
H           -1.10395396061005        1.48880677091775       -2.78922075331507
H           -0.78347717101186        1.77356578815990        0.46890160003326
H            0.73960430206659        1.87919249555978       -1.23841849494786
H            2.23561303188196       -0.80765900780863        0.70550798655796
H            2.31594510239557        0.84458686657483        0.16293401777839
H            2.88833082633900        0.08667523489690       -2.13314416313780
H            2.81650086719744       -1.58491607902001       -1.54758658285017
H            4.67064525835309        1.59348537088767       -1.42417370531739
H            6.99113387514284        1.76693302895863       -0.70713039546504
H            8.75867424442217        1.76963904919530        0.83315405345672
H            9.25955326268227        1.12587789500142       -0.75795612727099
H           10.13667804849996        0.64921759071391        0.71604247390649
H            7.13430902957493       -4.27758683293480        1.62184571953152
H            5.52981924067077       -3.53113153269872        1.81779055526199
H            6.06725659569054       -4.09956299470059        0.20932602075373
H            4.46690841939798       -2.39306180722800        0.05427643491709
H           -0.11090132112661       -1.60198406582726       -1.86552778050084
H           -1.17844966081712       -1.24073856024685       -0.49041264420868
H            0.31347479190399       -2.15231375368111       -0.20891114529355
H           -4.68389845894838        3.11309086683660       -0.23013309228903
H           -3.90301803497451        2.82523710511123        2.69541363513039
H           -5.05816829566139        1.80070282593366        1.85252956147182
H           -5.40765941424669        3.51464277717940        2.09286275064271
H           -2.57583899005947        4.59070728891187        1.39699288451060
H           -2.97332887343419        4.88751594474788       -0.29758723641373
H           -4.16120076843411        5.23701664731033        0.95888552554857
H           -0.78375784041465        2.37909465163895        2.77408854745187
72
 energy: 19.493421445215 xtb: 6.6.1 (8d0f1dd)
N           -1.71797090854220        2.31032651371198        2.29851256546482
C           -1.70937479136514        2.02674862433987        1.07676728120355
C           -2.88013332613475        2.12236095255318        0.16263182245949
C           -3.47436834292723        0.74316479448761        0.16449897512978
C           -4.50791501178225        0.28302817997463       -0.63412588258150
C           -4.97478379968401       -1.01436253340533       -0.50509543839273
O           -5.90451839029165       -1.58685319200326       -1.31722456868411
C           -6.50986391477268       -0.77593825852978       -2.28563409128867
C           -4.47439929432038       -1.85215951057696        0.51289218480152
O           -5.02233197310843       -3.10321370955677        0.56552005597713
C           -4.58583191687972       -3.99650002726659        1.54748477221694
C           -3.44313646008834       -1.38048939644466        1.29718667984935
C           -2.87189803168406       -0.15346539570519        0.99712848340203
C           -2.22942876315043        2.43502826992520       -1.19803790271403
C           -1.32392266142576        1.29481328841327       -1.75405124723064
C           -0.02633224768903        1.15136533218432       -0.99643167475792
N            0.53445173818301       -0.11542189486760       -0.46093133594139
C            2.08035540337138       -0.15458354970742       -0.13724497180646
C            3.05838871516181       -0.55019765513462       -1.25213705077551
C            4.45896317093538       -0.41344715738987       -0.71502379970796