72
 energy: -103.310285263988 gnorm: 0.089970847987 xtb: 6.6.1 (8d0f1dd)
N           -1.48935807729169        2.77747129722234        2.21754161562305
C           -1.56588603128829        2.18049630361704        1.13506180792295
C           -2.74928513079664        2.07031354639197        0.23132594315629
C           -3.31368628147377        0.65309088607582        0.31714573326469
C           -4.29953034052939        0.25289335864792       -0.58895381952285
C           -4.84980976603270       -1.01497456153004       -0.53912673228200
O           -5.81177079075285       -1.48226923797215       -1.37136355955653
C           -6.38563202850822       -0.60824943338210       -2.31199663761383
C           -4.40169265199353       -1.93518677615204        0.44273890366007
O           -4.99496138028927       -3.14916751150669        0.41340395744629
C           -4.67361861337533       -4.08240514252963        1.41736834795248
C           -3.42542771603908       -1.53272000140988        1.33454547393426
C           -2.88635557113308       -0.25180178500984        1.27140043149930
C           -2.18584441917436        2.30536707943654       -1.20107395746889
C           -1.26301861245984        1.17477382397532       -1.66415264721200
C            0.01536031192917        1.11569841617190       -0.90971634278289
N            0.62673185870139       -0.03144076164436       -0.57464221220377
C            2.00432129496290       -0.02821183172996       -0.15791044441417
C            2.93093688511924       -0.54293914563137       -1.27806088059183
C            4.36121828050800       -0.43459634948259       -0.83433682893707
C            5.07732590232934        0.72814835224522       -1.04183434573085
C            6.39002462382116        0.83836920465256       -0.60373916388476
C            7.00467331945529       -0.21225529424574        0.05672150176989
O            8.27204130883463       -0.21204439692746        0.52471195718031
C            9.07280473595333        0.92759870810865        0.31864921392388
C            6.27635164723583       -1.40730296156580        0.27974717877950
O            6.95447301442424       -2.38350028858040        0.92823311080408
C            6.32274171577621       -3.61923556526196        1.15207690423692
C            4.96823961086730       -1.49727859774635       -0.16216994465763
C           -0.05256539266935       -1.30232145306280       -0.62099663702819
C           -3.89452850941500        3.06611598863121        0.62202969889157
C           -4.50577032315816        2.71090240375897        2.01741763472331
C           -3.41861934709905        4.52465801953149        0.52636834164737
H           -4.65313409420832        0.94917389164323       -1.32969542613539
H           -6.84043832611452        0.26197330273662       -1.82876594754353
H           -7.15976513904842       -1.18757419183673       -2.81167085315672
H           -5.65206011706994       -0.27370428574858       -3.05318683437946
H           -4.89583269717370       -3.69154242738709        2.41488082063456
H           -5.30307687607946       -4.94804008882601        1.22130538830888
H           -3.62132081189120       -4.38176486364335        1.36887432821696
H           -3.07843169181525       -2.20096423411395        2.10317675934163
H           -2.14863555794472        0.03485050825428        2.00520004266097
H           -3.01331500439547        2.38826499044391       -1.90269080188354
H           -1.64025012874746        3.24756536471719       -1.21581273197601
H           -1.80564103619371        0.23238958175943       -1.62669273643913
H           -0.99787149506013        1.37300591747173       -2.70897701458491
H           -0.68026898414364        1.66155735631345        0.63110277865912
H            0.64162202158395        1.98634788377907       -0.93906143025188
H            2.11676358449249       -0.66200541789055        0.72607563710750
H            2.30662296085602        0.98518323417605        0.10431123144288
H            2.77147938854808        0.05805397019953       -2.17235509972254
H            2.68372517836504       -1.58085481416235       -1.50995977191359
H            4.62449010157319        1.55791723226242       -1.56195742588610
H            6.92704514537789        1.75405383781604       -0.79120956333635
H            8.65397779323226        1.80755423967754        0.81646612845834
H            9.20518655823179        1.13910545008672       -0.74729306881757
H           10.03822790993913        0.68983361594773        0.76078124224911
H            7.06340040752734       -4.23991902300212        1.65335672780942
H            5.44592463703038       -3.51225588923312        1.79902829239844
H            6.02801580515124       -4.09809249258985        0.21242363111067
H            4.40731019839472       -2.40588913504332       -0.00530618390028
H           -0.21637954113743       -1.62553150259745       -1.65263280902169
H           -1.01683207988504       -1.23922376514083       -0.11484481774059
H            0.55875337226857       -2.04927108805174       -0.11950838160529
H           -4.66460397466478        2.94243769464408       -0.14478739157766
H           -3.76272374058705        2.85423847060572        2.78123697603956
H           -4.87412846138472        1.70772373539139        2.04998453775333
H           -5.33693055328831        3.39705358467592        2.21636032947929
H           -2.65621014438208        4.71474355715429        1.26771586790631
H           -3.01745497729258        4.79232310834170       -0.45545069725851
H           -4.25023533503571        5.18479223978218        0.74376516546343
H           -0.62239515704416        2.81601988520457        2.72530645427878
72
 energy: -103.313424587828 gnorm: 0.036417974474 xtb: 6.6.1 (8d0f1dd)
N           -1.50411559832453        2.80824047627044        2.23079008807675
C           -1.56825427912145        2.16978969463871        1.15635838374912
C           -2.75047212494549        2.06479108280764        0.24465326358795
C           -3.31639886520574        0.65293538660662        0.32126852020548
C           -4.30086991133327        0.25174138006587       -0.58439564706067
C           -4.84912336792439       -1.01590326630770       -0.53752147762184
O           -5.81473337342988       -1.48506092314013       -1.37207269923927
C           -6.38451492812644       -0.60855870027600       -2.31172882271736
C           -4.40325138777787       -1.93428115075609        0.44275097443222
O           -4.99850511846375       -3.15428714047078        0.41274015019940
C           -4.67376003840847       -4.08360180890797        1.41700634395772
C           -3.42982927183205       -1.53174427705610        1.33688992356196
C           -2.89232346566882       -0.25050091560054        1.27573977413370
C           -2.19450125876309        2.30430090007115       -1.18915239524397
C           -1.26117998559931        1.18602207760330       -1.67981361818412
C            0.01450347498140        1.12862840757815       -0.91042497618373
N            0.63427371860956       -0.04444584734411       -0.56530217377527
C            2.00836709215639       -0.03958665128137       -0.16085548634945
C            2.93996406867339       -0.54748628275174       -1.28087268567136
C            4.36780573207777       -0.43965891190265       -0.84375798223603
C            5.08209766423370        0.72579379328884       -1.04545284400316
C            6.39197234634329        0.83813529074361       -0.60256648986946
C            7.00555959045707       -0.21228582232379        0.05808598906422
O            8.28005825867384       -0.21359407420289        0.52781269420266
C            9.07430985044231        0.92777421928152        0.31929090046954
C            6.27801210533207       -1.40596183281864        0.28000531779377
O            6.95891843291949       -2.38561572006192        0.93131660946532
C            6.32291218730702       -3.61875109769544        1.15251955627588
C            4.97366648464866       -1.49870133062742       -0.16660497510129
C           -0.04934155630866       -1.30810226637188       -0.61954195769896
C           -3.89377425291002        3.06363858495281        0.60342384081987
C           -4.49407342746062        2.73757108944423        1.98836726030283
C           -3.42789933027928        4.52111241160196        0.54670399898950
H           -4.64993386525358        0.94805487815877       -1.32860674863749
H           -6.83830661711052        0.26263805466935       -1.82810775781772
H           -7.15960534698144       -1.18560006266489       -2.81348944480843
H           -5.64978894787391       -0.27299527321045       -3.05166232704915
H           -4.89467465616943       -3.69106889697741        2.41482518003744
H           -5.30162637218841       -4.95141371175248        1.22324605936248
H           -3.62056673907166       -4.38032729256374        1.36838730086434
H           -3.07794442689475       -2.20428192649658        2.10226391204779
H           -2.14856041386733        0.03543512284871        2.00314898549454
H           -3.02344192726889        2.39368541861682       -1.89205175413381
H           -1.64351201864116        3.24529164050398       -1.20586775235801
H           -1.79523189952763        0.23854489123840       -1.62992832454618
H           -1.02828079941488        1.38318951713076       -2.73687755792984
H           -0.68803324506667        1.65755670852622        0.66558760525917
H            0.65772395759311        1.99112382477571       -0.97332762609732
H            2.12855883209291       -0.66937061183304        0.72641358746274
H            2.30205349314042        0.97826205295441        0.10228112847955
H            2.76969926426544        0.05862890319646       -2.17134291394475
H            2.68676186401424       -1.58308838984938       -1.51214011111911
H            4.62619291379598        1.55699088154800       -1.56207275585044
H            6.92869850393378        1.75473892444995       -0.78805488220399
H            8.65323672808067        1.80814252284235        0.81595106814502
H            9.20417607343629        1.13942424177579       -0.74728339018372
H           10.04118317713711        0.69284238449156        0.76063575501176
H            7.06181652741501       -4.24162739381823        1.65415579316317
H            5.44438833016753       -3.51106468692247        1.79776426999787
H            6.02705147722387       -4.09612538356664        0.21215494623295
H            4.40952936933673       -2.40475279685676       -0.00663148968432
H           -0.21680151863373       -1.63114107450791       -1.65284427546941
H           -1.01577753026697       -1.24132195200267       -0.11397608041174
H            0.55701991256567       -2.05795877360032       -0.11673476874031
H           -4.68196899491437        2.93652721720315       -0.14629175777876
H           -3.74451101647685        2.86634510928245        2.75887453975286
H           -4.86214988486960        1.72046441760503        2.01844339383907
H           -5.32810453081707        3.40935596425832        2.19844072811246
H           -2.65192418171751        4.70534710964120        1.28213418290989
H           -3.03806603817946        4.77213247138759       -0.43924937011794
H           -4.26283057327166        5.18547456161414        0.75372892740515
H           -0.62745568027152        2.81712035975977        2.73835132168973
72
 energy: -103.314783829706 gnorm: 0.017259757934 xtb: 6.6.1 (8d0f1dd)
N           -1.49605944455643        2.80444429138087        2.21980474543680
C           -1.55760025451358        2.16529877729384        1.13948256357657
C           -2.75208032921545        2.06840153124390        0.24070720840524
C           -3.31266980318495        0.65605471773793        0.31467302743296
C           -4.29975050496273        0.25354388405588       -0.58705712403991
C           -4.84599485010648       -1.01404119425584       -0.53896353910720
O           -5.81546386324253       -1.48515054894638       -1.37268823085805
C           -6.38562823680218       -0.60930567196605       -2.31166715583712
C           -4.39949753855577       -1.93069367851149        0.43992242285121
O           -4.99816321744416       -3.15356085022622        0.41217568648189
C           -4.67403365267693       -4.08130445273439        1.41637230585711
C           -3.42563453735680       -1.52867361465965        1.33296936526655
C           -2.88777654682028       -0.24791382764731        1.26918620528226
C           -2.19597674576861        2.30656374927631       -1.19398646859984
C           -1.26108185717875        1.18209150370846       -1.67521987166116
C            0.00763890247256        1.13430765687195       -0.89771756879678
N            0.63538771343763       -0.04863082708850       -0.55443691387840
C            2.00548655593365       -0.03481911386891       -0.15662818385541
C            2.93741811228006       -0.54402648988466       -1.27660064185017
C            4.36156891748193       -0.43657861602481       -0.83776419858615
C            5.07703930053238        0.72817359298313       -1.04164313983890
C            6.38784177376645        0.83913956924487       -0.60322906594315
C            6.99998104046392       -0.21165752015883        0.05638813462321
O            8.27900729388033       -0.21475097054161        0.52625706354777
C            9.07172140854624        0.92611155683151        0.31852313832369
C            6.27267277715233       -1.40354015464744        0.28004885951399
O            6.95780634192311       -2.38579108349271        0.92992034051268
C            6.32290390971032       -3.61856297966074        1.15190471591969
C            4.96789643633231       -1.49583361875338       -0.16220005296464
C           -0.04916108997082       -1.30668531960948       -0.62090912447315
C           -3.88804207810293        3.06319060671701        0.61876234964725
C           -4.49842159746206        2.72974248336619        1.99696818456370
C           -3.41926371266649        4.51946732090146        0.53727119087933
H           -4.65171147380419        0.95027247707847       -1.33039023535354
H           -6.84038966996395        0.26212556102152       -1.82861871055704
H           -7.16088831249478       -1.18757469739860       -2.81211860527563
H           -5.65255094251948       -0.27335228930402       -3.05325879347504
H           -4.89516314853696       -3.68950198091127        2.41482738368462
H           -5.30326182350053       -4.94818557230859        1.22203859073213
H           -3.62134888733686       -4.38057646714963        1.36876586982976
H           -3.07612087606518       -2.20031896704513        2.10164753411951
H           -2.14733314233507        0.03936414960416        1.99940779328273
H           -3.01896296584702        2.39258235729535       -1.90530651447014
H           -1.63911613014110        3.24573657012552       -1.21695615963026
H           -1.79530699066242        0.23278126552773       -1.62463781958173
H           -1.01493372258383        1.37395245386840       -2.72896891091858
H           -0.68751417526544        1.66467584824602        0.64454062123620
H            0.65099492226378        1.99718965743084       -0.94863705930966
H            2.12576309507617       -0.66196551387233        0.73289322801812
H            2.29807771894756        0.98549539428186        0.10597325313288
H            2.76700031032592        0.06152593309957       -2.16845283521784
H            2.68104289257796       -1.57873352808384       -1.50695158648406
H            4.62123248226259        1.55830621016920       -1.56073068670248
H            6.92603507141437        1.75445673160041       -0.79158420498242
H            8.65230964772099        1.80732723570004        0.81589764752193
H            9.20350445599370        1.13910878788325       -0.74777442339028
H           10.03808021838725        0.68961210579998        0.76048916337635
H            7.06373187549330       -4.23990530466691        1.65279678600702
H            5.44517222328157       -3.51259670410210        1.79884707101755
H            6.02651366498421       -4.09760003153893        0.21234555000213
H            4.40356198153681       -2.40224338491658       -0.00381148964386
H           -0.21667515922690       -1.62618087105613       -1.65628963396546
H           -1.01749220852037       -1.24183896960485       -0.11617388163582
H            0.55722958263907       -2.05636967871021       -0.11904947341781
H           -4.67395959895166        2.93728376349233       -0.13307822341486
H           -3.75972535371698        2.85047647638937        2.78410068194120
H           -4.87057421593427        1.70517157901786        2.04039505106619
H           -5.33614145278796        3.39039096344335        2.21448209201618
H           -2.64401761800081        4.71227651590292        1.27122318416598
H           -3.02648249178883        4.77142301472559       -0.44845279978521
H           -4.25382587467326        5.18744083992737        0.73589004330267
H           -0.60433186714985        2.80048308701657        2.70996122964408
72
 energy: -103.314955146103 gnorm: 0.012747699116 xtb: 6.6.1 (8d0f1dd)
N           -1.51843221056175        2.79633614258149        2.22920101583912
C           -1.56099496497280        2.16991790869025        1.14147793992585
C           -2.75344678314630        2.06890181095184        0.23917983554733
C           -3.31342232395812        0.65452984653331        0.31804063301879
C           -4.29973176549841        0.25161318462908       -0.58487800807332
C           -4.84720749249323       -1.01533016658719       -0.53605595148695
O           -5.81549741077534       -1.48507995537008       -1.37190066239035
C           -6.38363950495780       -0.60860626141440       -2.31118033772309
C           -4.40169415035849       -1.93233516430122        0.44286617143461
O           -4.99912309417261       -3.15569728274934        0.41393980904635
C           -4.67371376475133       -4.08375335821388        1.41688444354796
C           -3.42798386210870       -1.53211058991359        1.33663395372138
C           -2.89019779785297       -0.25122670023775        1.27396159835801
C           -2.19200666949436        2.30744932361428       -1.19263336701422
C           -1.26254219068291        1.17801270711283       -1.66982196844051
C            0.00849776936538        1.13024478341987       -0.90337670096532
N            0.63669493159736       -0.04864738361511       -0.56531658729956
C            2.00607238714722       -0.03425860422638       -0.16582564710788
C            2.94072630399731       -0.54685932686366       -1.28260646232378
C            4.36408174111169       -0.43826673319922       -0.83877986664047
C            5.08077561729359        0.72606768419302       -1.04331547013505
C            6.39151776685187        0.83782510609802       -0.60412346294455
C            7.00270835161468       -0.21257412669965        0.05601556387673
O            8.28083197910761       -0.21338429991583        0.52768688111073
C            9.07333473368360        0.92732526857381        0.31962243188526
C            6.27637200244039       -1.40497294352559        0.27807695070302
O            6.95979081788971       -2.38677849137742        0.93015239008255
C            6.32350655595454       -3.61858766661132        1.15227918087078
C            4.97165150911577       -1.49835357086168       -0.16496737468348
C           -0.05055515284414       -1.30419260484482       -0.62268448752598
C           -3.89062268005297        3.06530156438037        0.61510536187864
C           -4.50039350604664        2.73175590581269        1.99600598815453
C           -3.42312722941170        4.52406271615084        0.53235071621059
H           -4.65176177753560        0.94827133337055       -1.32817165898168
H           -6.83907000886422        0.26275386882701       -1.82866057837376
H           -7.15847227078967       -1.18627199213338       -2.81290173828920
H           -5.64957838199563       -0.27300931025207       -3.05193970540631
H           -4.89562796545310       -3.69391506306184        2.41589726307879
H           -5.30204041602215       -4.95104778700902        1.22175177537076
H           -3.62076879674119       -4.38241211358571        1.36910766000409
H           -3.08043321085458       -2.20396031102951        2.10557739423025
H           -2.15170470496393        0.03400072449034        2.00737753962326
H           -3.01562010814712        2.39182384877809       -1.90176642870309
H           -1.63826044103574        3.24815845260375       -1.21229388166723
H           -1.80271046751524        0.23170198980087       -1.62642442821230
H           -1.00651960076641        1.37514819838246       -2.71787632770948
H           -0.68845183976386        1.66662265319809        0.65031241250215
H            0.65243256126480        1.98984028394970       -0.95184000036497
H            2.12273425341893       -0.66405355205940        0.72253126529966
H            2.30555986614357        0.98339693336075        0.09892185788272
H            2.77487448467193        0.05653497545382       -2.17653562091607
H            2.68644695238353       -1.58225028952006       -1.51396751934574
H            4.62638924053086        1.55578617681662       -1.56399061122942
H            6.92906259243749        1.75397894378499       -0.79005024986112
H            8.65444098580794        1.80900146954587        0.81648155085517
H            9.20642009431557        1.13982524776343       -0.74665994528945
H           10.03985858684204        0.69185652009188        0.76186814046015
H            7.06261699516492       -4.24058044706567        1.65484665921262
H            5.44513330984875       -3.51135683356972        1.79808965982325
H            6.02853918423971       -4.09824821279959        0.21259312323710
H            4.40961831350828       -2.40676344352039       -0.00922571880821
H           -0.22001980005462       -1.63043772094503       -1.65492044442537
H           -1.01698421371076       -1.23715826952362       -0.11481172005758
H            0.55741122215231       -2.05099101310363       -0.11828307412457
H           -4.66670661872916        2.94193891969622       -0.14790502501362
H           -3.75742415143171        2.85791313722549        2.77643332167130
H           -4.87482588906481        1.70940499075457        2.04802770232772
H           -5.33280846157894        3.40138111660496        2.20882023282089
H           -2.65627838628282        4.71257246355349        1.27342286703398
H           -3.02504511036645        4.79641589874500       -0.44784447656426
H           -4.25829089899187        5.18510224896214        0.74550315570015
H           -0.62987237067867        2.80822296811865        2.72239801646923
72
 energy: -103.315253203361 gnorm: 0.007301129555 xtb: 6.6.1 (8d0f1dd)
N           -1.50437886349777        2.80011502285357        2.22651904629053
C           -1.55407891844932        2.17079671925035        1.14217170462261
C           -2.74980769363197        2.06843810147502        0.24122941343459
C           -3.31339835720605        0.65526229620549        0.31835067886396
C           -4.29946127640561        0.25300618500051       -0.58574957830027
C           -4.84690967723329       -1.01423589848968       -0.53749830715538
O           -5.81505419706667       -1.48409986679309       -1.37301043687342
C           -6.38520203293044       -0.60846373063850       -2.31164317870828
C           -4.40073090031747       -1.93127814301961        0.44119636039728
O           -4.99815524225409       -3.15405408191226        0.41262090061208
C           -4.67347315720517       -4.08112590989472        1.41647360146144
C           -3.42607783136551       -1.53169201120305        1.33453160585487
C           -2.88851499297900       -0.25091688965097        1.27247719788968
C           -2.19333912609529        2.30571486539921       -1.19280604358497
C           -1.26263606553912        1.17960357582185       -1.67468207773245
C            0.00972842355741        1.12935852530005       -0.91046278677186
N            0.63496109064899       -0.04640808088922       -0.56555177205932
C            2.00293820078339       -0.03314760111054       -0.15869267973215
C            2.93683013209643       -0.54453151544331       -1.27652765403841
C            4.36187054836785       -0.43668810874695       -0.83657515057949
C            5.07874175025558        0.72740713065566       -1.04180288550868
C            6.38978104014931        0.83896153899070       -0.60288302351785
C            7.00100598497994       -0.21192230306915        0.05678012563614
O            8.27894861591574       -0.21323768968323        0.52710155850571
C            9.07194295792144        0.92679307339301        0.31830413516054
C            6.27466745296868       -1.40408972183459        0.27939407009640
O            6.95776205655684       -2.38595770959635        0.93078361331922
C            6.32219670263713       -3.61821811638844        1.15199066273268
C            4.96947861980821       -1.49697547584723       -0.16293862649085
C           -0.05005938186024       -1.30390232619227       -0.62126140894632
C           -3.89146466463450        3.06207935159269        0.61492820137340
C           -4.49751887801385        2.72999508003246        1.99572266920655
C           -3.42229333278107        4.51950321389509        0.53665102167652
H           -4.65099225521964        0.94967765115841       -1.32917684773210
H           -6.84031636105362        0.26264025077409       -1.82855154044808
H           -7.16046654302873       -1.18660955146748       -2.81225635714457
H           -5.65222361030738       -0.27275654465480       -3.05333637366935
H           -4.89491461405951       -3.68950302496251        2.41484568231441
H           -5.30233792128362       -4.94842214865783        1.22282814286610
H           -3.62066214592484       -4.38020694277099        1.36888869367715
H           -3.07632087111903       -2.20393509346810        2.10144965186397
H           -2.14667395426157        0.03386920331861        2.00278097262642
H           -3.02078381204926        2.39045766717575       -1.89706035896714
H           -1.64251102298859        3.24730651840708       -1.21212043385299
H           -1.80174381197648        0.23389966767332       -1.62979433565880
H           -1.01464880859493        1.37868833178286       -2.72477159596512
H           -0.68554989834934        1.65892626263202        0.65062317084385
H            0.65380597941326        1.98826476160250       -0.95949441322838
H            2.12090022643436       -0.66436484616183        0.72920205885863
H            2.30249620223728        0.98361310943104        0.10698738840240
H            2.76830688622668        0.05985932574844       -2.16909252274436
H            2.68275249953397       -1.58005694646701       -1.50828081402023
H            4.62355859461731        1.55808824988154       -1.56022704331105
H            6.92722442757900        1.75501796475499       -0.78906099870914
H            8.65340493270065        1.80819113137176        0.81576936134747
H            9.20349792762616        1.13935143957432       -0.74815212989951
H           10.03906602835378        0.69118463125688        0.75937107113157
H            7.06200015168303       -4.24081719798312        1.65289371320225
H            5.44448981782083       -3.51202236356601        1.79876087520564
H            6.02636952749851       -4.09660997439309        0.21195868446695
H            4.40627119790220       -2.40401824296257       -0.00389569224644
H           -0.21584812828199       -1.62998310889111       -1.65370559338098
H           -1.01766055882224       -1.24007214884886       -0.11584544970104
H            0.55703139876566       -2.05222003194445       -0.11675777050352
H           -4.67159226143842        2.93776126831390       -0.14465652510334
H           -3.75199652742851        2.85653044062713        2.77236592761110
H           -4.86747769335572        1.70824364041067        2.03631270597652
H           -5.33121078115054        3.39973526394222        2.20735941394500
H           -2.65183570408045        4.70741342250350        1.27464164853726
H           -3.02750980374755        4.77977218143541       -0.44747245460730
H           -4.25508884878948        5.18369019982369        0.74959845633333
H           -0.61461618383890        2.81085181105057        2.71783762926631
72
 energy: -103.315244951497 gnorm: 0.006703816617 xtb: 6.6.1 (8d0f1dd)
N           -1.50731745385882        2.80201451050877        2.22717782372265
C           -1.55879426541079        2.16839898129202        1.14501323536260
C           -2.75311043021236        2.06924212726981        0.24126985600813
C           -3.31571828138544        0.65612355462801        0.31680624433820
C           -4.30098330116107        0.25248520202723       -0.58703847214239
C           -4.84738019872199       -1.01520246568880       -0.53784514243754
O           -5.81546646904036       -1.48584356896915       -1.37313917852086
C           -6.38461299905758       -0.60978900739182       -2.31176148565665
C           -4.40131174341950       -1.93112806821244        0.44163245733239
O           -4.99822754841979       -3.15469641169464        0.41314498606446
C           -4.67401358787974       -4.08255853999784        1.41628316407755
C           -3.42792569626301       -1.52933479265714        1.33558211785376
C           -2.89095088557927       -0.24827572523296        1.27191858567306
C           -2.19380824179497        2.30601677112172       -1.19271127515293
C           -1.25978827103299        1.18119586621677       -1.67284913543355
C            0.01059266476085        1.13100919773228       -0.90397910964479
N            0.63649949445773       -0.04696088183572       -0.56058194406039
C            2.00607742211358       -0.03508333893177       -0.15994228037201
C            2.93876390626342       -0.54554922497524       -1.28001096120358