25
 energy: -42.098244245686 gnorm: 0.003632023048 xtb: 6.6.1 (8d0f1dd)
C            2.29140463414541       -0.15668902790734        1.32294213772844
N            1.81814604319989       -0.38036740004954       -0.02882599609528
C            2.56889640423921       -1.08900342038944       -0.92896325173170
N            2.39861121195894       -1.24587472959503       -2.16106620285306
C           -0.57484620228549        0.16872886978620       -0.03522045593161
C            0.73084704662093        0.44413035053777       -0.46566219746598
C            1.01550554529092        1.48790335588228       -1.26874135629518
O            1.32932546473206        2.34214283765750       -1.97014116735500
N           -1.77342600622644        0.81019798943653       -0.20975449480040
C           -2.19528057023610        2.11002613080619       -0.64266547485404
C           -2.40071246388217       -0.22283697920331        0.54982140625318
O           -3.49704784713239       -0.47077003015911        0.89105497715505
N           -1.12208451449085       -0.84225808540369        0.71405942169414
C           -0.75074026693583       -2.17799089715396        1.08287622050372
H            2.90211652749925       -0.99998914103146        1.63680318155174
H            2.89476087007318        0.75266572035332        1.38741138824540
H            1.44517300706356       -0.05740244583643        2.00149268378237
H            3.41013982549883       -1.60544334682524       -0.47776083651954
H           -1.80461626118942        2.32676664965052       -1.63753802593351
H           -3.28351641126192        2.10567319297318       -0.68259766533158
H           -1.86823646301071        2.88786827534626        0.05224755369149
H            0.12769375175870       -2.17188542566973        1.72774022086720
H           -0.54825185007482       -2.79321351742203        0.20214839850693
H           -1.59112730035015       -2.60449276282067        1.62812558993418
H            1.63769733909593       -0.79964762135875       -2.65661443684363
