25
 energy: 0.000000000000 xtb: 6.6.1 (8d0f1dd)
C            3.23720132972391        1.16630909158653        0.08434468864950
N            2.29877796055224        0.07527476373246        0.03981602671198
C            2.58028186251803       -1.21425391179017        0.03006175752192
N            1.43813944744728       -1.93419254010258        0.00098261751768
C            0.39035684826767       -1.05887462812143       -0.00790371763344
C            0.93510047688824        0.21347817468824        0.01709077332874
C            0.09450143016486        1.40504290868848       -0.00410946993748
O            0.49712746915594        2.54126690785742       -0.00342325656480
N           -1.25076628431515        1.06271869620815       -0.03085477937476
C           -2.21907191394203        2.15522079838987       -0.05001256521996
C           -1.81739470187490       -0.20012724136556       -0.04692818139228
O           -2.99983858926755       -0.37846413507442       -0.07008877579474
N           -0.92618577614240       -1.30210203518959       -0.03682761236648
C           -1.46982251276835       -2.64643077634382       -0.06029819901142
H            3.71247229913541        1.21471443890471        1.06488839270555
H            4.00791460421487        1.03430799217987       -0.67357688121503
H            2.69909982127087        2.09770098766290       -0.09130154035862
H            3.56654087521359       -1.63682977417947        0.04233139674524
H           -1.67107945562430        3.09322822573871       -0.02552706696334
H           -2.82428927394145        2.09428605349656       -0.95318074103337
H           -2.87644002486466        2.07745706351925        0.81450059976605
H           -1.17061985538665       -3.19584861009707        0.83242224714061
H           -1.14560246782873       -3.17511580834413       -0.95688266944647
H           -2.55549768731684       -2.55659960601237       -0.07459039105944
H            1.38130842369251       -2.94313824728853       -0.01389874052104
25
 energy: -5.726368228524 xtb: 6.6.1 (8d0f1dd)
C            3.24246527150065        1.17571038399005        0.08628637059847
N            2.29974173014598        0.10549988487055        0.03442533686565
C            2.59110932129442       -1.24158709920135        0.03223917715600
N            1.40316910626758       -1.93089600660188        0.00160882320347
C            0.38071825348502       -1.05073059717360       -0.00816695164551
C            0.91097825726694        0.23453218469658        0.01432814275757
C            0.11083340759308        1.39666495534632       -0.00800148467943
O            0.49052668646835        2.57144732895516       -0.00473861050198
N           -1.27968179789087        1.05382241585379       -0.03134308385740
C           -2.21217717380489        2.17055467309815       -0.04940441337171
C           -1.83653998272506       -0.19347607286750       -0.04709273821654
O           -3.03676839595295       -0.36917876237582       -0.06969185284197
N           -0.95919146907416       -1.31350421824120       -0.03716222782694
C           -1.44015814147177       -2.69203884576874       -0.06075095220150
H            3.72510211358108        1.22002529016534        1.06779328546880
H            4.01077521882513        1.04310923033855       -0.67940970931601
H            2.70453112044663        2.10654795881980       -0.08765149453546
H            3.56600753031596       -1.66223233825855        0.04226955641852
H           -1.63046860708062        3.09149709091173       -0.02457363254431
H           -2.81813293547927        2.13110057366102       -0.95454212768381
H           -2.87114875409821        2.11419591904024        0.81675031533328
H           -1.12208762105892       -3.25134640562642        0.82425412170379
H           -1.09551060851119       -3.23114192619886       -0.94846135084400
H           -2.53061705372418       -2.64119016507053       -0.07669153239086
H            1.34380644791019       -2.93491699475294       -0.01325313688596
25
 energy: -3.667870003359 xtb: 6.6.1 (8d0f1dd)
C            3.24195223853261        1.18056872875810        0.08801863955672
N            2.29278301748409        0.11096501792726        0.03382592749665
C            2.57559958033207       -1.24153697800358        0.03253845858901
N            1.38367702501606       -1.92268655561703        0.00154181092842
C            0.35911923223947       -1.04206665230600       -0.00898839641994
C            0.89918862032801        0.24330453245279        0.01255700580924
C            0.10468783691063        1.40838485298761       -0.01101822601177
O            0.48395766568361        2.58343251125843       -0.00651724432809
N           -1.29210057960242        1.05843127715395       -0.03230503905220
C           -2.20368733230537        2.19255575216187       -0.04925052442115
C           -1.85869430906280       -0.19027919400379       -0.04698896784359
O           -3.06040700437942       -0.34995316836499       -0.06820043757482
N           -0.98274730027879       -1.32821640873738       -0.03758928549429
C           -1.41023942366974       -2.74301390296843       -0.06074825852221
H            3.73379053474169        1.22280473341852        1.06605558591991
H            4.00373722863998        1.05310032531721       -0.68457127817598
H            2.70988373802811        2.11534250093740       -0.08124352319864
H            3.54937581221643       -1.67188199654863        0.04198938992392
H           -1.59619378727684        3.09824620385287       -0.02412194844409
H           -2.80983868681674        2.16903524082839       -0.95486066324665
H           -2.86334583176369        2.15215898061304        0.81736489058863
H           -1.06807552257483       -3.29976010305071        0.81873664352455
H           -1.04051253034831       -3.27997657382194       -0.94138990790507
H           -2.50658323987083       -2.73703331493841       -0.07787153672173
H            1.31773211950868       -2.92656033322673       -0.01300086700716
25
 energy: -0.133581692012 xtb: 6.6.1 (8d0f1dd)
C            3.23514647007424        1.18443754361544        0.08907485106306
N            2.28175363743964        0.11596420028046        0.03203145495079
C            2.55778606637675       -1.24020068881228        0.03395772449787
N            1.36357276195658       -1.91485188556882        0.00269295955553
C            0.33646463918150       -1.03586263290563       -0.00977972676267
C            0.88498100457543        0.25060642286552        0.01015066045553
C            0.09996838141872        1.41984006752712       -0.01508450701985
O            0.47558885222615        2.59565820615582       -0.01129648609991
N           -1.30261699474656        1.06582218771972       -0.03412313262027
C           -2.19509381552980        2.21550179102718       -0.04854343740649
C           -1.87862166865638       -0.18459625791435       -0.04671628291430
O           -3.08152461206068       -0.32801713011339       -0.06549684162342
N           -1.00513385320788       -1.34639034814576       -0.03839814335723
C           -1.38082229514050       -2.79787408003976       -0.06192528339415
H            3.73818729413148        1.22196503820486        1.06285954045615
H            3.99236222343401        1.06307257983852       -0.68956405462597
H            2.70989947309642        2.12320617967494       -0.07479454593612
H            3.52922622854402       -1.68072675647223        0.04351840996529
H           -1.56419630026290        3.10690565021446       -0.02343167820375
H           -2.80208837594913        2.20714220574756       -0.95373625620374
H           -2.85414433038149        2.18980889911215        0.81906447323057
H           -1.01601805745302       -3.35083702358246        0.81327779693111
H           -0.98775459888918       -3.33027670303773       -0.93746028890689
H           -2.47876274773493       -2.82458252818808       -0.07956031428563
H            1.29102529125290       -2.91837925527137       -0.01068385745829
25
 energy: 5.198180464949 xtb: 6.6.1 (8d0f1dd)
C            3.22898337383332        1.18562191693549        0.08888957823145
N            2.26903184288660        0.12095900394453        0.02995023822621
C            2.53945157885984       -1.23745210086011        0.03550393949161
N            1.34362287678584       -1.90660249950595        0.00395501631237
C            0.31329496311519       -1.03078807354537       -0.01010517892604
C            0.86965615572218        0.25812909410162        0.00818616917065
C            0.09570853751583        1.43290452594269       -0.01816902233079
O            0.46701909991773        2.60981400924522       -0.01649964155061
N           -1.31034095856098        1.07674036383615       -0.03553905986773
C           -2.18680469754189        2.23936439207993       -0.04843354790320
C           -1.89569920042303       -0.17452582239124       -0.04542620546667
O           -3.09917072213829       -0.30176290446584       -0.06167613709634
N           -1.02612716375318       -1.36825905442647       -0.03884105283452
C           -1.35566496323021       -2.85816001208640       -0.06350527434496
H            3.74480614431342        1.21545785309035        1.05732664232592
H            3.98184158068816        1.06755421936858       -0.69492366074031
H            2.71527762645609        2.13133027400283       -0.06766939279105
H            3.50865487264980       -1.68703253874132        0.04414590412694
H           -1.53321786085835        3.11622001920341       -0.02366700032594
H           -2.79436647417025        2.24482164175090       -0.95332380597778
H           -2.84563454148707        2.22812651762323        0.81982056354646
H           -0.97357560432933       -3.41036641781349        0.80780985999947
H           -0.94490140605198       -3.38847137151854       -0.93498577386568
H           -2.45328240180032       -2.91421315168070       -0.08111706559562
H            1.26403344346078       -2.90951159696212       -0.00860869778901
25
 energy: 12.346145356875 xtb: 6.6.1 (8d0f1dd)
C            3.21912253711522        1.18514633576294        0.08820050166230
N            2.25374644986397        0.12425564361088        0.02702541353000
C            2.52052843603972       -1.23467833875731        0.03612210343728
N            1.32363855947214       -1.89951425632103        0.00423466107271
C            0.28957080387767       -1.02822844267318       -0.01130757952957
C            0.85334751882681        0.26383282916473        0.00577168422072
C            0.09513873476220        1.44677978020273       -0.01990918138924
O            0.46798456251316        2.62384541164000       -0.02084531138468
N           -1.31278939331150        1.09122355663905       -0.03701906506400
C           -2.17566830299468        2.26474596341297       -0.04809585098235
C           -1.90816328543313       -0.15865881674817       -0.04618005756804
O           -3.11168637967377       -0.26945705286418       -0.06029234840662
N           -1.04558517832032       -1.39261801234698       -0.04040373115954
C           -1.33322020075137       -2.92260498948141       -0.06348887319097
H            3.74366023954484        1.20651105493050        1.05212784771304
H            3.96742667878324        1.06790940196140       -0.70001818856536
H            2.71635584652562        2.13812314715341       -0.06001120582273
H            3.48749263664137       -1.69227468559939        0.04307903567446
H           -1.50151742481707        3.12828158312255       -0.02201849643590
H           -2.78278473339088        2.28245105151813       -0.95324606908408
H           -2.83487769424582        2.26440562973775        0.82005026743735
H           -0.93906207075716       -3.47385201786742        0.80597966666505
H           -0.90885144287115       -3.45365566481148       -0.93108884421822
H           -2.42916830678327       -3.00342008147174       -0.08198555512658
H            1.23648208342953       -2.90161681733091       -0.00781337020703
25
 energy: 21.141667504720 xtb: 6.6.1 (8d0f1dd)
C            3.21053664554004        1.18325941799484        0.08766519966650
N            2.23867919861344        0.12795434079292        0.02359762120235
C            2.50247754980456       -1.23051993454740        0.03750050340574
N            1.30476769547328       -1.89132162598099        0.00523844323712
C            0.26639202919503       -1.02493825960995       -0.01235959821499
C            0.83736211539156        0.27006567260557        0.00316257478946
C            0.09472270772588        1.46155899826141       -0.02098937032496
O            0.47505657039237        2.63697738489451       -0.02453320252680
N           -1.31495922941994        1.10854015519103       -0.03787003469871
C           -2.16538319254616        2.29154364691562       -0.04744159212930
C           -1.91969531349375       -0.13899229145438       -0.04673604570642
O           -3.12224734433375       -0.23761886696889       -0.05848018276848
N           -1.06440868145470       -1.41417518978823       -0.04190736804038
C           -1.31014906315766       -2.98986902990512       -0.06385740732616
H            3.73981279735950        1.19508456313600        1.04929764841444
H            3.95516024637958        1.06437061286552       -0.70370178963143
H            2.71991329946186        2.14422322749099       -0.05255637104531
H            3.46705710721349       -1.69647207369163        0.04328261970420
H           -1.47136595131211        3.14153264058044       -0.02035597336021
H           -2.77257275949365        2.32156287857655       -0.95253921484819
H           -2.82470838993472        2.30244613094057        0.82083158168897
H           -0.90704178370887       -3.53867755261385        0.80532228632199
H           -0.87518996956357       -3.52047346241512       -0.92903619875646
H           -2.40374116920836       -3.08988174696575       -0.08322968516159
H            1.21026256478177       -2.89244784347782       -0.00612357503054
25
 energy: 31.188567406157 xtb: 6.6.1 (8d0f1dd)
C            3.20220828325631        1.18053495548648        0.08656958450122
N            2.22616257918994        0.13131087354270        0.01917263805388
C            2.48778332956750       -1.22815965924802        0.03937732744926
N            1.28755181351621       -1.88391705790468        0.00800816911357
C            0.24923691902618       -1.01682484889252       -0.01242374701681
C            0.82566141373986        0.27790761145902        0.00072302126362
C            0.09581728141413        1.47831778401799       -0.02129987487935
O            0.49278823086596        2.64837658657989       -0.02599493865306
N           -1.31499982742074        1.13465046145603       -0.03785167626600
C           -2.15685132377025        2.32335973359501       -0.04691483197859
C           -1.92677032745758       -0.11515284212578       -0.04563638401844
O           -3.12895188863427       -0.20139864157880       -0.05545231333881
N           -1.08085744159010       -1.41102792107255       -0.04094706997869
C           -1.28235322013491       -3.05369038841913       -0.06485446707146
H            3.73070252755155        1.18443205854402        1.04851754791158
H            3.94478438791295        1.05740984846892       -0.70622214132535
H            2.71887687884359        2.14704449815491       -0.04628574251849
H            3.45013763492883       -1.70091836710831        0.04346902017253
H           -1.45020971341965        3.16569056674868       -0.01921932984276
H           -2.76544304068256        2.36256659472738       -0.95093303626791
H           -2.81788294667928        2.34346450564482        0.82008523312215
H           -0.87589484103650       -3.60493135319365        0.80254872958411
H           -0.84262235028560       -3.58551994699239       -0.92816590244451
H           -2.37424109127354       -3.17673711145468       -0.08468884668716
H            1.18641807630450       -2.88420151148511       -0.00125285137433
25
 energy: 41.645879272899 xtb: 6.6.1 (8d0f1dd)
C            3.19750304693356        1.17767173120794        0.08573722869722
N            2.20884749114795        0.12741402587403        0.02301494067562
C            2.44632054766972       -1.20112062015152        0.03727549219324
N            1.25462627238324       -1.86149432986889        0.00953626535940
C            0.20455569063969       -0.96472323071179       -0.01176332223986
C            0.82872694371427        0.30036508772499        0.00014529164785
C            0.07960478395878        1.51836189643771       -0.02130246398722
O            0.51718631186414        2.66191692894094       -0.02573344923219
N           -1.29072808823493        1.20776832903469       -0.03711038122438
C           -2.14069133739529        2.37468231448467       -0.04647972125501
C           -1.91637746660734       -0.07870342435251       -0.04346405139924
O           -3.12216257713230       -0.13428320744319       -0.05321061506323
N           -1.10013587014415       -1.23201021343189       -0.03682498940165
C           -1.26278403906308       -3.36091741484644       -0.06855970876138
H            3.72588443432636        1.17497663041930        1.04518016676966
H            3.93593665313804        1.04667216144781       -0.70693076005003
H            2.72518596362943        2.15336436908037       -0.03891983176614
H            3.41298040320271       -1.68800276508369        0.04575975753103
H           -1.43198288622974        3.21025802258753       -0.01762685490758
H           -2.74931467063962        2.39825495617749       -0.95117545286939
H           -2.80145428274620        2.37831267623206        0.82122014281829
H           -0.82231423492981       -3.75107455465812        0.82688234400659
H           -0.78666637179304       -3.73158014732364       -0.95398830339580
H           -2.34268010266332       -3.27992966075415       -0.08614535120226
H            1.14103910296099       -2.86353957817587        0.00097084761012
25
 energy: 41.528074271778 xtb: 6.6.1 (8d0f1dd)
C            3.19127486855751        1.17329024402541        0.08555756189752
N            2.19516364703064        0.12843403602463        0.02322526878586
C            2.42556408769479       -1.19242454262911        0.03860022870741
N            1.23803499800845       -1.84797255645259        0.01260873422281
C            0.18436665882829       -0.94640420458063       -0.01113343560016
C            0.82071603406394        0.31452878229292       -0.00010640720160
C            0.07923894036265        1.54096688825386       -0.02087536377171
O            0.53333041632946        2.67718346490377       -0.02458061856279
N           -1.28719608971756        1.24119653106567       -0.03709101684821
C           -2.13107263550971        2.40998422548988       -0.04602742476392
C           -1.92076099388514       -0.04905362919476       -0.04240033938596
O           -3.12655425268717       -0.09496178001916       -0.05083009376784
N           -1.11351880798791       -1.19791241362336       -0.03570449829090
C           -1.23246007569016       -3.46253431959323       -0.06950770130903
H            3.71953516015438        1.16455096466579        1.04453343875057
H            3.92791494394511        1.03607977112585       -0.70743142161170
H            2.72488204545531        2.15440544757376       -0.03069615293836
H            3.39244114465755       -1.68460241352102        0.04604288137337
H           -1.41796824716034        3.24361214025875       -0.01663798108040
H           -2.73913606139438        2.43678942731625       -0.95078772185236
H           -2.79130839883503        2.41642966641689        0.82180067115453
H           -0.79003562988340       -3.83578961391997        0.82952182154482
H           -0.75265830609217       -3.81645293253340       -0.95717938078392
H           -2.31008692580384       -3.36312815056241       -0.08742915647747
H            1.11253356284042       -2.84988000239862        0.00547085276633
25
 energy: 41.019797899391 xtb: 6.6.1 (8d0f1dd)
C            3.18821599784702        1.16614506063281        0.08404326953000
N            2.18245465783692        0.13077854875118        0.02400627164422
C            2.40614273825022       -1.18451509324947        0.04032519142133
N            1.22039266804283       -1.83423958912167        0.01530578707453
C            0.16706975582984       -0.92750807965070       -0.01042540607902
C            0.81307882518750        0.32986563094740        0.00001714751535
C            0.08041864644033        1.56342728249903       -0.02016878512973
O            0.54923254319542        2.69310177170495       -0.02299535040090
N           -1.28383174248760        1.27311299750875       -0.03702745985233
C           -2.12205847397674        2.44427478508115       -0.04564625834247
C           -1.92445383060708       -0.01842518818795       -0.04156319050747
O           -3.13018377861136       -0.05598877347537       -0.04883484479066
N           -1.12531136095519       -1.16637631304127       -0.03466638597857
C           -1.20271216875613       -3.55651455912349       -0.07046903527559
H            3.71385575817176        1.15469877694420        1.04385138884899
H            3.92346599101666        1.02162208022076       -0.70805844481219
H            2.72928570966714        2.14963863288630       -0.03469335533311
H            3.37336366989042       -1.67797751589745        0.04593588437841
H           -1.40618274028612        3.27742349179954       -0.01594060139428
H           -2.72917193414443        2.47433585546294       -0.95052986989435
H           -2.78148537625444        2.45363762125509        0.82232256902975
H           -0.76226403328133       -3.92046038649220        0.83190987316400
H           -0.72377591117004       -3.90151350704226       -0.96075541236413
H           -2.27839902883189       -3.44694432339408       -0.08880260194148
H            1.08418638209095       -2.83532730387986        0.01040190561202
25
 energy: 40.516067244255 xtb: 6.6.1 (8d0f1dd)
C            3.18902514144052        1.16089593887866        0.08253961168963
N            2.17228093251670        0.13576089030846        0.02465190416182
C            2.38949684947780       -1.17722888560265        0.04187945868595
N            1.20217556077822       -1.82070341311228        0.01687651420884
C            0.15354423723053       -0.90739917420203       -0.00974993659590
C            0.80710719589928        0.34681259894006        0.00084722369981
C            0.08324325265657        1.58612834282160       -0.01918320421584
O            0.56509819911926        2.70973803860789       -0.02130735828361
N           -1.28023914216808        1.30357534109164       -0.03679887005994
C           -2.11366040622864        2.47718426961125       -0.04535568200312
C           -1.92720563597692        0.01264800456703       -0.04069309207980
O           -3.13308701027450       -0.01807991237900       -0.04702653663162
N           -1.13507160616795       -1.13608257596924       -0.03384544577556
C           -1.17784773971151       -3.64678728481430       -0.07126483165285
H            3.70988702085301        1.14586183910200        1.04377659522211
H            3.92235813364054        1.00750885537353       -0.70833727265157
H            2.74066269558016        2.14867365171368       -0.03920749700166
H            3.35639845826486       -1.67092390706377        0.04537521521708
H           -1.39880843802261        3.31211110710304       -0.01555390793571
H           -2.71902732699412        2.51085469674455       -0.95052779475502
H           -2.77161938244776        2.49005036682500        0.82289767668383
H           -0.74123893961834       -4.00486138518294        0.83448771372887
H           -0.70186938996390       -3.98658643072641       -0.96432745901662
H           -2.25178414756136       -3.53031838676121       -0.09035891664939
H            1.05706981915147       -2.82071752788959        0.01286094289950
25
 energy: 40.129001629915 xtb: 6.6.1 (8d0f1dd)
C            3.19202897470251        1.15845299602168        0.08122703531998
N            2.16407139253234        0.14187664465447        0.02547807621112
C            2.37441638437749       -1.17053220303463        0.04351082135236
N            1.18377989723817       -1.80762959728997        0.01785130498980
C            0.14171857645991       -0.88682769186366       -0.00901426371335
C            0.80274825645235        0.36338359229719        0.00207353634805
C            0.08665997804281        1.60612060888613       -0.01785705856808
O            0.58001245601768        2.72498870693791       -0.01941744874845
N           -1.27703536133136        1.33312112471826       -0.03640773295694
C           -2.10608066964480        2.50930290239362       -0.04508493543696
C           -1.92944082278131        0.04420872606150       -0.03987248643781
O           -3.13544431653493        0.01908247381331       -0.04553029683017
N           -1.14410912382875       -1.10568310617408       -0.03313550982963
C           -1.15726339791453       -3.73831817128793       -0.07204102717412
H            3.70663833348295        1.13797676813152        1.04417029442672
H            3.92345262207631        0.99399561028061       -0.70794347058962
H            2.75261945724324        2.14967975756184       -0.04347614883188
H            3.34094538685920       -1.66323404013070        0.04427985579310
H           -1.39398241927157        3.34712396678322       -0.01526644524213
H           -2.70947988414829        2.54692387056987       -0.95060550856112
H           -2.76253232575297        2.52606834784236        0.82344118450509
H           -0.72032168222013       -4.08813519494227        0.83586062085683
H           -0.68010844326578       -4.07059829194672       -0.96648812671634
H           -2.22840986840506       -3.61315234062500       -0.09207966050627
H            1.03065322121425       -2.80653754167976        0.01360869604697
25
 energy: 39.585701663836 xtb: 6.6.1 (8d0f1dd)
C            3.19611048360304        1.15620055049397        0.08015630175283
N            2.15805213392226        0.14741779539272        0.02696162315115
C            2.36028947812348       -1.16455196481233        0.04404317532675
N            1.16612360864490       -1.79481604241242        0.01773003024094
C            0.13300664952617       -0.86478326292498       -0.00794636698540
C            0.80240612961003        0.37957133818167        0.00418522451574
C            0.08432431761548        1.62249564992011       -0.01622886606377
O            0.58969336328493        2.73853509125632       -0.01823867304934
N           -1.27624582545739        1.36223602808321       -0.03564330961050
C           -2.10057850804274        2.54173379173789       -0.04503387972633
C           -1.93214374657696        0.07549091543140       -0.03842837814229
O           -3.13817259317416        0.05540844103062       -0.04353327565891
N           -1.15188175692539       -1.07338904275615       -0.03205128506463
C           -1.13957312040382       -3.83312133905231       -0.07265751225819
H            3.70380939008716        1.13026612663780        1.04494966716532
H            3.92758831919608        0.98205655763174       -0.70616709740571
H            2.76209527018300        2.14906972950435       -0.04939074936646
H            3.32603100456239       -1.65630794767944        0.04246923003140
H           -1.39294432501226        3.38298455202815       -0.01568920399918
H           -2.70182238005426        2.58366363254744       -0.95098463451232
H           -2.75535814507391        2.56349049080070        0.82382784379077
H           -0.70340413817838       -4.17475508445447        0.83730546134952
H           -0.66296183470132       -4.15718091462044       -0.96903882440867
H           -2.20585686630496       -3.69587117835487       -0.09357624238530
H            1.00390146797318       -2.79263332869973        0.01320606265781
25
 energy: 39.030646169317 xtb: 6.6.1 (8d0f1dd)
C            3.19946155097501        1.15646031923286        0.07860636884470
N            2.15353417320079        0.15353759224155        0.02872815226820
C            2.34732068535671       -1.15866090639951        0.04447808065813
N            1.14956797318212       -1.78269840456924        0.01774464821507
C            0.12624245380785       -0.84290501530793       -0.00667578612606
C            0.80401884217170        0.39404246630807        0.00666557828498
C            0.08295137454524        1.63539087343248       -0.01307757579768
O            0.60326993441103        2.74565900805549       -0.01302614789527
N           -1.27337140324396        1.38960143199081       -0.03475927311727
C           -2.09374475178496        2.57314017029940       -0.04466974757528
C           -1.93280488954925        0.10570518429690       -0.03800485738677
O           -3.13907823009741        0.09148183193820       -0.04280540398872
N           -1.15900166573401       -1.04149302448121       -0.03142215505272
C           -1.13121057904395       -3.92585867907216       -0.07360023792787
H            3.70096855817683        1.12552800040291        1.04521306574487
H            3.93528012830684        0.97608967641045       -0.70267720519437
H            2.76545440232386        2.14715799558121       -0.05894738585929
H            3.31166761711363       -1.65044495407777        0.04114325669614
H           -1.39200315188455        3.41931605715949       -0.01519175553941
H           -2.69356289510869        2.61865194791623       -0.95087282857369
H           -2.74818598203121        2.59831847215263        0.82390813169762
H           -0.70818659011832       -4.26075817254893        0.84509975514447
H           -0.66885140174329       -4.24451384170670       -0.97923440236341
H           -2.18925784976353       -3.77230883932065       -0.09478882764563
H            0.97864201994829       -2.77981828810066        0.01268446701990
25