25
 energy: 0.000000000000 xtb: 6.6.1 (8d0f1dd)
C            3.23720132972391        1.16630909158653        0.08434468864950
N            2.29877796055224        0.07527476373246        0.03981602671198
C            2.58028186251803       -1.21425391179017        0.03006175752192
N            1.43813944744728       -1.93419254010258        0.00098261751768
C            0.39035684826767       -1.05887462812143       -0.00790371763344
C            0.93510047688824        0.21347817468824        0.01709077332874
C            0.09450143016486        1.40504290868848       -0.00410946993748
O            0.49712746915594        2.54126690785742       -0.00342325656480
N           -1.25076628431515        1.06271869620815       -0.03085477937476
C           -2.21907191394203        2.15522079838987       -0.05001256521996
C           -1.81739470187490       -0.20012724136556       -0.04692818139228
O           -2.99983858926755       -0.37846413507442       -0.07008877579474
N           -0.92618577614240       -1.30210203518959       -0.03682761236648
C           -1.46982251276835       -2.64643077634382       -0.06029819901142
H            3.71247229913541        1.21471443890471        1.06488839270555
H            4.00791460421487        1.03430799217987       -0.67357688121503
H            2.69909982127087        2.09770098766290       -0.09130154035862
H            3.56654087521359       -1.63682977417947        0.04233139674524
H           -1.67107945562430        3.09322822573871       -0.02552706696334
H           -2.82428927394145        2.09428605349656       -0.95318074103337
H           -2.87644002486466        2.07745706351925        0.81450059976605
H           -1.17061985538665       -3.19584861009707        0.83242224714061
H           -1.14560246782873       -3.17511580834413       -0.95688266944647
H           -2.55549768731684       -2.55659960601237       -0.07459039105944
H            1.38130842369251       -2.94313824728853       -0.01389874052104
25
 energy: -5.922243841824 xtb: 6.6.1 (8d0f1dd)
C            3.27661305250060        1.16257423988428        0.09266323835013
N            2.31369767184688        0.11036908658711        0.02826286261031
C            2.60336310036171       -1.24302618735441        0.02737164171079
N            1.41114539446198       -1.93244416117454       -0.01488200826883
C            0.39695370817578       -1.04402743715721       -0.01639259738749
C            0.91653912365847        0.24289629619218        0.00917213571775
C            0.07708966526231        1.38239919447999       -0.00019787877097
O            0.43924236016600        2.56380808300585        0.00367786429631
N           -1.32724735687771        1.05029757824571       -0.02691613761930
C           -2.27133638372870        2.16319557636212       -0.06388547985029
C           -1.86292855496037       -0.19920007135719       -0.01058321077870
O           -3.05525375512950       -0.41184549128305       -0.03167702160451
N           -0.94793212085552       -1.28217828303781       -0.02164963956140
C           -1.44672892908771       -2.63785765940083       -0.05913438255527
H            3.73503633663849        1.22006256872296        1.08606502928313
H            4.07142829640261        0.99988013603882       -0.64117671126836
H            2.76870357754368        2.09774953323147       -0.11942848125105
H            3.57963281511720       -1.66997063718900        0.03538724763101
H           -1.69420714702215        3.08433477234984       -0.04685083966015
H           -2.87452606356971        2.13606334800804       -0.97072892438951
H           -2.93480095348352        2.12501038716334        0.79914180720277
H           -1.10662057792594       -3.20530083821169        0.81081850674656
H           -1.13444061722318       -3.14896373825744       -0.97491342370940
H           -2.53172375315228       -2.57171556055890       -0.03241964029854
H            1.34640329396255       -2.93743603219414       -0.02968225485024
25
 energy: -3.478992915970 xtb: 6.6.1 (8d0f1dd)
C            3.31111659832758        1.14865971189090        0.10046481473568
N            2.32178065988155        0.11971265614363        0.01368485395342
C            2.60303594138920       -1.24664879663749        0.01723733482138
N            1.39777443481871       -1.91955820603920       -0.03641237790310
C            0.39124753528694       -1.02161453626632       -0.02672028840868
C            0.91011507079958        0.26473674838533        0.00244997606058
C            0.03281975463318        1.38311318914257        0.00533125919835
O            0.37651451221555        2.56913041691364        0.01366533654363
N           -1.38997527002214        1.05431033333257       -0.02294168391504
C           -2.32302985598861        2.18147305508144       -0.08092828569542
C           -1.90730471949282       -0.20073608447617        0.03244218647000
O           -3.09051832795160       -0.44459758983567        0.02141074904595
N           -0.95728364699001       -1.26220084416199       -0.00291822578387
C           -1.42284135864817       -2.63259814478864       -0.05737061246666
H            3.74626092972094        1.21755211556931        1.10699542550110
H            4.12800191484902        0.95449119575686       -0.60302246684174
H            2.84263078477180        2.09361277138499       -0.14966444639002
H            3.57528291979432       -1.69585206307011        0.01986448500995
H           -1.72707351111944        3.09078967502294       -0.06762806104915
H           -2.92159866014256        2.17782784876956       -0.99195799992498
H           -2.99206814488912        2.17154805309954        0.77809138507586
H           -1.04493652200060       -3.21378591899786        0.78824587869964
H           -1.12879847383347       -3.12100885199658       -0.99338065680139
H           -2.50687642810177       -2.59503245428573        0.01012122667262
H            1.32349399636229       -2.92494506799603       -0.05586405924746
25
 energy: 0.831105242088 xtb: 6.6.1 (8d0f1dd)
C            3.34316803290080        1.13189924068957        0.10794655153966
N            2.33326411808182        0.12200988724667       -0.00366297071516
C            2.60841114799320       -1.25249885281172        0.00359636928416
N            1.39786231671566       -1.91225853468371       -0.05041289878514
C            0.39373061514726       -1.01169031692623       -0.02817558475085
C            0.90775116651147        0.27833423681121        0.00955890425359
C            0.00005680217262        1.38160815871508        0.01549036802825
O            0.32118433302365        2.57283319698062        0.02446678465127
N           -1.45257934042257        1.05991447661130       -0.02436562632146
C           -2.37301191564843        2.20341644073290       -0.09789002241141
C           -1.95190555274163       -0.19941352009883        0.06125150140401
O           -3.12283099637499       -0.47905052771113        0.07814524866066
N           -0.95924310502412       -1.24541033355178        0.01146384680432
C           -1.39901231729447       -2.62919184571895       -0.05687929786080
H            3.75396438121213        1.21030079164390        1.12776726156292
H            4.17926284425517        0.90256185111722       -0.56415503035398
H            2.91631358643507        2.08574334437120       -0.18078171308755
H            3.57477594235410       -1.71823561150930       -0.00118814862169
H           -1.76119570809855        3.10310348441728       -0.08778965286978
H           -2.96624483922306        2.21989026081088       -1.01293595653884
H           -3.04862366376521        2.22323292395069        0.75567873769689
H           -0.98454175671322       -3.22487009116968        0.76298375343966
H           -1.12655879226338       -3.09502743463823       -1.01268878803950
H           -2.48085939342997       -2.61890023351786        0.04913337333627
H            1.31300439597333       -2.91706542763343       -0.08656780376948
25
 energy: 7.111851878668 xtb: 6.6.1 (8d0f1dd)
C            3.37669568306297        1.11266764098233        0.11627814469313
N            2.35166223719506        0.11421791205306       -0.01413209448378
C            2.61368603142520       -1.25978642512417       -0.00875895314496
N            1.40517631110760       -1.90895081747437       -0.06359327794137
C            0.39892862712282       -1.00290579478341       -0.04026360667792
C            0.92024576914836        0.28709028522575        0.00418417667700
C           -0.00159493945165        1.38563388201187        0.00743629578081
O            0.27837530737861        2.57966196246999        0.03861948309186
N           -1.51015545286531        1.06963307962877       -0.04105386927408
C           -2.41983944141661        2.22871519062342       -0.11632870153927
C           -1.99560414652379       -0.18941750569335        0.07767781870581
O           -3.15064311616393       -0.51041525319126        0.12924507237007
N           -0.95621621103079       -1.22852956491620        0.01087871824007
C           -1.37472891908087       -2.62386443208432       -0.05641096578047
H            3.76170653279415        1.20312521884770        1.14873285394956
H            4.23103214183693        0.85420282902566       -0.52418251130326
H            2.98913153915885        2.07344271065769       -0.20938086543403
H            3.57452834467494       -1.74181465104484       -0.02577656696543
H           -1.79651052112150        3.12166769505982       -0.09751483397543
H           -3.00825620354965        2.26639857022589       -1.03573676005699
H           -3.10439370853450        2.26838419843824        0.73072251534303
H           -0.92408181680750       -3.22852501302094        0.74040849606798
H           -1.12274133893296       -3.07093796653874       -1.02875016083091
H           -2.45303134052241       -2.64094819184474        0.08953240171099
H            1.33219280972163       -2.91514946722692       -0.11176292115001
25
 energy: 16.461363929662 xtb: 6.6.1 (8d0f1dd)
C            3.41417784576609        1.09873551371225        0.12588296325094
N            2.37636436383182        0.11494555537068       -0.01909725819683
C            2.62941165326048       -1.25194786551208       -0.01305551002813
N            1.42475430639776       -1.90657749322607       -0.07382523707993
C            0.41348649599632       -1.00223872376093       -0.03684470217142
C            0.93912244293830        0.28899357287855        0.00134226562978
C            0.01273979070791        1.38022519655753        0.00952137284870
O            0.24224017739369        2.57575520356077        0.05833405093282
N           -1.57319719847303        1.07842352126546       -0.06538091791918
C           -2.46594879026097        2.25649846365060       -0.13202566625582
C           -2.04335148554522       -0.17210135421934        0.08238493099984
O           -3.17449850910142       -0.54669559008897        0.17556883013528
N           -0.94313448576778       -1.21673581062430        0.00784535604682
C           -1.34909419920566       -2.61920148582249       -0.05848773254238
H            3.77160794157862        1.20382237962344        1.17100902399760
H            4.28351194491496        0.80496925004053       -0.48175043686032
H            3.06586755446062        2.06208571031577       -0.23903408683140
H            3.57938377086284       -1.75557365849870       -0.05652560359633
H           -1.82947669601476        3.13856132862911       -0.09941767976242
H           -3.04747199496248        2.31889259664463       -1.05552880600979
H           -3.15846035515836        2.31393515085280        0.70861563420096
H           -0.86479980464015       -3.23313492817472        0.71482447615986
H           -1.12194288172321       -3.04776670593377       -1.04706592169025
H           -2.42208372417064       -2.65998303586585        0.12627198891172
H            1.36357012794823       -2.91463455006449       -0.11724048585189
25
 energy: 29.989274386278 xtb: 6.6.1 (8d0f1dd)
C            3.45037435626104        1.08058241254430        0.13252450412424
N            2.40143143187858        0.10820455933515       -0.01529330664354
C            2.64649087936481       -1.25165975371313       -0.02114313172051
N            1.44577201923028       -1.90849214582522       -0.08505574623044
C            0.43015122264708       -1.00491924476701       -0.03259903847311
C            0.96302741581328        0.28903590318064        0.00560295144014
C            0.04855062414521        1.37501247747407        0.01589494481684
O            0.21102294856645        2.57064504247360        0.09599147382107
N           -1.65261057749341        1.08377661033677       -0.08683451885832
C           -2.51661876429193        2.28473199094270       -0.14773533957691
C           -2.10345931918242       -0.14697737690459        0.09903048739969
O           -3.19762525785900       -0.59339444840556        0.22307529473105
N           -0.92010354970896       -1.21311366805672        0.00804902367312
C           -1.31920293280149       -2.61665599755205       -0.06034515426161
H            3.77978065877630        1.20284176022622        1.18496134699488
H            4.33328064708297        0.75444810156133       -0.44105967644371
H            3.14120487344679        2.04403840688202       -0.26931548565422
H            3.59132645373728       -1.75302159060611       -0.09535771715185
H           -1.86198884772949        3.15089993393653       -0.11009519463622
H           -3.09079700902653        2.37389260533316       -1.07401758856147
H           -3.21117200710095        2.36682776948144        0.68838071367274
H           -0.80138168341848       -3.23773094648822        0.68796958012803
H           -1.12017510184207       -3.02387547631600       -1.06567087342848
H           -2.38470647148610       -2.68112881503193        0.16260869142511
H            1.39173077233146       -2.91630844650073       -0.12901274951055
25
 energy: 48.283775534438 xtb: 6.6.1 (8d0f1dd)
C            3.48478676398810        1.05876210713623        0.13942339863388
N            2.43037018422819        0.09619764754133       -0.01418562125875
C            2.67036421241642       -1.25833925844116       -0.03701137470063
N            1.47252966795225       -1.91518454889625       -0.09424490267753
C            0.45087479289841       -1.01324649522371       -0.03679226572296
C            0.99585826872765        0.28871309963871        0.01797049418649
C            0.12577349974593        1.38066370047585        0.01131349757056
O            0.16663632196526        2.57517008615696        0.13154739852475
N           -1.75735929289249        1.09247941267748       -0.11970715215535
C           -2.57717016304920        2.31456480828332       -0.16508986434149
C           -2.19574920081839       -0.09638813826267        0.10851258184021
O           -3.22101379146823       -0.64788238384723        0.29501007555918
N           -0.87877300375237       -1.22171646717765        0.00119886843631
C           -1.28601190784186       -2.61545629128132       -0.06258945590089
H            3.77042690655453        1.18902529429164        1.19821208396636
H            4.38432875355278        0.70295418637981       -0.39115787728913
H            3.21488360323506        2.01990306841352       -0.29509045950322
H            3.61388621827199       -1.74832294460292       -0.11964087239936
H           -1.89762803871933        3.16074566161571       -0.11440512274847
H           -3.13158800848164        2.43178272792763       -1.09697596960520
H           -3.27317968458537        2.42426041013400        0.66475665238390
H           -0.74016150722651       -3.24588399678437        0.65819572701996
H           -1.12826935761301       -3.00572620273986       -1.07743435348482
H           -2.34242264718402       -2.69471198968950        0.18932746764505
H            1.41873390897298       -2.91971009859755       -0.14957698902827
25
 energy: 65.968334740327 xtb: 6.6.1 (8d0f1dd)
C            3.51703392878885        1.03334869644506        0.15213780518394
N            2.46002901701746        0.07677896370838        0.02567817696599
C            2.70023272722303       -1.26529357821771       -0.05153241261899
N            1.51287949007378       -1.93203276607828       -0.08968935586774
C            0.47777464901997       -1.03280584700019       -0.03636136516816
C            1.03918432466623        0.27829580341352        0.05516203123923
C            0.25103142092338        1.39426484386743        0.00029223868151
O            0.15933014001234        2.57080195278144        0.18891628491498
N           -1.90353443508924        1.12058099489583       -0.14783976248996
C           -2.65254143393797        2.35981072393313       -0.18522116473805
C           -2.35225502233740        0.00026364308985        0.13329787573718
O           -3.23352597268439       -0.72841282084464        0.34744877047213
N           -0.81644105037914       -1.24171625560251       -0.01253741214993
C           -1.25098755177482       -2.61702951520573       -0.07074100400979
H            3.76442384659856        1.19567914363909        1.21169936162600
H            4.42117929679366        0.64776780896603       -0.34283195819255
H            3.27540828029489        1.98082081035545       -0.31614728757487
H            3.64896407801559       -1.72738655136832       -0.13719383604294
H           -1.93730648565131        3.17486659916040       -0.12752012126837
H           -3.19594696154543        2.49604626126725       -1.11885877479154
H           -3.33586308304358        2.49432182151914        0.64647276272810
H           -0.68645467498156       -3.25269186154293        0.62251139533142
H           -1.14010719650945       -2.99082244354481       -1.09663725886563
H           -2.29871856150500       -2.70148877165906        0.22068851502534
H            1.45727871063815       -2.93101934936354       -0.15809038454350
25
 energy: 70.779661749782 xtb: 6.6.1 (8d0f1dd)
C            3.54665896326345        1.01053237963676        0.16148401871930
N            2.49181805777604        0.05251348316888        0.06254723865421
C            2.73147746922390       -1.27759994491553       -0.06565176210309
N            1.55387357849930       -1.95363823897088       -0.08176658263327
C            0.50559664424416       -1.05366372790360       -0.03564932855766
C            1.07850121675954        0.26272430256703        0.07833655194939
C            0.32820725208230        1.38738178701093       -0.00092179175805
O            0.17584325847840        2.55100273672807        0.22298013956219
N           -2.04528161156508        1.15395711780267       -0.17245972262911
C           -2.72791198800854        2.40865059036075       -0.20352534440341
C           -2.49311341076331        0.07769214978309        0.15637028861096
O           -3.23396603953630       -0.77545267136599        0.40109420491238
N           -0.76646385003954       -1.26510889638367       -0.01418292697592
C           -1.22716092082168       -2.62795167558836       -0.06785890737404
H            3.76794411358374        1.22084289365905        1.21837017118201
H            4.45195247987390        0.59284057067247       -0.29885649347332
H            3.33692128272643        1.94691569284141       -0.34376650767835
H            3.67923006517189       -1.73830994607918       -0.17192825946640
H           -1.98464133528225        3.19322034551705       -0.13330722798415
H           -3.26250609044085        2.55414708314193       -1.13887584106112
H           -3.40602373286967        2.55623244094600        0.62626209237137
H           -0.63434645481097       -3.26448278343403        0.59308276734610
H           -1.16459832085660       -2.98611899025522       -1.10032920964178
H           -2.26261016965129       -2.72357346955551        0.26429855750310
H            1.49409427811848       -2.94662875297828       -0.17576486609375
25
 energy: 70.731529886797 xtb: 6.6.1 (8d0f1dd)
C            3.57628084106188        0.98992769845650        0.16102493163595
N            2.51038351487500        0.04585562515727        0.05570749154863
C            2.75596689949846       -1.28746544031646       -0.08210316112769
N            1.58429576707594       -1.97262974984923       -0.08228117722085
C            0.52975022389569       -1.07355119332992       -0.03567844897481
C            1.10709461352489        0.24623337820854        0.08221872141002
C            0.37589816555693        1.37021289813585       -0.00853154164681
O            0.20260115431544        2.52713641855254        0.21555914898345
N           -2.15466668520502        1.18220051201372       -0.18465926494023
C           -2.79338713141949        2.45064848989522       -0.21791546793082
C           -2.59756842728240        0.13021841057845        0.18743054305038
O           -3.23432980849876       -0.79284960604267        0.45686664123586
N           -0.73428786466476       -1.28109701885562       -0.01397567008843
C           -1.20161317848820       -2.63603357859892       -0.06870792495316
H            3.76748466733778        1.24408077974129        1.21343357458947
H            4.49076355557126        0.53810055370303       -0.25500738160470
H            3.40563528458745        1.91576618209279       -0.37957846330509
H            3.70506302069224       -1.75089948138218       -0.18958327008425
H           -2.02871084006645        3.21174813625073       -0.13911567625008
H           -3.32291355457292        2.60007156954577       -1.15550622920130
H           -3.47600883729601        2.60223699940917        0.60696803957199
H           -0.57643960914855       -3.27216459055783        0.56151987484241
H           -1.18601757269129       -2.97355886518026       -1.10994535408366
H           -2.22485616959725       -2.73959024010164        0.30593781702712
H            1.52512801994226       -2.96246874312096       -0.19306678078427
25
 energy: 70.003937350181 xtb: 6.6.1 (8d0f1dd)
C            3.60127992100636        0.96554915028463        0.16101071592319
N            2.53018244142818        0.03144282101276        0.03579031366018
C            2.77945746280026       -1.30590631030091       -0.09066702076644
N            1.60993100943061       -1.99515890900905       -0.08252116321639
C            0.55145608059334       -1.09552162909981       -0.03908243946183
C            1.13296720977440        0.22555586463899        0.06844827763093
C            0.41852438850135        1.35345033510408       -0.02668978541998
O            0.24217486568686        2.50617509683867        0.20489066578779
N           -2.24846160535942        1.21285174860507       -0.18976018801003
C           -2.85584838896314        2.48935651040114       -0.22898104012095
C           -2.68559793691713        0.17522459937031        0.20814638976443
O           -3.24360106060505       -0.78490979680936        0.51297785407652
N           -0.70980941324341       -1.29603092782398       -0.01954802363760
C           -1.18195103048379       -2.64485376584048       -0.07438988665648
H            3.76384398833797        1.26573794170652        1.20366502424846
H            4.51323370098163        0.47825474253537       -0.21216197185632
H            3.46069140987234        1.86997508416043       -0.41696154759914
H            3.73207028091959       -1.76766936680460       -0.19861271210721
H           -2.07255001582484        3.23052130325397       -0.13972994933067
H           -3.37655253301403        2.64977640162464       -1.17032501627356
H           -3.54647411307082        2.64332307768815        0.58839866372056
H           -0.52541716657781       -3.27152955339273        0.52570372513001
H           -1.20976197993933       -2.97680339291894       -1.11923593547370
H           -2.18831411946753       -2.75684870171133        0.34385663102623
H            1.55300138000944       -2.98405830347802       -0.20037477403035
25
 energy: 69.033815828304 xtb: 6.6.1 (8d0f1dd)
C            3.62750349464844        0.94107296023451        0.15927074597703
N            2.55758881462364        0.00999715322388        0.02162111422797
C            2.80512757807841       -1.33010837007649       -0.09281575339235
N            1.63543002983775       -2.01860028090201       -0.07831676927911
C            0.57481910200562       -1.11896291277319       -0.03905959808389
C            1.16263554907640        0.20055482636087        0.06712262947405
C            0.46098696991507        1.33258072253035       -0.03529400961001
O            0.28143334272958        2.48142653381136        0.20151310123111
N           -2.34749017949621        1.23480692916261       -0.20211498350523
C           -2.91867842683768        2.52371531167329       -0.23795746802672
C           -2.76809617647791        0.20592115188562        0.22744674578052
O           -3.24749468331084       -0.78979513457022        0.55895427333370
N           -0.68474847536889       -1.31377154240863       -0.02448642482257
C           -1.15868142091814       -2.65816631584484       -0.07642912389228
H            3.76294863033755        1.28618860957830        1.18971054056449
H            4.52948364751860        0.41367647635194       -0.16732704037121
H            3.52065362986539        1.82544024011089       -0.45520616579259
H            3.75982472536803       -1.79009779951412       -0.19740876711784
H           -2.11749813371054        3.24682035784945       -0.14064311969045
H           -3.43673940464006        2.69304142514862       -1.18005320141411
H           -3.61399434985460        2.68778635282604        0.57283290063186
H           -0.47322915800095       -3.28041004587245        0.49259770479447
H           -1.22544870561674       -2.99470443596870       -1.11791848624662
H           -2.14797424443252       -2.76871695700303        0.37958830968039
H            1.58004216409133       -3.00785354595942       -0.20143332441993
25
 energy: 68.167622353810 xtb: 6.6.1 (8d0f1dd)
C            3.65754977156447        0.91852452294147        0.15527823454975
N            2.58649971346304       -0.01290365671810        0.01570991161672
C            2.83041479522860       -1.35379065010221       -0.09194756401494
N            1.66045766163151       -2.04034102474402       -0.07297808729996
C            0.59761088633350       -1.14180539378819       -0.03715747900668
C            1.19218304474647        0.17549745370148        0.06657218350327
C            0.50674958269874        1.31404680324397       -0.03924816918889
O            0.32550449824933        2.45976892350953        0.20156220751028
N           -2.44203607288520        1.25583193266585       -0.21168334456047
C           -2.98293448399623        2.55609368915458       -0.24268303398520
C           -2.85130517767677        0.23609592744667        0.24608801262740
O           -3.28232140344067       -0.77900142000533        0.59142626013763
N           -0.66094762503165       -1.33364659064926       -0.02716479847990
C           -1.13807847082814       -2.67441249821066       -0.07929553838443
H            3.76243071357999        1.30867457332618        1.17194298967611
H            4.55772185322975        0.36003652444768       -0.11959120396421
H            3.58998763353448        1.78742805134019       -0.49289904005018
H            3.78665089875707       -1.81393713732704       -0.17316766803554
H           -2.16554656632091        3.26326272304461       -0.13809731858803
H           -3.49886459967581        2.73068910919718       -1.18640655528909
H           -3.68585241682115        2.72279115426552        0.56290175828643
H           -0.43079530938340       -3.30009064221517        0.45300739117018
H           -1.23810606613580       -3.01610735844238       -1.11643745101106
H           -2.10871295736965       -2.77608751008651        0.41073637276658
H            1.59718115004752       -3.03152150277437       -0.19966521401798
25
 energy: 67.316342766731 xtb: 6.6.1 (8d0f1dd)
C            3.68749905533408        0.89674838884781        0.15798600197915
N            2.61560138678479       -0.03541319506255        0.01390512026305
C            2.85752691656186       -1.37756927796378       -0.08230636693430
N            1.68760307140763       -2.06096404297932       -0.07198288156012
C            0.62232998877887       -1.16448066022928       -0.03721445794370
C            1.22095249792181        0.15200164687679        0.06967161742930
C            0.55035595738171        1.29860241180218       -0.03829526469615
O            0.38011413666381        2.44145535298026        0.21883747920747
N           -2.53230448221949        1.28033444024169       -0.21921107434592
C           -3.04380128781672        2.59097863772235       -0.24345613605990
C           -2.93553990848902        0.26561868252510        0.25218264170427
O           -3.34007134628922       -0.76525989661635        0.58532024333056
N           -0.63476631615671       -1.35849581729109       -0.03018147396618
C           -1.12330921507529       -2.69262943596010       -0.08227421105920
H            3.75711466595386        1.33164215184718        1.15762326129973
H            4.59337673850589        0.31899937849613       -0.06146809848602
H            3.65579883900627        1.74460746000091       -0.52502255310239
H            3.81629116261267       -1.83324226367677       -0.15452152191423
H           -2.20797911016718        3.28303362324094       -0.13550383961358
H           -3.56062419282825        2.76822332071037       -1.18881097693744
H           -3.75254642252940        2.75372375978080        0.56244009985894
H           -0.42463405581368       -3.34340228079403        0.41867666230554
H           -1.25030670139444       -3.04163805740118       -1.11188323619573
H           -2.07581914909972       -2.76389451224460        0.43544431841224
H            1.61973336093122       -3.05365178913657       -0.19905808447705
25