25
 energy: -42.105878699281 gnorm: 0.003727173749 xtb: 6.6.1 (8d0f1dd)
C            3.36523353353702        1.05256478373673        0.05657143840351
N            2.37479150060349        0.01051846143194        0.02302780101150
C            2.59992561749335       -1.29982154671002       -0.02314758805350
N            1.42270889584110       -1.96813225382330       -0.02321751861473
C            0.41641057034897       -1.05056127622258        0.02364075712347
C            1.00982631222717        0.20511247711897        0.05546898971862
C            0.24932663167343        1.41676595753516        0.07648674324349
O            0.66152761833881        2.55438045397743        0.07560058811301
N           -1.16821005815768        1.14287851970642        0.06360775483211
C           -1.99452485943475        2.19776993199924        0.05800246207756
C           -1.77377082497368       -0.14654295611952        0.04635897000457
O           -2.96692991966500       -0.27422485341846        0.04585562848023
N           -0.91791948630040       -1.24493148590343        0.02534134387468
C           -1.48771800760728       -2.58020684684442       -0.00384620551910
H            3.81476506528629        1.11520147090977        1.04897938355173
H            4.14760639009792        0.85110496563942       -0.67295797542397
H            2.88387248747993        2.00352881220143       -0.16722882225226
H            3.56593632111382       -1.76259986080597       -0.05540754547680
H           -1.54919846492859        3.17608398066464        0.08343790105028
H           -4.80873992310011        2.07267510806969       -0.56044091676929
H           -3.06982182238685        2.04309036220787       -0.05601943203757
H           -1.18315559221232       -3.14198650269579        0.87928539155838
H           -1.18104391387463       -3.10354083513572       -0.90954141775523
H           -2.57185278530960       -2.47871514786477       -0.00269123491763
H            1.32138622801033       -2.97217317805455       -0.05599487832239
