25
 energy: -45.742273356973 gnorm: 7.479166611733 xtb: 6.6.1 (8d0f1dd)
C            3.21786164340000        1.13591514650000        0.01837059260000
N            2.27034809790000        0.05199982890000        0.00038279530000
C            2.54167221030000       -1.23971668410000       -0.00834188300000
N            1.39367826450000       -1.95088267900000       -0.00850347120000
C            0.35269634020000       -1.06748964300000        0.00059917290000
C            0.90759959010000        0.20069750900000        0.00663590170000
C            0.07590235260000        1.39864294500000       -0.00284827040000
O            0.48715076820000        2.53168346660000       -0.01725767220000
N           -1.27221500230000        1.06666939660000        0.00165480230000
C           -2.23229981500000        2.16656245330000       -0.00245172030000
C           -1.84872931540000       -0.19179276200000        0.00496135950000
O           -3.03273030250000       -0.36103538130000        0.00858583760000
N           -0.96599111670000       -1.30060631840000        0.00174701630000
C           -1.52030655580000       -2.64076660390000       -0.00239033190000
H            3.71480285180000        1.18589984860000        0.98803183970000
H            3.97079415090000        0.99383197990000       -0.75543416370000
H            2.68321036910000        2.07051068580000       -0.15067179540000
H            3.52469367910000       -1.66989040330000       -0.01523639120000
H           -1.67672429040000        3.10039111610000        0.00486339690000
H           -2.85755792270000        2.10547813320000       -0.89185337000000
H           -2.87119733260000        2.09858159720000        0.87661144540000
H           -1.20589108080000       -3.18768007210000        0.88663215920000
H           -1.21982032550000       -3.17678505510000       -0.90288069810000
H           -2.60531402170000       -2.54255916880000        0.00649952960000
H            1.32879827740000       -2.95942079410000       -0.01653446370000
25
 energy: -57.003222685769 gnorm: 15.050680249128 xtb: 6.6.1 (8d0f1dd)
C            3.21521474116778        1.13752237758712        0.01838436926321
N            1.98258084101331        0.27436066435648        0.00062383867109
C            2.53715410184629       -1.23191466288322       -0.00829871197335
N            1.39375932859980       -1.95098660943525       -0.00850429226691
C            0.35260596873329       -1.06772668314883        0.00059723194451
C            0.89911009175308        0.20344675011709        0.00668423939287
C            0.07535423337490        1.39856129585640       -0.00284613061918
O            0.48712373956185        2.53179121055184       -0.01725723702380
N           -1.27271154549612        1.06620572495897        0.00165030634999
C           -2.23155042214844        2.16490777846629       -0.00245772712976
C           -1.84864633469241       -0.19187357896289        0.00496128848121
O           -3.03281080536046       -0.36103091064856        0.00858650499370
N           -0.96609961266981       -1.30068898918801        0.00174738062610
C           -1.52031834058128       -2.64074957423058       -0.00239028052503
H            3.71466647497225        1.18573129012132        0.98802993387536
H            3.97052503066740        0.99351348948248       -0.75544784762708
H            2.68362400861630        2.07095632429823       -0.15065934828323
H            3.52456940387192       -1.66902551697555       -0.01523226252908
H           -1.37309343744601        2.86699516928838        0.00451912009101
H           -2.85743202198923        2.10578632017556       -0.89196061749287
H           -2.87107117726393        2.09889427618888        0.87672633512778
H           -1.20589365139482       -3.18767869331148        0.88663119311604
H           -1.21982282261316       -3.17678355866886       -0.90288018992485
H           -2.60532036148958       -2.54255783026629        0.00649923872709
H            1.32891408306707       -2.95941752212950       -0.01653471736481
25
 energy: -75.745909072658 gnorm: 22.566672569335 xtb: 6.6.1 (8d0f1dd)
C            3.21240077819643        1.13906450473911        0.01840941631039
N            1.70202767484606        0.50115308444217        0.00085737028578
C            2.53340753145369       -1.22568425370821       -0.00825661240162
N            1.39383207968197       -1.95044399426931       -0.00850259689904
C            0.35220189430001       -1.06875474496530        0.00059295709256
C            0.88156493664900        0.20536467642420        0.00677248187163
C            0.07384535600991        1.39855485820895       -0.00283662082009
O            0.48730837079083        2.53187345854643       -0.01725770430671
N           -1.27316382631379        1.06541779762444        0.00164344194848
C           -2.23030435776980        2.16384963756743       -0.00245955661614
C           -1.84845832184456       -0.19217337744397        0.00496075100382
O           -3.03290393671109       -0.36094491643462        0.00858735817618
N           -0.96657035080811       -1.30072812801971        0.00174796810317
C           -1.52036568154288       -2.64070063371409       -0.00238986020077
H            3.71441522536148        1.18539215503356        0.98799952924593
H            3.97007352743986        0.99299392649683       -0.75545537916144
H            2.68426783525009        2.07167087649468       -0.15066566505401
H            3.52431190170544       -1.66818462825715       -0.01522739602495
H           -1.06718014554498        2.63138836606496        0.00416336591558
H           -2.85721082516217        2.10618635571347       -0.89201638014683
H           -2.87084733129453        2.09929997451700        0.87679045445358
H           -1.20593369184785       -3.18765788824971        0.88663135173693
H           -1.21986282867045       -3.17676239721897       -0.90288069247971
H           -2.60535833188455       -2.54251756761614        0.00649910199713
H            1.32893403180998       -2.95941860037605       -0.01653546612986
25
 energy: -102.425459383072 gnorm: 31.054776031128 xtb: 6.6.1 (8d0f1dd)
C            3.21021869495962        1.14007028843325        0.01843040485738
N            1.44160513623508        0.74456954071512        0.00097812077396
C            2.53118436223778       -1.22266814943103       -0.00823561257213
N            1.39415563147404       -1.94969307510907       -0.00849821958368
C            0.35126834907644       -1.07026349220929        0.00058986065427
C            0.84113610145241        0.19454163062617        0.00704609995187
C            0.07101164552682        1.39884721246103       -0.00283022001061
O            0.48785378987244        2.53200238238109       -0.01726049017372
N           -1.27341178083981        1.06460060220840        0.00163386729221
C           -2.22847341523303        2.16354124963953       -0.00246042990334
C           -1.84829484192623       -0.19248946074094        0.00495934268226
O           -3.03303767209286       -0.36058472438406        0.00858722544271
N           -0.96725315484894       -1.30069973742124        0.00174842968962
C           -1.52064606339785       -2.64052017170811       -0.00238820481755
H            3.71422625323733        1.18474212635905        0.98797284816786
H            3.96972343895394        0.99216844377909       -0.75547701357515
H            2.68514416676339        2.07212739201281       -0.15068877386786
H            3.52395321397062       -1.66800441047927       -0.01522214627845
H           -0.75939871525066        2.39519713970383        0.00379117694777
H           -2.85679181919092        2.10677832304195       -0.89205677726480
H           -2.87042681023621        2.09989927429989        0.87683293102374
H           -1.20622958741644       -3.18752390425312        0.88663322337448
H           -1.22015703069585       -3.17662808100157       -0.90287986061057
H           -2.60560149549729       -2.54225227756615        0.00649943007959
H            1.32867311696617       -2.95951957975736       -0.01653359437983
25
 energy: -137.545459686491 gnorm: 39.065947320533 xtb: 6.6.1 (8d0f1dd)
C            3.20964734746146        1.14064008479756        0.01842379586378
N            1.17703347054942        0.99718955614576        0.00109859447627
C            2.52982827005876       -1.22067607089270       -0.00822060437006
N            1.39473757628376       -1.94917750998675       -0.00849726488884
C            0.35048711911219       -1.07154598436811        0.00059143591593
C            0.80732740286032        0.16627159035641        0.00736886552149
C            0.06832336257645        1.39886829584666       -0.00283353287990
O            0.48798196943700        2.53327168998415       -0.01726974399582
N           -1.27359325994255        1.06409076666849        0.00163003367805
C           -2.22731813558032        2.16329344827532       -0.00246191033743
C           -1.84825206969468       -0.19291091027721        0.00495866116813
O           -3.03318972282993       -0.36022358938455        0.00858760199884
N           -0.96793880326011       -1.30069859377349        0.00174998010457
C           -1.52093461367723       -2.64033935240656       -0.00238706791200
H            3.71412370556907        1.18416896793007        0.98792634033941
H            3.96953539093143        0.99149666405160       -0.75545897387907
H            2.68594429406468        2.07231116600143       -0.15071557444108
H            3.52363848746796       -1.66814773837017       -0.01521859744649
H           -0.45606913576120        2.16822754365856        0.00339939752988
H           -2.85641260788516        2.10727505905057       -0.89208690481324
H           -2.87004748874420        2.10040050063451        0.87686560411951
H           -1.20652286480225       -3.18738972944091        0.88663293380064
H           -1.22044910058768       -3.17649329076004       -0.90287778869416
H           -2.60584276846223       -2.54199519355977        0.00649967406498
H            1.32839368895504       -2.95966882858085       -0.01653333702339
25
 energy: -179.577437553002 gnorm: 44.379921928651 xtb: 6.6.1 (8d0f1dd)
C            3.20930139016267        1.14178144222871        0.01842499962774
N            0.88663561514391        1.22995288712074        0.00145579952560
C            2.52879212697777       -1.21818807911074       -0.00821416858848
N            1.39579148641766       -1.94872386349375       -0.00850636848091
C            0.35048675771663       -1.07212628386670        0.00058506702917
C            0.79832203712492        0.14832060848427        0.00751366235299
C            0.06475536763210        1.39796994608929       -0.00286005727215
O            0.48677349445095        2.53726067665487       -0.01732054731161
N           -1.27388226165871        1.06370441315251        0.00163410270271
C           -2.22758506907564        2.16242521281363       -0.00245426369948
C           -1.84827923768030       -0.19385784519511        0.00496238608107
O           -3.03322720130785       -0.36068655123135        0.00859412272067
N           -0.96846023969835       -1.30096919291562        0.00175070601507
C           -1.52054784847939       -2.64059344683590       -0.00238989716894
H            3.71375371384446        1.18457836533554        0.98787658144406
H            3.96914867929357        0.99192797462330       -0.75543177332533
H            2.68591314401837        2.07290436468629       -0.15074097617409
H            3.52374919727603       -1.66743027446508       -0.01522809440999
H           -0.15154787567205        1.94925963181095        0.00301582626073
H           -2.85665776392148        2.10694835525708       -0.89210278520842
H           -2.87028776276887        2.10006709619323        0.87691019400021
H           -1.20600645952884       -3.18760824704331        0.88662719279353
H           -1.21993823584455       -3.17670899998212       -0.90288409633304
H           -2.60544014838948       -2.54245380663549        0.00649830097773
H            1.32886860806647       -2.95951584207523       -0.01654429565883
25
 energy: -224.100863359444 gnorm: 47.379501408641 xtb: 6.6.1 (8d0f1dd)
C            3.20864610076816        1.14342962567383        0.01843509682620
N            0.59385737631381        1.45316565389070        0.00210648595305
C            2.52797745641411       -1.21506932434411       -0.00821413146222
N            1.39678988724610       -1.94823974864907       -0.00851962141774
C            0.35051597229402       -1.07250307438117        0.00056734037961
C            0.79741338274228        0.14116919508182        0.00757039459679
C            0.04310008687609        1.38285092842996       -0.00319693305765
O            0.48652098086561        2.54472006198619       -0.01745542498292
N           -1.27473481946617        1.06300753446727        0.00164067384247
C           -2.22844010359318        2.16108015630308       -0.00243904845666
C           -1.84837155485603       -0.19509376711064        0.00496882024372
O           -3.03311967579588       -0.36181230108671        0.00860287550357
N           -0.96852212543447       -1.30153774096480        0.00174777099355
C           -1.51965128253227       -2.64123277458274       -0.00239661827611
H            3.71314799181472        1.18576006231315        0.98782205985607
H            3.96856140204679        0.99320633092084       -0.75539769111784
H            2.68527494354375        2.07392652775611       -0.15076234519063
H            3.52418816891233       -1.66593964219457       -0.01524386281254
H            0.16386522887076        1.74013159549742        0.00282967557956
H           -2.85736889617610        2.10600250964235       -0.89211198066418
H           -2.87099080786323        2.09910809416086        0.87696337892321
H           -1.20485298330375       -3.18810314330872        0.88661465862795
H           -1.21879431539662       -3.17720023804618       -0.90289390414319
H           -2.60453290187047       -2.54348130130049        0.00649477067285
H            1.32995200167965       -2.95910667855437       -0.01656082251691
25
 energy: -239.908677272088 gnorm: 26.312793936022 xtb: 6.6.1 (8d0f1dd)
C            3.20895134301212        1.14465021995935        0.01844630594736
N            0.33844306724541        1.68543692461910        0.00336932204201
C            2.52907086322557       -1.21483305188776       -0.00823837781749
N            1.39786917410596       -1.94766306776220       -0.00853948904745
C            0.35060143590035       -1.07280722064202        0.00054575351321
C            0.80010960341149        0.13400979243032        0.00760869313341
C           -0.04151670608651        1.33154631545355       -0.00450667025780
O            0.48661842685554        2.55470693128914       -0.01762706452992
N           -1.27584822949871        1.06237176866812        0.00165126922310
C           -2.22974560386354        2.16019165685876       -0.00241099613627
C           -1.84849468850496       -0.19646668534704        0.00497698862817
O           -3.03299447951066       -0.36314290914148        0.00861595255296
N           -0.96852378626715       -1.30216591825416        0.00174301194178
C           -1.51860725059158       -2.64197633408884       -0.00240793571217
H            3.71250479180854        1.18721094124443        0.98775861460627
H            3.96798900293350        0.99483751110538       -0.75535422560777
H            2.68432785107024        2.07493142586975       -0.15079109879381
H            3.52474916235079       -1.66456812723867       -0.01527076072072
H            0.49832871276647        1.55907845046149        0.00310144938196
H           -2.85825904816543        2.10477835552174       -0.89207353316146
H           -2.87187035684015        2.09786315892139        0.87698799328135
H           -1.20350660826619       -3.18868244263581        0.88659423532153
H           -1.21746052513449       -3.17777170723666       -0.90290934312438
H           -2.60347430208228       -2.54468035020345        0.00648843344772
H            1.33116966422566       -2.95861709636442       -0.01658691021160
25
 energy: -238.512879042469 gnorm: 47.332006856280 xtb: 6.6.1 (8d0f1dd)
C            3.20939626292090        1.13705544962057        0.01837214759993
N            0.53775397449499        1.89914246396452        0.00809229595436
C            2.51903091199865       -1.21150909505711       -0.00841101782816
N            1.39280192770531       -1.95181937348681       -0.00873900659600
C            0.34701376283209       -1.07421495026243        0.00046477749312
C            0.78977945691908        0.13850039677617        0.00766540578113
C           -0.29395278563229        1.09647729318879       -0.00921560314471
O            0.50667411831534        2.58902333111304       -0.01807934723979
N           -1.27788134228820        1.06372918483312        0.00182106152270
C           -2.22149943902040        2.16526116587099       -0.00212747054730
C           -1.84919573410924       -0.19056151816411        0.00509897442259
O           -3.03401159068883       -0.35312877142826        0.00880669848604
N           -0.97278516711406       -1.29893211496056        0.00173652206727
C           -1.52685763634474       -2.63673844196459       -0.00245873910817
H            3.71632517533282        1.17532308823160        0.98754441256388
H            3.97087050522643        0.98206887866387       -0.75550842964856
H            2.69165832277515        2.06735716908946       -0.15083790356808
H            3.51940216844677       -1.67424066885710       -0.01558155758278
H            0.58135716381211        1.52888642843120        0.00379176416029
H           -2.85099169174554        2.11492633591351       -0.89190693139502
H           -2.86451037955168        2.10795272082939        0.87749544123451
H           -1.21337016815243       -3.18447077049768        0.88648698608716
H           -1.22740564516735       -3.17340451723566       -0.90301159602769
H           -2.61133388906922       -2.53595576171009        0.00651453544748
H            1.32216323220435       -2.96248938130183       -0.01684180223422
25
 energy: -207.419582894930 gnorm: 947.488354820930 xtb: 6.6.1 (8d0f1dd)
C            3.20694652974406        1.14767418782023        0.01850649329777
N            0.60519839193863        1.73256189775604        0.00977139957624
C            2.52603668749108       -1.20687386690382       -0.00835257455757
N            1.40023963041057       -1.94710789425494       -0.00868852801395
C            0.35052390247340       -1.07447574035238        0.00045419958767
C            0.79430671426813        0.13741324974370        0.00767793042422
C           -0.44321545213405        0.97114386431737       -0.01208560677791
O            0.50053437595727        2.66664306711635       -0.02052527531276
N           -1.29448154532211        1.05754424633237        0.00188439074365
C           -2.23035991185049        2.15734768953088       -0.00220827746873
C           -1.84939326817833       -0.19881947837812        0.00505744500727
O           -3.03321693777446       -0.36485320418733        0.00870572190457
N           -0.96908071695998       -1.30313907669012        0.00170647829513
C           -1.51753481488701       -2.64284187734854       -0.00249877127229
H            3.71147310298823        1.18849207441555        0.98755257309733
H            3.96680509104786        0.99632447496380       -0.75528655786728
H            2.68343133172573        2.07653496097870       -0.15083586926512
H            3.52504239257222       -1.66214087562230       -0.01546565731972
H            0.64616342873712        1.75801898396784        0.00736054012707
H           -2.85900516549370        2.10386761076529       -0.89194944716245
H           -2.87255827142259        2.09684796074355        0.87732682108946
H           -1.20193575916222       -3.18938165751838        0.88645384463471
H           -1.21595357858442       -3.17837455169545       -0.90303841439138
H           -2.60226621288401       -2.54608011803152        0.00643705106762
H            1.33273156939906       -2.95808738586876       -0.01678829154356
