25
 energy: 0.000000000000 xtb: 6.6.1 (8d0f1dd)
C            3.23720132972391        1.16630909158653        0.08434468864950
N            2.29877796055224        0.07527476373246        0.03981602671198
C            2.58028186251803       -1.21425391179017        0.03006175752192
N            1.43813944744728       -1.93419254010258        0.00098261751768
C            0.39035684826767       -1.05887462812143       -0.00790371763344
C            0.93510047688824        0.21347817468824        0.01709077332874
C            0.09450143016486        1.40504290868848       -0.00410946993748
O            0.49712746915594        2.54126690785742       -0.00342325656480
N           -1.25076628431515        1.06271869620815       -0.03085477937476
C           -2.21907191394203        2.15522079838987       -0.05001256521996
C           -1.81739470187490       -0.20012724136556       -0.04692818139228
O           -2.99983858926755       -0.37846413507442       -0.07008877579474
N           -0.92618577614240       -1.30210203518959       -0.03682761236648
C           -1.46982251276835       -2.64643077634382       -0.06029819901142
H            3.71247229913541        1.21471443890471        1.06488839270555
H            4.00791460421487        1.03430799217987       -0.67357688121503
H            2.69909982127087        2.09770098766290       -0.09130154035862
H            3.56654087521359       -1.63682977417947        0.04233139674524
H           -1.67107945562430        3.09322822573871       -0.02552706696334
H           -2.82428927394145        2.09428605349656       -0.95318074103337
H           -2.87644002486466        2.07745706351925        0.81450059976605
H           -1.17061985538665       -3.19584861009707        0.83242224714061
H           -1.14560246782873       -3.17511580834413       -0.95688266944647
H           -2.55549768731684       -2.55659960601237       -0.07459039105944
H            1.38130842369251       -2.94313824728853       -0.01389874052104
25
 energy: -6.043214821761 xtb: 6.6.1 (8d0f1dd)
C            3.24934920924862        1.17792852577695        0.08907352056388
N            2.30552963595781        0.10554505183401        0.03243048487486
C            2.58994453237622       -1.24916323200273        0.03235408934233
N            1.39299524613932       -1.93089396759888        0.00247494885353
C            0.38089031048653       -1.04002469235510       -0.00886453712579
C            0.91493421237453        0.23943477217730        0.01122477348162
C            0.10452337886778        1.39179069405927       -0.01470035101441
O            0.48152756205729        2.56878196201730       -0.00723647480743
N           -1.28916598469885        1.04836474939489       -0.03369368360520
C           -2.21588249308213        2.16941732951410       -0.04953638224990
C           -1.85112702644448       -0.19560402530179       -0.04892548527108
O           -3.05007863778265       -0.38279483696681       -0.07108240891221
N           -0.96016628508075       -1.29535525184376       -0.03709723660883
C           -1.40513220760289       -2.67480681829637       -0.05802831639161
H            3.75674805854702        1.21231540492675        1.06005974841967
H            4.00446582584117        1.07846706981354       -0.69545184282351
H            2.70223021693281        2.10806674470779       -0.06206858853737
H            3.56372279814155       -1.67812926467379        0.04288568886740
H           -1.62250957311715        3.07921026583766       -0.02260058380818
H           -2.82125062830725        2.13689633128745       -0.95568079481930
H           -2.87571024545098        2.11563893058374        0.81654546573027
H           -1.06586189283553       -3.21552318737664        0.83122466167591
H           -1.03741858952904       -3.19862840318048       -0.94537714909853
H           -2.49758639381654       -2.65351669694478       -0.07903037553966
H            1.29617127676512       -2.93313951862877       -0.01055154724982
25
 energy: -3.962685083084 xtb: 6.6.1 (8d0f1dd)
C            3.24763310436188        1.16757982986414        0.09051676972158
N            2.29251181220588        0.10422343389494        0.02053219381183
C            2.56463017474067       -1.26203041189885        0.03197568586930
N            1.35565682856004       -1.92228084461279        0.00352764447451
C            0.35211965681445       -1.01968370595774       -0.01019478112217
C            0.89942374530723        0.25361944796620        0.00513896469963
C            0.08233975963270        1.40064084887877       -0.01935338131095
O            0.45582359051473        2.57859696621999       -0.01293890493752
N           -1.31748631914876        1.04893915339629       -0.03684867036868
C           -2.21402871723880        2.19597136117205       -0.04992462309612
C           -1.89096405587318       -0.19372837002320       -0.05049214642699
O           -3.09007367402277       -0.37941452699627       -0.07155954260942
N           -0.99022533439760       -1.29175996325173       -0.03703717139262
C           -1.34118116494277       -2.70598183370297       -0.05549911517425
H            3.78443363936571        1.18750886713659        1.04809182976674
H            3.97992909323722        1.07714244630289       -0.71617572106973
H            2.70963848626159        2.10908095723567       -0.02980954948249
H            3.53541220534175       -1.70842104172006        0.04362546794486
H           -1.58251541197722        3.07803364971683       -0.02123400632827
H           -2.81875868646036        2.18342598175750       -0.95630794267470
H           -2.87352443267039        2.15883586824209        0.81676790092398
H           -0.96251453182221       -3.22301639931943        0.83334604081837
H           -0.93015416602731       -3.21060210853833       -0.93605171890863
H           -2.43836030650054       -2.76121194725394       -0.08251905837999
H            1.21856587329397       -2.91972494193869       -0.00532528970441
25
 energy: -0.247416664891 xtb: 6.6.1 (8d0f1dd)
C            3.23515370381057        1.14845432727598        0.09146766378872
N            2.26826660744693        0.09514377829864        0.01853200954881
C            2.53301436946266       -1.27617489607275        0.03266052428031
N            1.31574399630019       -1.91661656999831        0.00635721602338
C            0.31898141727558       -1.00648825096647       -0.01151237617312
C            0.87625268560940        0.26286972324420       -0.00015348280680
C            0.05968993183195        1.40890406195673       -0.02472580551499
O            0.42613975777191        2.58867272198799       -0.02160111249941
N           -1.34394655451155        1.05362691064984       -0.04058753146912
C           -2.21312959555533        2.22244348266114       -0.04915358558718
C           -1.92815931806800       -0.18917910051507       -0.05276391491826
O           -3.12929659674158       -0.35960140833982       -0.07223096282148
N           -1.02160316433366       -1.30204457219550       -0.03943679882627
C           -1.28025608451099       -2.74236730127099       -0.05396067016087
H            3.78616902002901        1.14373154789577        1.04109784179350
H            3.94897076900370        1.05230279182540       -0.72958254392366
H            2.71168652526317        2.10152685211425       -0.00211002016004
H            3.49953165592306       -1.73839320343868        0.04685256607895
H           -1.54588012791847        3.07906923109519       -0.01804233272988
H           -2.81530377723313        2.22800074373667       -0.95622358565493
H           -2.86991930573350        2.19800982311200        0.81902437302216
H           -0.85860815041794       -3.22607310044587        0.83592237549227
H           -0.82226003826580       -3.21879763292852       -0.92837965788782
H           -2.37704869352673       -2.86580581096849       -0.08679842075568
H            1.14084447813706       -2.90795952898596        0.00291973081622
25
 energy: 5.261412136139 xtb: 6.6.1 (8d0f1dd)
C            3.22140787027930        1.12933871640344        0.09198983949544
N            2.24324502744595        0.08614387933827        0.01769897857279
C            2.50110720986959       -1.28534136685694        0.03032467762780
N            1.27932927238595       -1.91188296051368        0.00773242002662
C            0.28611889292979       -0.99828017652126       -0.01223897591394
C            0.85070081105797        0.26778569460343       -0.00332367601265
C            0.03996837885110        1.41795779426933       -0.03172232427438
O            0.40247761596676        2.59934647158728       -0.03043369264521
N           -1.36418590380504        1.06398537229215       -0.04720944540977
C           -2.21148974298261        2.25021905307300       -0.05033951923813
C           -1.95808691097537       -0.18048792043141       -0.05552826166383
O           -3.16028983805789       -0.32834608123490       -0.07216093100348
N           -1.05061524552732       -1.31999244258384       -0.04111393674696
C           -1.22451651131179       -2.78512878203729       -0.05240335343837
H            3.78362948006659        1.09786363684615        1.03419371040600
H            3.91366632357892        1.04272044946434       -0.74785006060972
H            2.70715823998216        2.08744968216014        0.02401977381137
H            3.46360855849125       -1.76244067219002        0.04675635236052
H           -1.51201469031890        3.08360468700619       -0.01772307383760
H           -2.81291729512686        2.27093521562341       -0.95712728609529
H           -2.86676558022395        2.23681866516501        0.81911082401212
H           -0.75995188153496       -3.22701451449969        0.83956609735040
H           -0.72169435438545       -3.22122782340429       -0.92328039413869
H           -2.32010200200437       -2.96426243669222       -0.08690630079114
H            1.06851721164491       -2.89574537549226        0.01460820223705
25
 energy: 12.203952529251 xtb: 6.6.1 (8d0f1dd)
C            3.20656074868139        1.11531308444281        0.09111885148134
N            2.21837432699485        0.08188466561729        0.01525291374167
C            2.47221606645078       -1.28615217413918        0.02997365752795
N            1.25007902046084       -1.90271624015114        0.00994610789042
C            0.25402556602216       -0.99327884173261       -0.01162740866337
C            0.82510546634954        0.27190116562978       -0.00981084942284
C            0.02649863707275        1.42964083679782       -0.04319275938811
O            0.38953997001718        2.61116351019043       -0.04540418070600
N           -1.37611554774293        1.08274788227986       -0.05389299056080
C           -2.20581174363685        2.28307515084138       -0.05155164867092
C           -1.97759521225155       -0.15937776316544       -0.05847576747042
O           -3.18015597446384       -0.28684616026119       -0.07165570121183
N           -1.07706958568888       -1.34081205319714       -0.04179228682969
C           -1.18227266617148       -2.83873618077198       -0.05208462630107
H            3.78462925733429        1.05317057045817        1.02229460159107
H            3.87462168462715        1.04235235979636       -0.76967387611022
H            2.70142193304485        2.07919396452395        0.05468988833465
H            3.42826046899462       -1.78167406950170        0.04581798338710
H           -1.48033288703355        3.09852939595592       -0.01810464122157
H           -2.80777006607097        2.31655199487365       -0.95767357255908
H           -2.86084337270572        2.27779888690798        0.81877295661624
H           -0.67622340579798       -3.24442980540727        0.84260311938500
H           -0.62696356081713       -3.23278320516093       -0.91436155177051
H           -2.26704415945006       -3.06645626980228       -0.09254660419420
H            1.03972941033017       -2.87947835795128        0.06025408256620
25
 energy: 19.910258534213 xtb: 6.6.1 (8d0f1dd)
C            3.18976613026129        1.10391997773763        0.09073024217589
N            2.19271282687506        0.07807318560971        0.01104397839373
C            2.44227402751713       -1.28447624202773        0.03002183731824
N            1.22438972217342       -1.90438199443372        0.01566961947881
C            0.22426871417638       -0.99924593522374       -0.00866060602768
C            0.80015420402492        0.26902579212936       -0.01613797229483
C            0.02797978547217        1.43996946931901       -0.05504296254042
O            0.40961959029977        2.61659632409350       -0.06624801744109
N           -1.37859705572062        1.10582685609082       -0.05728985144738
C           -2.19533352066898        2.31834781830162       -0.05199931788069
C           -1.98967406496874       -0.13002650572655       -0.06009736147818
O           -3.19064283592491       -0.24191916548815       -0.07126317621049
N           -1.09403160072981       -1.37641871342482       -0.03651784216324
C           -1.14938160026540       -2.90093922220970       -0.06137323066051
H            3.78675750148157        1.01023662025908        1.00786625665324
H            3.83394405427554        1.05341538364999       -0.79034488091504
H            2.69459917417034        2.07344275091115        0.08827784546495
H            3.39163721032981       -1.79010440103865        0.04164534211660
H           -1.45529052450796        3.12616780428209       -0.01690743474338
H           -2.79816477563774        2.36260557096595       -0.95803366912158
H           -2.85185942817647        2.31893416630333        0.81836162632594
H           -0.64758139231905       -3.31152847777305        0.84039185466322
H           -0.54131478476180       -3.27197981419473       -0.90443818064164
H           -2.21496445739067       -3.16795374405932       -0.10583062799354
H            1.03774380502587       -2.88633655131983        0.10414227523899
25
 energy: 29.400161974589 xtb: 6.6.1 (8d0f1dd)
C            3.17579324917639        1.09267999313604        0.09005974965124
N            2.16967005425060        0.07678747317596        0.00664354290767
C            2.41507144530365       -1.28255468284641        0.03354474325347
N            1.19868091980072       -1.90374649923872        0.02888687923414
C            0.19825038843541       -1.00190812158250       -0.00222206680892
C            0.77880354516293        0.26707548816272       -0.01877503771188
C            0.03021030359503        1.45143878808422       -0.04182805442884
O            0.43467914866593        2.62077127732020       -0.07068382283085
N           -1.37423266351853        1.13503288536915       -0.05165251251833
C           -2.18749317246287        2.35382021935940       -0.04979470415847
C           -1.99760323698833       -0.09502589686654       -0.05952732684262
O           -3.20022358749298       -0.19127735610888       -0.07008524944102
N           -1.11511161590212       -1.38536650176132       -0.03278116517347
C           -1.11651942320882       -2.96270547728427       -0.07286313165807
H            3.79062096034071        0.96627227646458        0.99248506564252
H            3.79695026004605        1.06425586904201       -0.80871506436667
H            2.69002186541712        2.06635922714618        0.11990506616128
H            3.35878644561688       -1.79649621872368        0.04419921475491
H           -1.44306168975940        3.16095971184357       -0.01285737182119
H           -2.79366727389548        2.40313670706462       -0.95483848489480
H           -2.84814567937126        2.35550538644262        0.81872504062901
H           -0.62530166223073       -3.37881874875260        0.83350344855802
H           -0.48706826920355       -3.32847553764404       -0.90428509641907
H           -2.16615582521595       -3.24054753460904       -0.11507083404208
H            0.99730701899956       -2.88465317627232        0.14872679008295
25
 energy: 47.115672701333 xtb: 6.6.1 (8d0f1dd)
C            3.16055366315201        1.08875834343128        0.08654489455747
N            2.14440731514302        0.07269185158962        0.00947585989320
C            2.36674820062769       -1.25877152369589        0.04050416118771
N            1.16178684998747       -1.89079077783871        0.04572506340821
C            0.14975706369603       -0.97358274361203        0.00274789198072
C            0.77062113695319        0.27733479898343       -0.01553047293126
C            0.01947000511622        1.48680292932029       -0.03201891334901
O            0.47456240611098        2.62487355389491       -0.07226594009833
N           -1.34979049607884        1.21492144124891       -0.04544917401655
C           -2.17181858216170        2.41168399651741       -0.04710013213203
C           -1.98106564993891       -0.05579978686527       -0.05349630621702
O           -3.18788668397740       -0.10949698807546       -0.06703412482079
N           -1.16009288144301       -1.21993626446326       -0.02729236703307
C           -1.05391419468385       -3.25942845445898       -0.08827219897741
H            3.79573039641784        0.93236965098282        0.96989092755116
H            3.75286824587332        1.08407864687155       -0.83085955658798
H            2.68067214592229        2.06341944118196        0.15217920042604
H            3.31066361809996       -1.78816648724060        0.04908071397512
H           -1.43346268902343        3.21851764396293       -0.00220918091206
H           -2.77957749458739        2.44663306366420       -0.95334684059001
H           -2.83846967061988        2.39363320733976        0.81773188835301
H           -0.60944872744193       -3.52901406991682        0.84934441434704
H           -0.45231127733403       -3.47551475489855       -0.94300021464281
H           -2.11792525734328       -3.32937749150249       -0.12471785548148
H            0.90132106254134       -2.86994841062053        0.13103325637819
25
 energy: 47.071675229258 xtb: 6.6.1 (8d0f1dd)
C            3.14557620432898        1.08069477779635        0.07894035488658
N            2.12177268494839        0.06629558414838        0.01638130446646
C            2.33188076729556       -1.25481137632216        0.05527960611219
N            1.13853851222485       -1.89024850789874        0.06407188662619
C            0.11917369775027       -0.96795546311889        0.01922546283768
C            0.75724084691730        0.27808763235937        0.00232346194147
C            0.01673119145539        1.50411203521394       -0.01973108610519
O            0.49405644569512        2.63079162876537       -0.04920380438554
N           -1.34461525509979        1.25592401076595       -0.04279241680019
C           -2.15790588164207        2.45435206825554       -0.04589014829974
C           -1.98719412903357       -0.01710949149559       -0.04669557734668
O           -3.19441620099991       -0.05166956951591       -0.06227581078937
N           -1.18751619385228       -1.17552681010429       -0.02265839471709
C           -0.99654196808391       -3.37921465873449       -0.09921643513565
H            3.79917638937588        0.89699745447814        0.94210074637037
H            3.71112137662633        1.08902084257344       -0.85737486270471
H            2.67585233945486        2.05760736395657        0.18168761477501
H            3.27493845953233       -1.78495672273951        0.05936668526853
H           -1.40414491657918        3.24830098471643        0.00463224674335
H           -2.76816958063257        2.49373014165195       -0.95173116208644
H           -2.83098815094265        2.43940970301103        0.81520321044448
H           -0.58525286827329       -3.65239050594658        0.84491996692844
H           -0.40055409043465       -3.58908917096436       -0.95648353766167
H           -2.05829778145868       -3.41678861521711       -0.13499001753672
H            0.81486116953348       -2.86227593238092        0.11035543216435
25
 energy: 46.652120465270 xtb: 6.6.1 (8d0f1dd)
C            3.13616236383870        1.07897530042559        0.07182417318328
N            2.10417056285080        0.06779490129366        0.03880290190458
C            2.31197214662527       -1.24939982212307        0.08470441563879
N            1.11955284347692       -1.88793942297562        0.09006649110178
C            0.09740218916193       -0.95954614391330        0.02982379711840
C            0.74173474251287        0.28411400655049        0.01628559554792
C            0.01674521709504        1.52282729257508       -0.01032896869418
O            0.51130049168409        2.64022963887350       -0.02179684923137
N           -1.34215919269810        1.29276393518658       -0.04331865306735
C           -2.14709113135726        2.49221530397902       -0.04335750253950
C           -1.99392315301029        0.02238934189430       -0.04417246881779
O           -3.20165474192233        0.00129427509150       -0.05974728406609
N           -1.20979748914087       -1.14345361331005       -0.02112037266345
C           -0.93688935063320       -3.47171522417745       -0.10209110224247
H            3.81188052593452        0.86253064844006        0.90974593198349
H            3.67106403931283        1.08775815122854       -0.88428915669454
H            2.67892415311608        2.05693833982380        0.21442902798572
H            3.26706615093465       -1.75695152358201        0.07485785967428
H           -1.39912494190345        3.28907196964936        0.02031466706630
H           -2.75624761900982        2.53790020692032       -0.95093918931710
H           -2.82468620397908        2.47681433714833        0.81465316472088
H           -0.55603815986971       -3.77294157661531        0.84345631671470
H           -0.35082935722914       -3.70219651161957       -0.96084488471368
H           -1.99843413556519       -3.49260808076492       -0.14464423773853
H            0.72952102752307       -2.85104828496151        0.08741247290694
25
 energy: 46.535881903360 xtb: 6.6.1 (8d0f1dd)
C            3.12441460941231        1.08076465957304        0.05999267264420
N            2.08746672388852        0.07158824402217        0.05799668767182
C            2.28847181708245       -1.24681758900998        0.11172522018917
N            1.08918601958052       -1.88134514722237        0.10803096095958
C            0.07485409866022       -0.94320898690710        0.03366861713977
C            0.72534623707134        0.29551784890172        0.02221570694700
C            0.01858295083664        1.54386407166628       -0.00284914760736
O            0.52990779984249        2.65277664266528        0.00249033731051
N           -1.34028937331507        1.32950672516364       -0.04413050544065
C           -2.13622256070798        2.53180695757070       -0.04135459894095
C           -2.00225568583518        0.06442658023707       -0.04253184455923
O           -3.21039238790357        0.05546389707146       -0.05791105026055
N           -1.23280916601952       -1.10832573655153       -0.02098189330065
C           -0.88246354313510       -3.56127302000035       -0.10046413797891
H            3.82067172586479        0.86002266647751        0.87741412479250
H            3.63170901971479        1.08574865319411       -0.91229733464623
H            2.67989885928391        2.06080776524128        0.22861759933811
H            3.25008546067964       -1.74415111593228        0.09471693857612
H           -1.38661397937988        3.32721207506753        0.03404388570915
H           -2.74258253999874        2.58254957464220       -0.95111504225124
H           -2.81713403137550        2.51472557807168        0.81378754286399
H           -0.52211708192775       -3.88522432479663        0.84540574708389
H           -0.30340217409366       -3.81287054909338       -0.95936821113831
H           -1.94651331695318       -3.60433046007038       -0.15314255968481
H            0.64099225756603       -2.83524488511764        0.06718446143842
25
 energy: 45.612383038367 xtb: 6.6.1 (8d0f1dd)
C            3.11121720598791        1.08596314564718        0.04161250840984
N            2.07269884745128        0.07800013174775        0.07476941782822
C            2.26601801822270       -1.24216144449330        0.13276666878329
N            1.05846553920736       -1.87322178680133        0.10990979118413
C            0.05707832347134       -0.92121174047973        0.03123810083263
C            0.71461577144161        0.31361229234729        0.02289991973394
C            0.02155674211400        1.56802537030301        0.00246339600950
O            0.54969899305762        2.66834450403645        0.02367815779737
N           -1.33712051269406        1.36860302485369       -0.04360616087950
C           -2.12644834429828        2.57235951031468       -0.03947434588347
C           -2.00934219899486        0.10865796209789       -0.04075957968872
O           -3.21785515677852        0.11000880661017       -0.05487411923248
N           -1.25259031921991       -1.06589894660475       -0.02252375109176
C           -0.82546209247688       -3.63984424798615       -0.09844351684417
H            3.82749454982032        0.88075234313651        0.84221109651325
H            3.59436670712308        1.07555600453023       -0.94195643495511
H            2.67196281038885        2.07122546019357        0.19945847424495
H            3.24801418715869       -1.71285570828440        0.11181882363084
H           -1.37870028621953        3.36913614393094        0.04384398537251
H           -2.72547228454237        2.62334341237556       -0.95270436743649
H           -2.81063008581146        2.55380060722185        0.81230032068019
H           -0.49362631607639       -4.00014475065519        0.84511904035188
H           -0.26174766580261       -3.92879192417691       -0.95680404019696
H           -1.90288872011050       -3.61781333015928       -0.17427864790585
H            0.53685841029989       -2.83782807184330        0.04731219231851
25
 energy: 42.615960784372 xtb: 6.6.1 (8d0f1dd)
C            3.10282027119042        1.09013173835024        0.02573356504420
N            2.06126673984603        0.09117298538407        0.09076518425659
C            2.24131696615702       -1.22993718518227        0.14450768128745
N            1.03575442257041       -1.85174396560711        0.10579625756780
C            0.04622032993193       -0.89590140027493        0.02878121674087
C            0.70740518787555        0.33683561535000        0.02400496931607
C            0.02655980732192        1.59430696026484        0.00561080376160
O            0.56842316582164        2.68737990345046        0.03754209926978
N           -1.33404492322491        1.40782033225888       -0.04340031427746
C           -2.11750299438128        2.61262314290285       -0.03874773619100
C           -2.01718407314684        0.15525163057690       -0.03871417644022
O           -3.22611991684713        0.16511488633988       -0.05085412268579
N           -1.26825553682090       -1.01722917255697       -0.02397616303283
C           -0.74321442511483       -3.70621683030450       -0.09741854183858
H            3.84028490915102        0.89089215653590        0.80574308822915
H            3.56405356420670        1.05100828247825       -0.96388593267278
H            2.67384701211778        2.08165157219190        0.17180778164977
H            3.23468838548524       -1.68407640103839        0.13417695234362
H           -1.37340170239540        3.41201100403957        0.05063278411762
H           -2.71001117526952        2.66741241934321       -0.95456495864949
H           -2.80063770618509        2.59073610129792        0.81146586901803
H           -0.46580504858336       -4.12330150961394        0.84268400008274
H           -0.21895260372362       -4.06504120908118       -0.95422237724158
H           -1.83608274587963       -3.67681404758440       -0.22145042047637
H            0.37004257943582       -2.88816138618244        0.01999064625544
25
 energy: 31.235766564348 xtb: 6.6.1 (8d0f1dd)
C            3.09998327205482        1.09252019958574        0.01347294578257
N            2.04920353023626        0.11413552184654        0.10146170088326
C            2.21660561906589       -1.21035633573244        0.14539536880400
N            1.03039422319907       -1.82024494120615        0.10034067254833
C            0.03759594258209       -0.87227092715892        0.02646007837061
C            0.70157347799669        0.36423532327376        0.02480371615164
C            0.02898992320483        1.62527329308218        0.00683739161658
O            0.58203386016376        2.71217648217198        0.04151637120501
N           -1.33255018064092        1.45062244207308       -0.04059998761260
C           -2.11236630140720        2.65460061601673       -0.03869342244788
C           -2.02386400975097        0.20445186501284       -0.03620565338827
O           -3.23309338829963        0.21918426271580       -0.04604369739587
N           -1.28166563793586       -0.96602221417482       -0.02458766324266
C           -0.67131795762552       -3.78834732866665       -0.09676137993503
H            3.84665173411305        0.89215353404619        0.77809177040093
H            3.57073692909361        1.01595589604904       -0.96393104666994
H            2.69369288662025        2.09165319599490        0.14535777567790
H            3.21299160369745       -1.65633570105517        0.14585190402241
H           -1.37281015801076        3.45704209105570        0.05242221931788
H           -2.69743417624011        2.70343839484191       -0.95830516763007
H           -2.79567602842592        2.63518201656067        0.81068927909117
H           -0.43169778349206       -4.24500675666610        0.83848385874372
H           -0.18374669749836       -4.20698606139539       -0.94794402792024
H           -1.76970850717441       -3.75621882879165       -0.24699002497029
H            0.19601795437220       -2.97861673513611       -0.01161488853787
25