25
 energy: -45.447452317364 gnorm: 5.060723592018 xtb: 6.6.1 (8d0f1dd)
C            3.21786164340000        1.13591514650000        0.01837059260000
N            2.27034809790000        0.05199982890000        0.00038279530000
C            2.54167221030000       -1.23971668410000       -0.00834188300000
N            1.39367826450000       -1.95088267900000       -0.00850347120000
C            0.35269634020000       -1.06748964300000        0.00059917290000
C            0.90759959010000        0.20069750900000        0.00663590170000
C            0.07590235260000        1.39864294500000       -0.00284827040000
O            0.48715076820000        2.53168346660000       -0.01725767220000
N           -1.27221500230000        1.06666939660000        0.00165480230000
C           -2.23229981500000        2.16656245330000       -0.00245172030000
C           -1.84872931540000       -0.19179276200000        0.00496135950000
O           -3.03273030250000       -0.36103538130000        0.00858583760000
N           -0.96599111670000       -1.30060631840000        0.00174701630000
C           -1.52030655580000       -2.64076660390000       -0.00239033190000
H            3.71480285180000        1.18589984860000        0.98803183970000
H            3.97079415090000        0.99383197990000       -0.75543416370000
H            2.68321036910000        2.07051068580000       -0.15067179540000
H            3.52469367910000       -1.66989040330000       -0.01523639120000
H           -1.67672429040000        3.10039111610000        0.00486339690000
H           -2.85755792270000        2.10547813320000       -0.89185337000000
H           -2.87119733260000        2.09858159720000        0.87661144540000
H           -1.20589108080000       -3.18768007210000        0.88663215920000
H           -1.21982032550000       -3.17678505510000       -0.90288069810000
H           -2.60531402170000       -2.54255916880000        0.00649952960000
H            1.32879827740000       -2.95942079410000       -0.01653446370000
25
 energy: -52.256390638362 gnorm: 8.713785827626 xtb: 6.6.1 (8d0f1dd)
C            3.21785989078566        1.13604835803199        0.01837272093154
N            2.27020731973792        0.05293904755967        0.00037057114603
C            2.54199506630318       -1.23974485439520       -0.00834190192304
N            1.39368465732682       -1.95105925534877       -0.00850224806925
C            0.35348249421171       -1.06898302431566        0.00060386358895
C            0.90461902101243        0.19203502541240        0.00670202507156
C           -0.11969917566827        1.11473539541483       -0.00254931360724
O            0.47423331179489        2.50179405663223       -0.01689351639056
N           -1.28587413805517        1.05796692570367        0.00172751964804
C           -2.23215223015421        2.16689520791128       -0.00245017667602
C           -1.85041434238319       -0.19269798638919        0.00496406562161
O           -3.03289898639116       -0.36116501554333        0.00858873291151
N           -0.96461171103835       -1.30059751054563        0.00173735874596
C           -1.51115445089449       -2.63871580189475       -0.00245420349342
H            3.71480746044797        1.18589277262818        0.98802925302400
H            3.97079009956395        0.99382202098149       -0.75543761156594
H            2.68320342246865        2.07049398445977       -0.15067387634951
H            3.52467953047894       -1.66990226642522       -0.01523659017549
H           -1.67660557329871        3.10040840405752        0.00486095450498
H           -2.85757093066903        2.10553006362145       -0.89183773131020
H           -2.87120949201444        2.09863769763726        0.87659381956315
H           -1.20650017301807       -3.18772520716986        0.88687478951904
H           -1.22042569631125       -3.17682892309059       -0.90310528296785
H           -2.38880062773952       -2.21212656087452        0.00576037573578
H            1.32878676760371       -2.95941401245903       -0.01653197958363
25
 energy: -62.780643572244 gnorm: 12.503741328372 xtb: 6.6.1 (8d0f1dd)
C            3.21790164781211        1.13616502500438        0.01837342872844
N            2.26998973989945        0.05425560173154        0.00035745509287
C            2.54224212527882       -1.23986463581224       -0.00834182631838
N            1.39353156873072       -1.95150516251854       -0.00850322369442
C            0.35474181021795       -1.07091796394302        0.00060947091376
C            0.90264381478376        0.18423711422026        0.00675723904095
C           -0.31228390870643        0.82648227751762       -0.00216947222284
O            0.46304073038730        2.47558833398671       -0.01660026427445
N           -1.30489952169975        1.05032720174859        0.00181003444602
C           -2.23217524997692        2.16727194542117       -0.00245121867144
C           -1.85249259229390       -0.19431997029351        0.00497282517294
O           -3.03353703592035       -0.36153850955781        0.00859475574301
N           -0.96233521442461       -1.30008420836431        0.00172408761848
C           -1.50129139969441       -2.63788877372511       -0.00252742721653
H            3.71479824165827        1.18591328037578        0.98803189656241
H            3.97077932388027        0.99382787326071       -0.75545005278030
H            2.68305849198724        2.07052070079527       -0.15066846990343
H            3.52466681037062       -1.66986889828455       -0.01523633843370
H           -1.67638284923360        3.10037813201318        0.00485679856945
H           -2.85757291724171        2.10551439002223       -0.89183454822688
H           -2.87121234097593        2.09862452271852        0.87658862663318
H           -1.20707687501257       -3.18778462738806        0.88708407069901
H           -1.22099560258588       -3.17689021926999       -0.90329457599868
H           -2.17353459451254       -1.88074764276799        0.00501823459741
H            1.32882731137206       -2.95945724529086       -0.01652988817689
25
 energy: -77.217630350336 gnorm: 16.582635921946 xtb: 6.6.1 (8d0f1dd)
C            3.21791613744783        1.13637036608929        0.01837640447912
N            2.26988880320731        0.05582592619943        0.00033886996548
C            2.54263425054371       -1.24002905537636       -0.00834188214826
N            1.39333437676718       -1.95217127112480       -0.00850578118187
C            0.35646898690925       -1.07332191244804        0.00061193961447
C            0.90073783540167        0.17811453091981        0.00680731080752
C           -0.49426161718896        0.52830148792244       -0.00172508641462
O            0.45491004206804        2.45600375885766       -0.01639431633237
N           -1.33548058102506        1.04915641669244        0.00194097928259
C           -2.23256600731109        2.16784047166096       -0.00245425826108
C           -1.85543550913960       -0.19664374008783        0.00499188077963
O           -3.03502107267088       -0.36227829159629        0.00860550005966
N           -0.95931022136406       -1.29910542921699        0.00171155186123
C           -1.49491058204163       -2.63721692477244       -0.00257069463107
H            3.71475256424768        1.18605408740996        0.98803675537849
H            3.97073390533245        0.99395913094775       -0.75547146866875
H            2.68285315427681        2.07062541913146       -0.15066704843301
H            3.52469723179710       -1.66971192915023       -0.01523596448923
H           -1.67622330758326        3.10028280049491        0.00485076689172
H           -2.85766014601362        2.10539506403773       -0.89184704007693
H           -2.87130053779037        2.09850931082678        0.87659831050776
H           -1.20753729651326       -3.18782298423147        0.88723524435099
H           -1.22144858341224       -3.17693387805068       -0.90341839700380
H           -1.95632158775624       -1.55345927869752        0.00422502900239
H            1.32898127591125       -2.95950553483796       -0.01652698744006
25
 energy: -95.679153529206 gnorm: 20.447654981638 xtb: 6.6.1 (8d0f1dd)
C            3.21797032065640        1.13647596277088        0.01837819380079
N            2.26994311875285        0.05720562359233        0.00032099475159
C            2.54301020686240       -1.24030003403284       -0.00834169059599
N            1.39317082414325       -1.95298928905742       -0.00850538205848
C            0.35873629836240       -1.07610469431051        0.00061321442879
C            0.89833621549341        0.17426585293866        0.00684333853297
C           -0.68119631288441        0.22293516196270       -0.00116623037982
O            0.44930937126918        2.44146035930665       -0.01624854500500
N           -1.36116557996103        1.05810954970931        0.00204715017556
C           -2.23294831487432        2.16861841228036       -0.00245651550099
C           -1.85845173929245       -0.19878696561665        0.00501382269740
O           -3.03716721606911       -0.36296193217369        0.00862393612032
N           -0.95608534513467       -1.29897064638840        0.00170423432629
C           -1.49116455347898       -2.63633078631142       -0.00258841913665
H            3.71474036118552        1.18610315790302        0.98803644469258
H            3.97071278080494        0.99399094510682       -0.75550079392085
H            2.68271451453518        2.07066158375565       -0.15067317886511
H            3.52469073225834       -1.66965458906941       -0.01523568603789
H           -1.67600311167462        3.10027552561643        0.00484010020816
H           -2.85771863973804        2.10536723856630       -0.89187619925023
H           -2.87135978655155        2.09849095604058        0.87661997651180
H           -1.20794351211637       -3.18774920611057        0.88733753233641
H           -1.22185118137423       -3.17686894757706       -0.90347985702374
H           -1.73890134107645       -1.23538903731603        0.00338473297075
H            1.32905340400237       -2.95961565998567       -0.01651955587868
25
 energy: -117.754069546882 gnorm: 23.846210042152 xtb: 6.6.1 (8d0f1dd)
C            3.21812423050241        1.13625789730634        0.01837106820341
N            2.26979120039018        0.05797977548617        0.00030670643514
C            2.54309515497993       -1.24073724627558       -0.00834084222451
N            1.39331160108811       -1.95413791221391       -0.00850418278209
C            0.36159372522348       -1.07870277564712        0.00062342337154
C            0.89594046620194        0.17095969061612        0.00687192104896
C           -0.88435246455001       -0.07809354309903       -0.00048558071042
O            0.44477224144605        2.42944057060174       -0.01613432353450
N           -1.37269613431283        1.06738639775774        0.00209612042432
C           -2.23298679409346        2.16933682818021       -0.00246720692604
C           -1.86565995911194       -0.19971294543874        0.00506505075088
O           -3.03923617805309       -0.36330790613231        0.00864688257362
N           -0.94505688536885       -1.30270779097596        0.00169020747529
C           -1.48817467330822       -2.63639770775562       -0.00259732076603
H            3.71484910424968        1.18579436896078        0.98802422916801
H            3.97079404838157        0.99363679415189       -0.75553347411941
H            2.68280004543590        2.07043880509046       -0.15068830319142
H            3.52453481343053       -1.66995733685745       -0.01523443144428
H           -1.67550902170653        3.10044304142473        0.00482212316921
H           -2.85759985403211        2.10568076929309       -0.89193745408707
H           -2.87123920841284        2.09881953392746        0.87666500719840
H           -1.20856207031237       -3.18754022475330        0.88747189961426
H           -1.22247132222153       -3.17667238652394       -0.90355411788994
H           -1.52449487948922       -0.92009476730315        0.00249924425416
H            1.32886432774319       -2.95987338822063       -0.01650502811148
25
 energy: -139.895147161078 gnorm: 10.474186805722 xtb: 6.6.1 (8d0f1dd)
C            3.21838527756202        1.13571852896783        0.01834672704028
N            2.26961971313666        0.05790122558937        0.00029844247683
C            2.54292490486487       -1.24121821031895       -0.00833946895132
N            1.39376874212603       -1.95535199479242       -0.00850083373333
C            0.36489992208500       -1.08006459027226        0.00064209977347
C            0.89539945759978        0.16820607051760        0.00689682168022
C           -1.08794735775511       -0.37055490124114        0.00023044435179
O            0.44099965012971        2.41865324046663       -0.01604271214436
N           -1.37698724258901        1.07116958453834        0.00212183471493
C           -2.23289380592823        2.17016115446690       -0.00249140615746
C           -1.89613179099698       -0.19263813606602        0.00525401175209
O           -3.04128130210947       -0.36347760202718        0.00867524714741
N           -0.92822362325738       -1.32056292593173        0.00169161541437
C           -1.48556099287944       -2.63605709790797       -0.00259518410232
H            3.71507917186704        1.18513089539105        0.98799626750078
H            3.97098405043709        0.99290119089050       -0.75556764004933
H            2.68311179298628        2.06994606150885       -0.15071473409692
H            3.52423827148793       -1.67062344734229       -0.01523229835131
H           -1.67471147658534        3.10075914985057        0.00479490832663
H           -2.85728733266709        2.10632093587063       -0.89201304302699
H           -2.87092119835761        2.09948108886286        0.87671514985022
H           -1.20941347688859       -3.18723934302285        0.88763255016919
H           -1.22332903264431       -3.17638992042050       -0.90363113990134
H           -1.30270623917281       -0.60367090655565        0.00148585146250
H            1.32841543164896       -2.96026150942218       -0.01648189324602
25
 energy: -115.113497137190 gnorm: 523.190331742346 xtb: 6.6.1 (8d0f1dd)
C            3.21920301807537        1.13320401660576        0.01830233833140
N            2.26924832749818        0.05528277998446        0.00030333031471
C            2.54252509835449       -1.24347219880489       -0.00833749399724
N            1.39635256176497       -1.95835065658055       -0.00849022871430
C            0.37411732746284       -1.08470561570851        0.00068491477474
C            0.90062114918097        0.17516175688388        0.00685325701615
C           -1.12993106013491       -0.50679225572427        0.00051525565429
O            0.45353717035222        2.43608518127404       -0.01635868720815
N           -1.36326054283676        1.08530172904118        0.00208299381114
C           -2.23196826803024        2.17403027862263       -0.00255735889447
C           -2.12304856486930       -0.10918445425512        0.00668962729821
O           -3.06304770593434       -0.36236265501455        0.00879311116358
N           -0.89358864764784       -1.42820414079982        0.00183015623945
C           -1.48985783748085       -2.63849073148047       -0.00252712688229
H            3.71600406706895        1.18245985904325        0.98795854915119
H            3.97176456955803        0.98998374020988       -0.75564042205389
H            2.68449443653093        2.06802131040774       -0.15076501428703
H            3.52315872844501       -1.67321556115552       -0.01521903720791
H           -1.67201979251852        3.10217652463212        0.00472939515662
H           -2.85594547196153        2.10859990181386       -0.89216333716022
H           -2.86957718655970        2.10180466284126        0.87679100314357
H           -1.21160263285533       -3.18622444414275        0.88782815753563
H           -1.22554268623379       -3.17540082426115       -0.90367055886335
H           -1.08779579812518       -0.46605940328461       -0.00003443752654
H            1.32659125499633       -2.96141025854785       -0.01642676889528
