72
 energy: -103.311615245025 gnorm: 0.093706977739 xtb: 6.6.1 (8d0f1dd)
N           -1.48533884474107        2.76790209907818        2.23049859272402
C           -1.56043677276448        2.16636842167860        1.14761594998179
C           -2.74487079003030        2.05940291991929        0.24371977101571
C           -3.31129762165341        0.64713850130036        0.32845299283483
C           -4.29115608839315        0.24247813745246       -0.57826525239458
C           -4.83994256856005       -1.02571427563045       -0.53185835050132
O           -5.79739291745962       -1.49590821406486       -1.36591535054375
C           -6.37351627358359       -0.62082991710246       -2.30569669330472
C           -4.39321220399012       -1.94430004741730        0.45066098609205
O           -4.98153647695179       -3.16344512115496        0.41982316594172
C           -4.66282214111598       -4.09641179993482        1.42286008683590
C           -3.42157358421794       -1.53924941054621        1.34557653974822
C           -2.88563971861778       -0.25660451232483        1.28386389910194
C           -2.18871985118619        2.30803025085198       -1.17887118493349
C           -1.26517455879676        1.17715059381395       -1.65894889709195
C            0.01121501549425        1.10970367098525       -0.89692775284947
N            0.62350276827653       -0.02707783804345       -0.57620838451618
C            2.00346680540158       -0.02731661626031       -0.15778914684026
C            2.93132902578571       -0.53630404191456       -1.27952208460223
C            4.36046910997589       -0.43260374614259       -0.83294651931069
C            5.07996939681882        0.72969528057035       -1.03300844611384
C            6.39053633380705        0.83536741316595       -0.59184171160074
C            7.00028511215222       -0.21809424002942        0.06347743787538
O            8.27279893009757       -0.22244616314735        0.52022686659554
C            9.07140602348031        0.91828791499254        0.31230875880214
C            6.26791777835166       -1.41439409716220        0.28209652883930
O            6.94405624884184       -2.39772960018974        0.92657352709945
C            6.30545083545499       -3.63305444295523        1.14180496914069
C            4.96258055203121       -1.49938825905305       -0.16306858987989
C           -0.05114615379045       -1.30229764035183       -0.62933554839468
C           -3.87223984233267        3.07813805452107        0.58276801717462
C           -4.50093405177406        2.77480364764887        1.94046638955460
C           -3.40335304538588        4.52906572242588        0.54363917014661
H           -4.64406630071989        0.93881099592863       -1.32174376513127
H           -6.83065806533895        0.24733989563566       -1.82066973455046
H           -7.14612449257314       -1.20118928285742       -2.80639430873521
H           -5.64087306674451       -0.28320869554879       -3.04645446389016
H           -4.88918564250931       -3.70733604281035        2.41989021816108
H           -5.28959942176466       -4.96354921759919        1.22336183242744
H           -3.60983393052700       -4.39370012843986        1.37727929037754
H           -3.07442342316123       -2.20979027931017        2.11604035856388
H           -2.15138231003843        0.03176992242881        2.02257863749553
H           -3.01773571704326        2.39686649316670       -1.88054363202941
H           -1.64281212329676        3.25192331267156       -1.19247782756806
H           -1.80787813897214        0.23593184835786       -1.62386327426502
H           -1.00212456335539        1.38103504483468       -2.70512931257900
H           -0.68028470521140        1.65207098272768        0.64894101960970
H            0.63858795676074        1.98880690940571       -0.93081519673795
H            2.11483383720507       -0.66611209424787        0.72207605087262
H            2.30446001953706        0.98675006902977        0.11126409838594
H            2.77396035201182        0.07743396115614       -2.16929386234222
H            2.68299024105846       -1.56799063490216       -1.52220487374525
H            4.63096188638210        1.56379211121254       -1.55101769125915
H            6.93248954938486        1.74890619868596       -0.77474279018986
H            8.66587810724643        1.79025334993005        0.79706697800029
H            9.15963262810604        1.20543118190862       -0.74697788866944
H           10.04384080129688        0.65781787311909        0.74675655845948
H            7.04288786570970       -4.25893612806772        1.64105789015112
H            5.42708703382711       -3.52685246717288        1.78774384297197
H            6.01054418411239       -4.10536537928289        0.19851712445688
H            4.39646232329207       -2.40619419415606       -0.01202738487690
H           -0.21996154043022       -1.61577366665577       -1.66346061341620
H           -1.01634198460767       -1.24121030669598       -0.11893661599515
H            0.56021204551074       -2.05107555934510       -0.13400047371099
H           -4.64508564365450        2.94944590968974       -0.18564932444847
H           -3.77074159162740        2.90891021754639        2.72943684630725
H           -4.87846003874360        1.75544336227787        1.97763689832376
H           -5.33180572002892        3.45403631751089        2.11718649005904
H           -2.61438387571233        4.69458482845508        1.26894556110380
H           -3.04979772284721        4.81598247469630       -0.44348718568253
H           -4.23728058204553        5.17927660581967        0.79798709967522
H           -0.61390565321851        2.79950870594339        2.74273128687761
72
 energy: -103.314973389491 gnorm: 0.033390730214 xtb: 6.6.1 (8d0f1dd)
N           -1.50232842247657        2.80104605128038        2.24327126374693
C           -1.56635503448737        2.16048186870981        1.16864169220336
C           -2.74659422372458        2.06284787119256        0.25100484310333
C           -3.31538916670994        0.65200601231826        0.33265063773540
C           -4.29439188649948        0.24405456264253       -0.57500349926735
C           -4.83953581898669       -1.02534709235899       -0.53044058275686
O           -5.80053825515797       -1.49767397845188       -1.36742771737259
C           -6.37285419053773       -0.62096277950639       -2.30602320118355
C           -4.39392610080746       -1.94233844435547        0.45067992999160
O           -4.98449543422195       -3.16616615365034        0.41849119659344
C           -4.66218919435362       -4.09599483642013        1.42221512877199
C           -3.42485218421325       -1.53598198257016        1.34766395537825
C           -2.89196942705415       -0.25211733384719        1.28841323628199
C           -2.19119462660798        2.30452818647404       -1.17677192021605
C           -1.26031430194196        1.18775269503661       -1.67720880833615
C            0.01262433926397        1.12653704594326       -0.90261465892889
N            0.63389517135789       -0.04284089166217       -0.56691557941464
C            2.00826571460313       -0.03994491422083       -0.16010467700385
C            2.93976651655954       -0.53990376472753       -1.28329927102506
C            4.36622942582511       -0.43687954994531       -0.84252465376962
C            5.08260216104662        0.72823517626844       -1.03727684942162
C            6.39142237157934        0.83551053340029       -0.59230661994433
C            7.00283350296579       -0.21934603469076        0.06132932592804
O            8.28179470515443       -0.22222168734062        0.51972026858300
C            9.07017800569746        0.92312414734981        0.31472658374208
C            6.27163548837163       -1.41285664038381        0.28073252545355
O            6.94891288497733       -2.39882912076690        0.92866485966126
C            6.30651222584997       -3.63104201845484        1.14199690532607
C            4.96828057272047       -1.50004792707979       -0.16755412397498
C           -0.04813749054451       -1.30828631788981       -0.62721356572347
C           -3.87891914402476        3.07687358189684        0.57987932383525
C           -4.50515805706231        2.77645006535952        1.93965639612478
C           -3.40698332309756        4.52799202590722        0.54369534766066
H           -4.64258252208446        0.93831523654719       -1.32217218406255
H           -6.82872693433451        0.24799531639847       -1.82041074507342
H           -7.14631713973263       -1.19928554644696       -2.80866583776085
H           -5.63872563632483       -0.28235138620288       -3.04506467071657
H           -4.88759353297069       -3.70622578235681        2.42006289411226
H           -5.28767386829421       -4.96501727777460        1.22491049766749
H           -3.60845063996400       -4.39165767958047        1.37718614486803
H           -3.07332553187817       -2.20915568369937        2.11394709321266
H           -2.15138031145988        0.03437585344771        2.01943982268389
H           -3.02261049537898        2.40002248184026       -1.87677537390381
H           -1.64163144851732        3.24679662440698       -1.18786593805807
H           -1.79688056831531        0.24192269042714       -1.62963606005580
H           -1.02870170581334        1.39059098844285       -2.73348355060451
H           -0.69010220780874        1.64585577385219        0.68285597515301
H            0.65396920485758        1.99358134899553       -0.96609060372469
H            2.12704361177727       -0.67417971740475        0.72365189354709
H            2.30002309132231        0.97765299352757        0.10863057890574
H            2.77191822458180        0.07644901378241       -2.16848504165711
H            2.68560696537301       -1.57169888979244       -1.52468567514579
H            4.63013257862966        1.56298278298149       -1.55148377802395
H            6.93101373290702        1.75131935129389       -0.77244935302919
H            8.66108938214848        1.79647555072125        0.82451345055690
H            9.17332189803358        1.17447944949770       -0.74987609187448
H           10.04389373707141        0.67032757137951        0.73358196689742
H            7.04168828111690       -4.25971785197056        1.64173200235721
H            5.42680257796729       -3.52375376831297        1.78597407879951
H            6.01046199119560       -4.10209864122528        0.19842957950866
H            4.39991608932075       -2.40461970652270       -0.01298276272875
H           -0.21940377418854       -1.62245537563755       -1.66249404582888
H           -1.01424502352583       -1.24401204053941       -0.11850346063036
H            0.55886013830463       -2.06078254489632       -0.13092557068685
H           -4.65236981045138        2.95204077397286       -0.18801433242934
H           -3.76654391888384        2.90818483240714        2.72328629706141
H           -4.87965084225244        1.75617867468962        1.97723570885045
H           -5.33585479759053        3.45567185040500        2.12031523308070
H           -2.61437066183103        4.68592371977305        1.26849119654978
H           -3.04991919284759        4.81233823355736       -0.44303003385384
H           -4.23859843420270        5.18204118224641        0.79844043350772
H           -0.62414630152529        2.80103838233848        2.75250016983115
72
 energy: -103.315557482977 gnorm: 0.018577202819 xtb: 6.6.1 (8d0f1dd)
N           -1.48778613534834        2.78991525376208        2.23344628848302
C           -1.55005180722972        2.15224666652903        1.15163216753414
C           -2.74247000755761        2.06205605883490        0.24620470949284
C           -3.30691465847883        0.64886860694587        0.32581336885359
C           -4.29041341436850        0.24165302007779       -0.57803971134026
C           -4.83545234503079       -1.02692090455540       -0.53137477940454
O           -5.80169149839857       -1.49918110693947       -1.36780731523175
C           -6.37369978847165       -0.62244287650642       -2.30498248974375
C           -4.39044147796724       -1.94304005955656        0.44845612473009
O           -4.98596153121387       -3.16820657844193        0.41784962621294
C           -4.66393053075875       -4.09655272428177        1.42181164099220
C           -3.42049855213049       -1.53854938650941        1.34477017864764
C           -2.88497499870554       -0.25630629174110        1.28258287966173
C           -2.19224112931400        2.30730779209254       -1.18298088005345
C           -1.26295651256494        1.18379674237845       -1.66835231004702
C            0.00315927183552        1.13548996776557       -0.88860313054005
N            0.63417623912684       -0.04747288419121       -0.55420772785889
C            2.00346232794315       -0.03205415961704       -0.15521480411530
C            2.93613237313380       -0.53312874128281       -1.27778767436719
C            4.35872288733983       -0.43236722672844       -0.83434313579965
C            5.07710283790208        0.73130458605687       -1.03183183516923
C            6.38700414928154        0.83610909342649       -0.59120257843417
C            6.99603429312143       -0.21987648473210        0.06163435002353
O            8.28093585789991       -0.22389760555975        0.51446810874631
C            9.06751057933675        0.92171123519470        0.30927684801895
C            6.26483189726598       -1.41056927103723        0.28327248777622
O            6.94510357823308       -2.40003311212216        0.92863724708827
C            6.30502839850867       -3.63244450247730        1.14157571367533
C            4.96030746371808       -1.49649781525789       -0.16116637316773
C           -0.04992714081313       -1.30519995861378       -0.62925805933707
C           -3.87071317832431        3.07535156501930        0.58211554504287
C           -4.50107742510086        2.77493911263034        1.94084963336276
C           -3.40416382827283        4.52991321905430        0.54431261480688
H           -4.64159244686320        0.93738899683685       -1.32234443056659
H           -6.83014388003360        0.24688650065746       -1.81984192522802
H           -7.14767936442569       -1.20149355793470       -2.80627831881094
H           -5.64144213963883       -0.28360080980553       -3.04597876386453
H           -4.88933569470661       -3.70698199433116        2.42025688962771
H           -5.29087167546750       -4.96463068252560        1.22425419975245
H           -3.61062778607808       -4.39454649430970        1.37759056167930
H           -3.07343432976292       -2.21045777339446        2.11440831211209
H           -2.14968481340974        0.03141458383065        2.01760508914963
H           -3.02240751014642        2.40010044450638       -1.88481878023036
H           -1.64115744616973        3.24982824758035       -1.19489192253251
H           -1.80018674513157        0.23569524409516       -1.61924179981215
H           -1.01660084525396        1.38009931801227       -2.72003831388610
H           -0.68120940810380        1.65380685493868        0.65753173714339
H            0.64293975857856        2.00059401042873       -0.93233070257813
H            2.12269713373898       -0.66402887493076        0.73044731507665
H            2.29403397558844        0.98763541811155        0.11323457828516
H            2.76957942856456        0.08128235089564       -2.16414532416253
H            2.67842081614393       -1.56520827660105       -1.51825765544902
H            4.62662001663300        1.56461703050778       -1.54978897747747
H            6.93011028453912        1.74903075142692       -0.77625134166805
H            8.65733205273986        1.79662649815108        0.82410063276283
H            9.16805177738950        1.18117435167780       -0.75118491312287
H           10.03878364477431        0.66936548361754        0.73105557021649
H            7.04270805234435       -4.25953943715691        1.64001913760703
H            5.42630156965864       -3.52864775100857        1.78758340941202
H            6.00884989461883       -4.10516691256065        0.19870368592990
H            4.39181098352601       -2.40168944981892       -0.00962725584153
H           -0.22077836098159       -1.61456014969033       -1.66706050913809
H           -1.01694715598079       -1.24431566715388       -0.12118835731728
H            0.55859759644056       -2.05782237287419       -0.13524166901269
H           -4.64358999193914        2.95011200492218       -0.18516269182923
H           -3.76703851644002        2.90803018466728        2.72915263402183
H           -4.87545699019535        1.75460213624525        1.97773873670950
H           -5.33267913119338        3.45378045875160        2.11646595109733
H           -2.61201515278874        4.69378801775374        1.26889048541822
H           -3.04863853758745        4.81546739912023       -0.44281761151256
H           -4.23888388343969        5.17997236800385        0.79819272263675
H           -0.59381836624361        2.77967745976661        2.72054048594721
72
 energy: -103.316045444345 gnorm: 0.011161241679 xtb: 6.6.1 (8d0f1dd)
N           -1.51183352188962        2.78827274437407        2.24207300092901
C           -1.55711362970248        2.15897831418934        1.15510788001682
C           -2.74679543184973        2.06236249833688        0.24728809501551
C           -3.31156491523295        0.64981589189396        0.32934053040859
C           -4.29366703617561        0.24315004052017       -0.57585748685395
C           -4.83798140179473       -1.02522569193091       -0.52880732534892
O           -5.80199113138792       -1.49752553776229       -1.36763446180203
C           -6.37223850989037       -0.62086427843149       -2.30560450406815
C           -4.39282181485135       -1.94107133963235        0.45108545774418
O           -4.98555090137972       -3.16727867275474        0.41922000143900
C           -4.66184232461280       -4.09565495915717        1.42209939383087
C           -3.42342895862453       -1.53737948366978        1.34813871003368
C           -2.88943307530283       -0.25482538818101        1.28690133946284
C           -2.19019478557318        2.30780201812365       -1.17871105734474
C           -1.26405365279897        1.18128892301170       -1.66394733919457
C            0.00476035684361        1.13076489865245       -0.89411220283517
N            0.63568228397937       -0.04844668297468       -0.56484690218696
C            2.00494445685496       -0.03311763653239       -0.16529439808098
C            2.94056090938880       -0.53803617336999       -1.28456285477110
C            4.36290700285042       -0.43563633311954       -0.83764250960301
C            5.08209352160241        0.72819999456609       -1.03512477666441
C            6.39135269223764        0.83496676780766       -0.59243084103086
C            6.99856333045285       -0.21986927355740        0.06273565711097
O            8.28189721492818       -0.22286897740727        0.51890877698622
C            9.07378229891737        0.91863213507672        0.31038059962907
C            6.26924631834643       -1.41181220943264        0.28068035011519
O            6.94820045875972       -2.40037271098059        0.92837615422089
C            6.30674943262286       -3.63163603234041        1.14193989603435
C            4.96550167951424       -1.50005828544715       -0.16606198051926
C           -0.05066015047380       -1.30392529467770       -0.63038266478084
C           -3.87427943495154        3.07611375848342        0.58177562391661
C           -4.50450098447818        2.77574195086063        1.94059216435011
C           -3.40546389301114        4.52981406881554        0.54327790390738
H           -4.64473194956250        0.93920447004399       -1.32019496085036
H           -6.83028909460946        0.24831348877731       -1.82159181968152
H           -7.14516194066187       -1.20009875063351       -2.80820723439390
H           -5.63916224062704       -0.28198381175616       -3.04585228694623
H           -4.88822131250502       -3.70748344247599        2.42077125808623
H           -5.28745431496707       -4.96443734122150        1.22370454920928
H           -3.60811562690731       -4.39204896174664        1.37748136830318
H           -3.07587361111391       -2.20946694913277        2.11732217209278
H           -2.15516172731275        0.03336450834188        2.02346800502311
H           -3.01951197459596        2.39965747078588       -1.88037131494145
H           -1.64111545728885        3.25151379313896       -1.18925958151128
H           -1.80475701576950        0.23506556224594       -1.62299315666863
H           -1.00923540231951        1.38209281313232       -2.71156262855790
H           -0.68695983825339        1.65643906838970        0.66451939520400
H            0.64855405725653        1.99089444973726       -0.94111691653438
H            2.12170418135665       -0.66812371767916        0.71891013195532
H            2.30279912622016        0.98393403291674        0.10579317594435
H            2.77718314677448        0.07463584981025       -2.17277334768411
H            2.68502589208532       -1.57058952088955       -1.52588802092725
H            4.63219563417702        1.56164037913248       -1.55319306870975
H            6.93366513341345        1.74905497335596       -0.77389174585873
H            8.66394695065105        1.79670251086849        0.81149660325944
H            9.16919334018757        1.19171434082766       -0.74692055389674
H           10.04232736631552        0.66434710297663        0.74354573339427
H            7.04290089499942       -4.25891205146135        1.64240985454300
H            5.42736781038621       -3.52563863049148        1.78684021219195
H            6.01166612523716       -4.10528523181305        0.19907943885284
H            4.39923389935985       -2.40704715971339       -0.01624096071127
H           -0.22314324024051       -1.62091945358993       -1.66514696988980
H           -1.01587304329353       -1.24009005486671       -0.11910680600735
H            0.55917792831970       -2.05338535784800       -0.13280054534296
H           -4.64682766357886        2.95016524535412       -0.18591552918938
H           -3.77071856855733        2.90857067227228        2.72869169411822
H           -4.88097546418953        1.75614837090473        1.97786413676588
H           -5.33439756497306        3.45578953401465        2.11727953839242
H           -2.61421605940085        4.69282983994130        1.26857076526438
H           -3.04998348227987        4.81516911842935       -0.44389925819026
H           -4.23899072014768        5.18051296834425        0.79752849015900
H           -0.62212756900823        2.79165796824992        2.73558755275155
72
 energy: -103.316113720571 gnorm: 0.009081321776 xtb: 6.6.1 (8d0f1dd)
N           -1.49976608272976        2.79334041649957        2.24051484199860
C           -1.55178691121082        2.16026070254887        1.15762441706377
C           -2.74355041366138        2.06211899927544        0.24983700154931
C           -3.31182285065374        0.65068518793082        0.33069787838273
C           -4.29221593350596        0.24362613001925       -0.57652055902060
C           -4.83656859709414       -1.02516651432261       -0.53000663381810
O           -5.80035700282951       -1.49761951002870       -1.36822531920199
C           -6.37281809403054       -0.62138585038094       -2.30502869031082
C           -4.39142607042669       -1.94129336204217        0.44972518270552
O           -4.98431808219396       -3.16688793062592        0.41832945480554
C           -4.66289948354968       -4.09540609438540        1.42177574149040
C           -3.42110396755067       -1.53789853140778        1.34606666549946
C           -2.88772866706852       -0.25493132816430        1.28589514446096
C           -2.19063026651203        2.30509780187436       -1.17870751837105
C           -1.26298988581886        1.18334908481800       -1.67323255864787
C            0.00707386949716        1.12906164368076       -0.90431965814905
N            0.63392700274754       -0.04542066370945       -0.56693960676762
C            2.00160201548039       -0.03280118004028       -0.15733858525831
C            2.93647295245451       -0.53611119542747       -1.27786103678912
C            4.36081041298807       -0.43416794628347       -0.83519623679269
C            5.07981854895134        0.72963996954966       -1.03342861178346
C            6.38956057380755        0.83626394183546       -0.59169758009389
C            6.99732461065122       -0.21917196057721        0.06263460557298
O            8.27938425812362       -0.22225817965393        0.51999155108671
C            9.07058638898639        0.91897876402728        0.31039142721859
C            6.26815363904962       -1.41104752451661        0.28121676336578
O            6.94660494921350       -2.39958139764725        0.92840695709329
C            6.30482554404840       -3.63082693678197        1.14121811521411
C            4.96368535360960       -1.49852922019153       -0.16390349066944
C           -0.04945920581485       -1.30374643043856       -0.62912559225230
C           -3.87324296280136        3.07548933370286        0.58131474334065
C           -4.50199178378892        2.77480070862263        1.94029985055222
C           -3.40427818133231        4.52845519277732        0.54402534294818
H           -4.64117565382813        0.93875528523298       -1.32274387472911
H           -6.82959441225508        0.24765732035473       -1.81973813066485
H           -7.14691212708788       -1.20025753165431       -2.80645785610730
H           -5.64077995726413       -0.28258869245134       -3.04625654611381
H           -4.88865802888833       -3.70592840360316        2.41992459098174
H           -5.28985327713213       -4.96356536899984        1.22445613308104
H           -3.60974220532974       -4.39352065275822        1.37750956672625
H           -3.07091423086508       -2.21097023073171        2.11289649267019
H           -2.14816937122454        0.03156798528776        2.01825661263309
H           -3.02259162003291        2.39776797844300       -1.87713896599569
H           -1.64271485373252        3.24878762847452       -1.19123401273457
H           -1.80242785689576        0.23810557781644       -1.63082150985116
H           -1.01948587336164        1.38725123296215       -2.72434855628631
H           -0.68624185622135        1.64379495106850        0.66989613061541
H            0.65218179376418        1.98864663675099       -0.95642805001115
H            2.11943784434011       -0.66951597441415        0.72658228940265
H            2.29959960205691        0.98316070147984        0.11502831875591
H            2.76971433791032        0.07860338296836       -2.16430542384575
H            2.68134287442165       -1.56832861485785       -1.52014384813198
H            4.62822788172681        1.56436250197067       -1.54831416787612
H            6.93066227829386        1.75109317430470       -0.77229983346831
H            8.66213293727050        1.79565505136029        0.81299604262401
H            9.16340367412405        1.18834675127450       -0.74875716160587
H           10.04227915208704        0.66485817799801        0.73721535856245
H            7.04089227671557       -4.25958178701662        1.64004152316700
H            5.42591030705198       -3.52508697064991        1.78680858024135
H            6.00849962319997       -4.10260633456252        0.19782817428874
H            4.39583678426033       -2.40352806166791       -0.00894362774826
H           -0.21784815338525       -1.62146990978993       -1.66383862977714
H           -1.01628154228368       -1.24291094765534       -0.12081680920669
H            0.55858670852516       -2.05516793218686       -0.13075184281246
H           -4.64677841784972        2.95008885289907       -0.18619403380489
H           -3.76626860494123        2.90806626466886        2.72605378580338
H           -4.87671986507394        1.75464242186383        1.97751092491535
H           -5.33245229489086        3.45377397656112        2.11921737870759
H           -2.61292660877741        4.68876556281553        1.26942087448151
H           -3.04867706366323        4.81359985504300       -0.44297929036653
H           -4.23697253744792        5.17994748356366        0.79912756826864
H           -0.61063433245729        2.79501967732603        2.73614541787326
72
 energy: -103.316259014782 gnorm: 0.005025553635 xtb: 6.6.1 (8d0f1dd)
N           -1.50035650610443        2.79150509527323        2.24080603889631
C           -1.55402049992824        2.15758891989155        1.15850155839225
C           -2.74556802413790        2.06268363599861        0.24919794765888
C           -3.31240288225693        0.65044625351603        0.32901885523506
C           -4.29313944088210        0.24268879355204       -0.57748557595000
C           -4.83754797171214       -1.02616104507937       -0.53029619237435
O           -5.80170487825404       -1.49867656213168       -1.36843030416661
C           -6.37303379946594       -0.62220184533269       -2.30554315118947
C           -4.39278322840907       -1.94176911168258        0.44984954887517
O           -4.98535093831464       -3.16786156344999        0.41871203380886
C           -4.66285444640077       -4.09623807389431        1.42188934654548
C           -3.42348009742426       -1.53721054667999        1.34686659067536
C           -2.88952180804694       -0.25439531453334        1.28547736735624
C           -2.19135695581338        2.30638331882138       -1.17907753085877
C           -1.26168583716233        1.18403028262781       -1.66819945800912
C            0.00673243038911        1.13086205771901       -0.89620877853548
N            0.63517269993119       -0.04557712508211       -0.56200704273842
C            2.00436336921030       -0.03359120473560       -0.15892505600577
C            2.93818859463013       -0.53626059285789       -1.28137502186075