25
 energy: -42.434773007977 xtb: 6.6.1 (8d0f1dd)
C            3.16102316085188        1.18181403946232        0.00280766248205
N            2.27045374448560        0.05738591931123       -0.00657297833350
C            2.60874812535076       -1.27770634500604        0.02212844952492
N            1.44835069260506       -2.00562265922426        0.03186633160353
C            0.39363587298329       -1.15133255516193        0.02130769804180
C            0.87437693823599        0.15526851919174        0.00834036763326
C            0.03958695668648        1.28879152617766       -0.02346959635595
O            0.40447806672727        2.46799890032684       -0.08410680725291
N           -1.35269515397964        0.96286685291011        0.02999245123170
C           -2.17204499261103        2.05410575894631       -0.08560606918169
C           -1.85764285213274       -0.34342648987195       -0.00571609898743
O           -3.04888740453308       -0.58545282353674       -0.03369305564811
N           -0.94043950120112       -1.41229752798838        0.01195363947982
C           -1.40514545886674       -2.78173908116298       -0.01980159292106
H            3.68060628425912        1.25246034008645        0.96123921298942
H            3.89522696568164        1.09390922924390       -0.79678407326172
H            2.56334878134731        2.08245283002044       -0.14711921961222
H            3.59870215963626       -1.69001777164873        0.03005371565188
H           -2.18528191427806        4.45668361151342        0.37947008011589
H           -1.69924597485913        2.94364904201059       -0.48008523590393
H           -3.21172003366802        1.83690177565465       -0.20569638088180
H           -1.09787000821747       -3.30405168057711        0.88963516641900
H           -0.99856318621371       -3.30279096085058       -0.88896490212000
H           -2.48917523761126       -2.80011272098407       -0.08632392558466
H            1.37646076946754       -3.01272623602106        0.03220130146005
