25
 energy: 0.000000000000 xtb: 6.6.1 (8d0f1dd)
C            3.23720163006194        1.16630919979326        0.08434469647475
N            2.29877817382611        0.07527477071623        0.03981603040599
C            2.58028210190900       -1.21425402444508        0.03006176031096
N            1.43813958087363       -1.93419271955128        0.00098261760884
C            0.39035688448383       -1.05887472636071       -0.00790371836672
C            0.93510056364412        0.21347819449412        0.01709077491437
C            0.09450143893243        1.40504303904423       -0.00410947031874
O            0.49712751527797        2.54126714362870       -0.00342325688240
N           -1.25076640035757        1.06271879480407       -0.03085478223738
C           -2.21907211982101        2.15522099834493       -0.05001256985998
C           -1.81739487048744       -0.20012725993278       -0.04692818574614
O           -2.99983886758376       -0.37846417018721       -0.07008878229737
N           -0.92618586207120       -1.30210215599479       -0.03682761578324
C           -1.46982264913417       -2.64643102187190       -0.06029820460571
H            3.71247264356769        1.21471455160235        1.06488849150277
H            4.00791497605742        1.03430808813993       -0.67357694370751
H            2.69910007168542        2.09770118228144       -0.09130154882931
H            3.56654120610678       -1.63682992603973        0.04233140067262
H           -1.67107961066214        3.09322851271934       -0.02552706933167
H           -2.82428953597071        2.09428624779827       -0.95318082946668
H           -2.87644029173232        2.07745725625962        0.81450067533302
H           -1.17061996399332       -3.19584890659852        0.83242232437030
H           -1.14560257411436       -3.17511610292205       -0.95688275822323
H           -2.55549792440841       -2.55659984320617       -0.07459039797972
H            1.38130855184625       -2.94313852034425       -0.01389874181052
25
 energy: -5.439918713961 xtb: 6.6.1 (8d0f1dd)
C            3.24212641556193        1.18619062268602        0.08715610219065
N            2.31051940204320        0.09345432094298        0.03833000471910
C            2.59955712045391       -1.23697408713519        0.03019833663299
N            1.42633861003674       -1.94487486798105        0.00076875688757
C            0.39584580781671       -1.06061986879007       -0.00840492608114
C            0.93192938317620        0.21747106664243        0.01530564563943
C            0.10485875503111        1.39099190429479       -0.00547622314383
O            0.50348150852762        2.55601263501696       -0.00477778650062
N           -1.25746739930625        1.04773815314014       -0.03125050311728
C           -2.21488273170320        2.14599525130770       -0.04961989448991
C           -1.82321269994810       -0.20230537135590       -0.04751938739902
O           -3.02022281587261       -0.38231714751870       -0.07058822594408
N           -0.93559268883735       -1.30397638669216       -0.03731350984723
C           -1.47771071437521       -2.64456932206472       -0.06050084199089
H            3.72341997371938        1.24566282684043        1.06754116401289
H            4.01284266250715        1.06583551361507       -0.67599046718905
H            2.69096398172175        2.10856022511754       -0.08753466732942
H            3.57598589898216       -1.66711271907463        0.04257817166164
H           -1.65050996265111        3.07560500479800       -0.02517546135323
H           -2.82041460810890        2.09403727020837       -0.95396179980702
H           -2.87211512156363        2.07733043566219        0.81656992010392
H           -1.17660405510055       -3.19699830340799        0.83160101945643
H           -1.15153536102150       -3.17651051333606       -0.95634546270248
H           -2.56290860427375       -2.55063574935453       -0.07485104686004
H            1.35752191112049       -2.94896229138961       -0.01370502140209
25
 energy: -6.341013338712 xtb: 6.6.1 (8d0f1dd)
C            3.24169802707917        1.20794625160386        0.08975528646681
N            2.32261411592505        0.10254751279484        0.03631902020239
C            2.61240017826325       -1.25725297042242        0.03126742913354
N            1.41491565393860       -1.95074343739928        0.00127806890980
C            0.40043372382372       -1.06414823888019       -0.00907007469408
C            0.93206767033940        0.21694389143196        0.01309549085405
C            0.11778430267683        1.37001854441231       -0.00778056874915
O            0.50121169736048        2.55003223250076       -0.00787425739240
N           -1.26177923797966        1.03140528854563       -0.03205597786543
C           -2.20364917194253        2.13802853152513       -0.04891087806864
C           -1.82320403190809       -0.20661811515625       -0.04829736869024
O           -3.02536654646067       -0.38865105837178       -0.07113091425090
N           -0.94236377959251       -1.30627683658956       -0.03803131484150
C           -1.48830451927400       -2.64253304788260       -0.06093260479771
H            3.73256353930423        1.29045370811649        1.06681724930145
H            4.01477954479596        1.11903312653960       -0.67853842703115
H            2.67044577147022        2.12033533926940       -0.07950503850643
H            3.57870726065048       -1.70014356134498        0.04336972538807
H           -1.61606920620080        3.05440629999983       -0.02460148095792
H           -2.81049025981821        2.09691999163478       -0.95343401704606
H           -2.86060829245972        2.08025513634330        0.81878194308573
H           -1.19101343889063       -3.19996545508512        0.83059178954552
H           -1.16568434731299       -3.17993979028060       -0.95608299967076
H           -2.57318843760359       -2.54013178504533       -0.07541905199293
H            1.33431445175221       -2.95289295608778       -0.01257713218479
25
 energy: -5.831340360529 xtb: 6.6.1 (8d0f1dd)
C            3.23250379194371        1.22711673947169        0.09102599382212
N            2.33252549308405        0.10107844795634        0.03516498175319
C            2.61911054009040       -1.27123755641811        0.03317127162451
N            1.41277090070139       -1.95668575315314        0.00264539476432
C            0.40430975662231       -1.07183486556766       -0.00950355391563
C            0.93682189257275        0.21036819846548        0.01153563073561
C            0.12878643118113        1.35609184574089       -0.01043389642199
O            0.49892071364240        2.54032526167496       -0.01201400582466
N           -1.26035753224195        1.02097352373638       -0.03323421346377
C           -2.18822474105431        2.13539834742326       -0.04811457117569
C           -1.81987567580903       -0.21252717064391       -0.04922270187767
O           -3.02271561955614       -0.39568689762919       -0.07184057096303
N           -0.94291228647083       -1.31149468580890       -0.03879639039266
C           -1.49891423947552       -2.64315182732292       -0.06150192642407
H            3.73097814750696        1.33090552038323        1.06376399901881
H            4.00657646739705        1.17581878976392       -0.68238137986607
H            2.63655337301850        2.12795360035004       -0.06945893063076
H            3.57893539278606       -1.72665915805525        0.04444386767330
H           -1.58086232592051        3.03941666241795       -0.02416647733335
H           -2.79626735643490        2.10347112589383       -0.95209156957189
H           -2.84369393269305        2.08663130629182        0.82116267993766
H           -1.21009882749988       -3.20490768449466        0.83025383546090
H           -1.18422881556540       -3.18546136105300       -0.95669328943100
H           -2.58336026785062       -2.52795899172405       -0.07621238417991
H            1.32493338796162       -2.95891481552695       -0.01046789717099
25
 energy: -3.510641849332 xtb: 6.6.1 (8d0f1dd)
C            3.20219007979636        1.26897057268943        0.09298358026867
N            2.35292955678284        0.09083399431931        0.03378182000515
C            2.63214898409907       -1.29668939892082        0.03861898603263
N            1.41767441304559       -1.97214696121670        0.00671098528619
C            0.41297129039446       -1.09307310748061       -0.01027904382361
C            0.95075534940052        0.19000369952198        0.00839423829713
C            0.15307588661258        1.33048958567920       -0.01709301091219
O            0.50099584054540        2.51784972860455       -0.02256449165706
N           -1.25025077614304        1.00202362302968       -0.03645162122876
C           -2.14947220208154        2.13383182754421       -0.04620306864775
C           -1.80991925137502       -0.22594711752273       -0.05166347006544
O           -3.01296948016319       -0.40821826315500       -0.07366076700612
N           -0.93941718147071       -1.32656965159108       -0.04071070374447
C           -1.52342364290253       -2.64743688652765       -0.06296775267997
H            3.71532054496367        1.41459088201547        1.05549423789976
H            3.97316636272427        1.30392219083018       -0.69370526877286
H            2.54466728445833        2.13905658155101       -0.04436179256022
H            3.58013388967558       -1.77776820459088        0.04705671667987
H           -1.50451497559851        3.01329690016255       -0.02356263170559
H           -2.76037095814519        2.12188606765046       -0.94834594652165
H           -2.80026075978674        2.10430831852290        0.82711866223999
H           -1.25662437565649       -3.21850266094002        0.82975246847225
H           -1.22917089951409       -3.20055343126063       -0.95850543243637
H           -2.60634988068845       -2.49989924127872       -0.07834513523590
H            1.31892956896304       -2.97523044546406       -0.00445766203638
25
 energy: 0.774735458093 xtb: 6.6.1 (8d0f1dd)
C            3.15854001798542        1.31756363407437        0.09508827697814
N            2.37490708090256        0.07575066777483        0.03363587129163
C            2.64681884591094       -1.31957078186031        0.04689110942420
N            1.43201198502411       -1.99191193016519        0.01275107296924
C            0.42305437731848       -1.12089798297593       -0.01131915244005
C            0.96894676810439        0.16204905010640        0.00429853748216
C            0.18134104201455        1.30399489233978       -0.02654053109802
O            0.51310700154214        2.49118656323900       -0.03739151813432
N           -1.23170053414642        0.98295930309612       -0.04120780447921
C           -2.10080410580990        2.13448527608010       -0.04348313819897
C           -1.79605738109127       -0.24080097050886       -0.05514900704155
O           -2.99912176906503       -0.41720305156848       -0.07602530659621
N           -0.93206176053605       -1.34746845262727       -0.04356409810117
C           -1.55356804617971       -2.65484943041362       -0.06517123282261
H            3.68709421621283        1.50522385404152        1.04396590423622
H            3.91440652093814        1.45059104336120       -0.70872510668257
H            2.42941175649159        2.14587505076247       -0.01183934369211
H            3.58274878494881       -1.82777929662550        0.05030510060835
H           -1.42103226673416        2.98915732452944       -0.02320231514661
H           -2.71514081861460        2.14516228850027       -0.94266476837842
H           -2.74363745872109        2.12582430221811        0.83563830362760
H           -1.31494601171423       -3.23653877609633        0.82872268601386
H           -1.28529256401792       -3.22069166199992       -0.96090130698537
H           -2.63341438285047       -2.46674157362687       -0.08150327549922
H            1.32660337002307       -2.99634073948332        0.00442493881228
25
 energy: 3.246825106207 xtb: 6.6.1 (8d0f1dd)
C            3.12527318196544        1.34591513985323        0.09667727497203
N            2.38456178163660        0.06689471161818        0.03537551073673
C            2.65457804774325       -1.32247854438249        0.05497482947085
N            1.44965174901419       -2.00390754671785        0.01807122057119
C            0.42850284577319       -1.14024067260588       -0.01258667838148
C            0.98009941374581        0.14229482689191        0.00035611602044
C            0.19542741769692        1.29067509455989       -0.03528088065775
O            0.52739681056167        2.47533982782682       -0.05100960947772
N           -1.21443582743494        0.97371313495898       -0.04555544371607
C           -2.06812784874839        2.13680588171672       -0.04045815587578
C           -1.78600645516837       -0.24925803095576       -0.05814255974932
O           -2.98893771906332       -0.41614748345933       -0.07745528743774
N           -0.92518237413562       -1.36424755748900       -0.04654456450705
C           -1.57371996515629       -2.66232925682061       -0.06758202151990
H            3.65977514467970        1.55145979767151        1.03541771714020
H            3.85463438781906        1.52626842680905       -0.71724014113917
H            2.36452768839519        2.14437467027584        0.00914077662873
H            3.58557044032499       -1.84255579056401        0.05254884187933
H           -1.37643549324543        2.98016545178261       -0.02277459312591
H           -2.68456794132773        2.16107538516921       -0.93670943703982
H           -2.70181117894257        2.13873863852941        0.84423398794883
H           -1.35468102628718       -3.24984359285872        0.82680133113280
H           -1.32343100947002       -3.23571653570073       -0.96296068999113
H           -2.64950464701702       -2.44819726748141       -0.08464898391718
H            1.34905724457703       -3.00977010645552        0.01238533618215
25
 energy: 3.380836475076 xtb: 6.6.1 (8d0f1dd)
C            3.10478793132587        1.35397337723845        0.09848652194887
N            2.38315911529988        0.06574480024466        0.03885346518158
C            2.65819484767097       -1.30667801351694        0.06493557377056
N            1.46920862021355       -2.00821240488103        0.02392955802663
C            0.43046581331911       -1.15168238795535       -0.01430133292299
C            0.98328065668946        0.13102458276235       -0.00462256044523
C            0.19442658281385        1.28569620445192       -0.04605975022135
O            0.54015270280416        2.46956362563449       -0.06896332812719
N           -1.19945058030514        0.97068998741204       -0.05077762917536
C           -2.04968105626140        2.13934795850039       -0.03671258474603
C           -1.77973679518628       -0.25247820315354       -0.06122098236443
O           -2.98322671129850       -0.40627123247097       -0.07786674009234
N           -0.92009384055413       -1.37755055620566       -0.05040625521096
C           -1.58660670363906       -2.66900771078546       -0.07068021047303
H            3.64014412979611        1.55535548088083        1.03036253798803
H            3.79595586224133        1.54418609161902       -0.72574582921962
H            2.33908590727162        2.13187595021570        0.02812764520943
H            3.59157599174035       -1.82289720632275        0.05464796524388
H           -1.36056599052780        2.98212177506512       -0.02278935920525
H           -2.66881049138596        2.17114858107138       -0.92927202114478
H           -2.67164687716720        2.14407535499281        0.85493552317898
H           -1.37968499164789       -3.25843916725814        0.82371165548847
H           -1.34697696368659       -3.24631337476146       -0.96487716656297
H           -2.65725951621111       -2.44083171724578       -0.08856803591779
H            1.38551702462098       -3.01541319336000        0.02190723594019
25
 energy: 4.958914818413 xtb: 6.6.1 (8d0f1dd)
C            3.08819293292782        1.36366377620961        0.10161605718379
N            2.38472065483809        0.06529081749495        0.04164862301928
C            2.66676321610823       -1.30191946334054        0.07594729999169
N            1.48138767006306       -2.01436380791046        0.03083059944841
C            0.43493400835715       -1.16314844911694       -0.01565243006515
C            0.98507465989780        0.12067226827705       -0.00998821792187
C            0.19687435575380        1.27355987469027       -0.05937009413603
O            0.55096979176241        2.46056371678385       -0.09131117883105
N           -1.18914012404639        0.96368134850299       -0.05720409290464
C           -2.03143005105921        2.13986660062232       -0.03360915089133
C           -1.77376374903729       -0.25625099998689       -0.06482048350821
O           -2.97898393143488       -0.40163083981709       -0.07825572536286
N           -0.91785321898307       -1.38845552005379       -0.05455317774644
C           -1.60124513471622       -2.67230579909622       -0.07378620276934
H            3.63839006066726        1.56507907641508        1.02485082671366
H            3.75021958445271        1.59021643049028       -0.74528501130767
H            2.29201652414057        2.12138432113003        0.06278821335030
H            3.60186368287536       -1.81477243266415        0.05819376554152
H           -1.33152932905611        2.97707694318766       -0.02431625927300
H           -2.65636509349125        2.18114619167879       -0.92156363825019
H           -2.64241526701853        2.15033538019024        0.86569669826331
H           -1.40627359023958       -3.26539731566796        0.82126086990885
H           -1.37118987368129       -3.25602012099502       -0.96666987943413
H           -2.66856801274057       -2.42722427043758       -0.09310493027324
H            1.40956490159626       -3.02201912441441        0.03369141540159
25
 energy: 4.397154294827 xtb: 6.6.1 (8d0f1dd)
C            3.08635784302646        1.35664779349432        0.10683975617487
N            2.37788473983480        0.07130136084720        0.04486162050300
C            2.67267099808551       -1.28976118756991        0.09040650039411
N            1.48930767775130       -2.01402701154851        0.03912735136387
C            0.43802723069388       -1.16663171405461       -0.01793657080147
C            0.97949558975697        0.11963284994812       -0.01872054626330
C            0.18629713268620        1.26782248204968       -0.07972683142461
O            0.55275592872793        2.45864095481314       -0.12341468115482
N           -1.18806747195476        0.96235829101076       -0.06610618788571
C           -2.03033208895838        2.14006051955558       -0.02932389919949
C           -1.77231803975935       -0.25622857293779       -0.06898938383854
O           -2.97899320975261       -0.39743651235049       -0.07645114168586
N           -0.91795912859762       -1.39289737506335       -0.06036139002889
C           -1.60826426988554       -2.67169521872864       -0.07799621736044
H            3.66344256749956        1.53782135977170        1.01841907108387
H            3.71473350292450        1.59445543751850       -0.76365620011479
H            2.28692426209509        2.11075592564449        0.10523468789294
H            3.61598063716481       -1.78664434100709        0.06296545389535
H           -1.32649478886973        2.97720084702441       -0.02720222153490
H           -2.66520919010776        2.18478523193150       -0.90956425978838
H           -2.62707814402505        2.14892118201419        0.87950509805559
H           -1.41842791271078       -3.26535340188301        0.81797685021385
H           -1.38045478372700       -3.25954876300834       -0.96893746204002
H           -2.67305598191939       -2.41925357128920       -0.09927960365973
H            1.43499156795708       -3.02189796401057        0.04936410335075
25
 energy: 4.480408422594 xtb: 6.6.1 (8d0f1dd)
C            3.08116840915618        1.35399497097297        0.11584878392103
N            2.37069655538014        0.07719604078760        0.04786040809891
C            2.68042594721999       -1.28158495365769        0.11416269359369
N            1.49682510347089       -2.01523200568000        0.05310028078834
C            0.44330223922047       -1.17301804174875       -0.02269283906577
C            0.97414938146786        0.11632496036632       -0.03491123393004
C            0.17766597664637        1.25911738087366       -0.11583915280611
O            0.55617146306461        2.45117139169782       -0.17629024042297
N           -1.18934459650124        0.96098341600606       -0.08147129538890
C           -2.02913414024123        2.14032246971718       -0.02187347375979
C           -1.77002148688068       -0.25752247218433       -0.07575909873315
O           -2.97790323439646       -0.39788686263118       -0.07204017325331
N           -0.91746446605096       -1.39760936001508       -0.07038811958948
C           -1.61812891475348       -2.66959755624720       -0.08503575829736
H            3.71034716834795        1.50408645262510        1.00278206851738
H            3.66449070376067        1.61507846947889       -0.78476660906488
H            2.28134839962707        2.10877191073949        0.17475444803237
H            3.63326837493385       -1.75992035950937        0.07061082916086
H           -1.31884668935220        2.97416364756990       -0.03210890046921
H           -2.68344255394442        2.19039282634529       -0.88738680070948
H           -2.60318051240655        2.14657812013374        0.90197421017943
H           -1.43717971476868       -3.26388083059560        0.81302766868183
H           -1.39431591000800       -3.26414008454496       -0.97315527523669
H           -2.68040210835346       -2.40527059837250       -0.10956280460222
H            1.46171927329744       -3.02349032995526        0.07619428050276
25
 energy: 4.652752834459 xtb: 6.6.1 (8d0f1dd)
C            3.07641968861453        1.34805971969149        0.13554936032311
N            2.35679816077531        0.08744336008652        0.05040612997892
C            2.68975985516428       -1.26982026452651        0.16404853960539
N            1.50519012629017       -2.01506787528527        0.08227354371423
C            0.45118074542575       -1.18144699503560       -0.03474089027665
C            0.96506205466173        0.11279674573533       -0.07214861108643
C            0.16383492426938        1.24842997146898       -0.19414107057057
O            0.55876689254257        2.43828354892549       -0.28859048841131
N           -1.19623931945964        0.96169591241944       -0.11400374451185
C           -2.03340401937781        2.14071033878698       -0.00526593374073
C           -1.76797659079374       -0.25934581922528       -0.08850709419343
O           -2.97711014027981       -0.40247953670088       -0.05908783868369
N           -0.91671879170813       -1.40182700367847       -0.09195959716082
C           -1.63068087083580       -2.66444920487404       -0.09987777786654
H            3.80861826572609        1.42855817638949        0.96824593500222
H            3.57751534264811        1.64624603315794       -0.81248293444274
H            2.29459315390017        2.11405229622538        0.31124146803470
H            3.65903394781966       -1.71478293026579        0.08379147646225
H           -1.31748090860258        2.97026846225465       -0.04248255808037
H           -2.73211012860757        2.19858039163408       -0.83702280875042
H           -2.56055470348637        2.13777098400038        0.94896410492570
H           -1.46330561338044       -3.25652061142631        0.80285397254977
H           -1.41091755687672       -3.26950157284613       -0.98238439782963
H           -2.68922506033387       -2.38492740075573       -0.13070923584171
H            1.50116521384081       -3.02369812398403        0.13306434699793
25
 energy: 4.471919259638 xtb: 6.6.1 (8d0f1dd)
C            3.07561176268571        1.34308372442568        0.15417561465198
N            2.34490024971687        0.09455862896378        0.04722624704372
C            2.69139318405803       -1.26430107672524        0.21219045895448
N            1.50483166608758       -2.01229019912754        0.10934698875466
C            0.45527335571899       -1.18461488097636       -0.04906982049020
C            0.95870613560229        0.11208330322324       -0.11229411692922
C            0.15684974318208        1.24424340937357       -0.27096206778413
O            0.55904846492037        2.42653095708061       -0.39758607300105
N           -1.20526952395422        0.96518026152974       -0.14389716982076
C           -2.04103182984846        2.14058629431166        0.01308924519696
C           -1.76805049191112       -0.25992994402315       -0.09764761360979
O           -2.97700899095088       -0.40910470830984       -0.04096575737287
N           -0.91655195062998       -1.40040255928147       -0.11288923952484
C           -1.63451349192355       -2.65927591143967       -0.11418331945973
H            3.88066643720210        1.36182911645934        0.93558868139638
H            3.52037872012590        1.66581845249733       -0.81127079046097
H            2.33228076591218        2.12459770414250        0.41842848904274
H            3.67141247126012       -1.68404643617947        0.09051507624971
H           -1.32759455906953        2.96902436694921       -0.05051712256534
H           -2.78435679863336        2.20234204817026       -0.78291954679960
H           -2.52452919760007        2.12483189367013        0.99339406244481
H           -1.47426208347999       -3.24627494923664        0.79302827311121
H           -1.41431182219442       -3.27079970728238       -0.99197552469107
H           -2.69148905266053       -2.37461201137640       -0.15004287002889
H            1.51983150431987       -3.02002917466678        0.18627179183909
25
 energy: 3.535088089218 xtb: 6.6.1 (8d0f1dd)
C            3.07652688716707        1.34352293812500        0.17553606623001
N            2.33701999635089        0.09545173432064        0.03567501796497
C            2.68101020351726       -1.27010477562901        0.27154837369870
N            1.49131475753663       -2.00643865737657        0.14043233430970
C            0.45477471013351       -1.18299910469624       -0.06931509330175
C            0.95882348420570        0.11199294749336       -0.16283672672411
C            0.16323260382466        1.24712986739033       -0.35729546052164
O            0.55484757212440        2.41021605299818       -0.52492296373952
N           -1.21630651280422        0.97191424040718       -0.17488064105500
C           -2.04715795423738        2.13973408212825        0.03697213156711
C           -1.76927557633736       -0.26002688778069       -0.10210422906800
O           -2.97507535668420       -0.41990540592792       -0.01144182073455
N           -0.91606562182206       -1.39167714970207       -0.13683581880503
C           -1.62775890154232       -2.65427248317980       -0.13073200406286
H            3.92091599505666        1.30629306792562        0.89537051821189
H            3.48550196788418        1.69402916179178       -0.77047038965928
H            2.40155399606421        2.14105918686026        0.50872366284391
H            3.66177178465124       -1.67660648802708        0.08287452762871
H           -1.34908599707140        2.96992171047196       -0.05669276639841
H           -2.84070523149782        2.20177516221975       -0.71270642526457
H           -2.48447480166658        2.10481682469031        1.03878105739323
H           -1.46900645177103       -3.23137715408119        0.78175611602559
H           -1.40208087229824       -3.26798870720279       -1.00406271644204
H           -2.68601280216474       -2.37642180409918       -0.17086959504116
H            1.50792678931690       -3.01100975694791        0.24453074109138
25
 energy: 4.216618231057 xtb: 6.6.1 (8d0f1dd)
C            3.06557504508489        1.34894308358783        0.20517377312531
N            2.33403944244110        0.09243255699383        0.03124554463212
C            2.66931903178025       -1.26724027006490        0.34621667175021
N            1.48650016299657       -2.00237934392220        0.18339387084770
C            0.45319188016481       -1.18738491252143       -0.08960102464169
C            0.96541017385747        0.10328571791651       -0.21134521741600
C            0.17435946919455        1.24547170258090       -0.44904392016464
O            0.55511010092344        2.38908072191994       -0.68962142304406
N           -1.21267770153397        0.97339010623364       -0.21432814195691
C           -2.03162302761504        2.13854803442999        0.05967172297904
C           -1.76502485054667       -0.26200926361993       -0.10876263730766
O           -2.96722933154671       -0.41978651994282        0.01971320060089
N           -0.91235540664282       -1.39107489828855       -0.16427495098709
C           -1.62741913890675       -2.65522911581196       -0.15061956319742
H            3.97172217484947        1.23708276773560        0.84157523475874
H            3.38092706445479        1.78649852929014       -0.77184531658127
H            2.42381896857797        2.13618134624060        0.66845349697268
H            3.64370069590693       -1.66754345501143        0.06720122252023
H           -1.35135808750704        2.97191653424653       -0.06998650482213
H           -2.87771840582453        2.20648408817669       -0.63571012472642
H           -2.41076507925555        2.08916867240313        1.08793989327846
H           -1.47855524900211       -3.22164855156526        0.76870792560157
H           -1.39920844195025       -3.27368934378023       -1.01729358043997
H           -2.68440046979955       -2.37735947543535       -0.19792865880627
H            1.50687564783462       -3.00411010961914        0.31810240317187
25