25
 energy: -42.153185479521 gnorm: 0.004574521591 xtb: 6.6.1 (8d0f1dd)
C            3.26358180279440        1.17417555661932       -0.01879812183469
N            2.28466467958151        0.12850984354497        0.08961050452204
C            2.51350394499743       -1.20149190060838        0.15194494209310
N            1.41231059717694       -1.90727376270198        0.28029083992776
C            0.41823490663618       -1.00123082662494        0.30253516896751
C            0.93183715814908        0.28575848911395        0.17769375278404
C            0.07491356097749        1.44396298649454        0.05231970421346
O            0.43409964075306        2.59002625381148       -0.05310710184065
N           -1.28403123288862        1.08068838240558        0.03173117858365
C           -2.25346828350254        2.15782504311962       -0.12246322997358
C           -1.83197300227870       -0.17536770757590        0.10382645113301
O           -3.00603128252765       -0.39597377111928        0.02653673666809
N           -0.92124491430218       -1.26867290070167        0.32515445694861
C           -1.35969098635064       -2.54104482807936        0.37860532568663
H            3.81653304890121        1.27038091891754        0.91801727481728
H            3.96951094390974        0.94525796835121       -0.81703531784575
H            2.75959746155105        2.11684894026707       -0.22899273145502
H            3.47742491268585       -1.65866866752964        0.06941429886442
H           -1.72295320792188        3.10531223928478       -0.05733901019488
H           -2.75357836222755        2.07779896526693       -1.08838364313804
H           -3.00762541474517        2.08823710183816        0.66087600746286
H           -0.79482285273230       -3.22126539771941        1.00105816657718
H           -0.73324129287036       -3.19116481704632       -0.91827339191171
H           -2.42946913119683       -2.67301319402541        0.26795342035755
H           -0.09765118046883       -3.41137637370197       -1.50200406351287
