72
 energy: -103.312978922339 gnorm: 0.079859619041 xtb: 6.6.1 (8d0f1dd)
N           -1.47477526965914        2.75983406157466        2.22660342705183
C           -1.55190161296048        2.16316056531774        1.14389219270905
C           -2.73710347436692        2.06184079983571        0.24223814526513
C           -3.30802508981394        0.65083401464265        0.32663513946489
C           -4.29118496984516        0.24983021725764       -0.57953647645217
C           -4.84178163079423       -1.01851491174950       -0.53374081771978
O           -5.80081448512163       -1.48485135967624       -1.36759096797427
C           -6.37727853704249       -0.60826664907459       -2.30533087449292
C           -4.39458870680924       -1.93948762538393        0.44632551806300
O           -4.98335639064390       -3.15472739737671        0.41456590123859
C           -4.66389256269034       -4.09146817135288        1.41519625890134
C           -3.42085949955228       -1.53719457260566        1.34053959914582
C           -2.88297172096957       -0.25532657643889        1.27997935492096
C           -2.18100980713727        2.30647869773574       -1.18402002686582
C           -1.26452753222468        1.17475024927339       -1.66042840427904
C            0.00965951064187        1.10377742348011       -0.91078613183207
N            0.61739758153704       -0.04603307438636       -0.57444965443580
C            1.99275809955622       -0.05385257881812       -0.15361857597876
C            2.91994776791190       -0.57192596945837       -1.26927598780696
C            4.34612648837994       -0.45421541005602       -0.82706206501311
C            5.02643277183168        0.72825797434292       -1.01433484977735
C            6.34856790978602        0.84748276547055       -0.59407541020284
C            6.98573399630339       -0.20278816386467        0.05078029452462
O            8.25937506183803       -0.19141804123955        0.51248548434941
C            9.04743375897230        0.95326474404469        0.31283882957068
C            6.27443591445844       -1.40791284322056        0.27275739177332
O            6.96898480671597       -2.38139949178678        0.91324298986677
C            6.34759444720815       -3.62260506488587        1.13497501780885
C            4.96741679870699       -1.50727926711687       -0.16459863852754
C           -0.06941770720084       -1.31622504614936       -0.63000495767744
C           -3.85920742130067        3.08469688103356        0.58013427216810
C           -4.48922818212746        2.78172329998342        1.93883446997642
C           -3.38203366586353        4.53388275306255        0.54513928859635
H           -4.64437055555072        0.94729967862862       -1.32096017919633
H           -6.83285510983913        0.25995099688526       -1.81870650271129
H           -7.15136890793562       -1.18687200422138       -2.80589031943263
H           -5.64504057848146       -0.27111237825903       -3.04646290563163
H           -4.88797618664228       -3.70519317060553        2.41319262914058
H           -5.29129512340401       -4.95684855169223        1.21588780182871
H           -3.61114237883483       -4.39007047565736        1.36670117126682
H           -3.07337931943234       -2.20878421990936        2.10915326833420
H           -2.14586397439399        0.03065159735230        2.01648452062842
H           -3.01022381883472        2.39868811258501       -1.88479136948624
H           -1.63249580399441        3.24794048996772       -1.19845914992298
H           -1.81012741774786        0.23606528402334       -1.63162807520427
H           -0.99831091896066        1.37813490593901       -2.70574658031725
H           -0.67299461846525        1.65103787067457        0.63717411934445
H            0.64759985528402        1.97376984035134       -0.93839963525665
H            2.09438921852610       -0.68831207465020        0.73325181341908
H            2.29554447043016        0.96070137033432        0.11032211338040
H            2.75556652887250        0.02734004960305       -2.16544048664080
H            2.67515480149072       -1.60982229057707       -1.49598867238155
H            4.54440792629792        1.58427641058386       -1.47987609359829
H            6.88032110025981        1.76969658781577       -0.77250039742988
H            8.62576997990949        1.82508071711377        0.81907015192609
H            9.17068398702253        1.17148138880577       -0.75236717724258
H           10.01834304470292        0.72078189311775        0.74772131750225
H            7.09687486826349       -4.23746196414673        1.63100150708649
H            5.47255900907661       -3.52572883208924        1.78546895059071
H            6.05345637298558       -4.10054389347768        0.19455890185320
H            4.41583882892467       -2.42431092695850       -0.01119083655399
H           -0.23429077548478       -1.62951322925222       -1.66288926257709
H           -1.03833503698180       -1.24940576483100       -0.12527377694621
H            0.53714525473316       -2.06604343300195       -0.13022078482621
H           -4.63139707686431        2.96221946917047       -0.18752424848046
H           -3.75621700903325        2.90692006430986        2.72937476834702
H           -4.87223731442631        1.76511166617748        1.97341051640785
H           -5.31436441535301        3.46663891008389        2.11823539251013
H           -2.59254222806203        4.69426462006012        1.27371651204118
H           -3.02450260378253        4.81987925634869       -0.43996027856886
H           -4.21365537212939        5.18778632166567        0.79830876019999
H           -0.59817022505645        2.78925236123485        2.73714918108877
72
 energy: -103.315209357189 gnorm: 0.030672211721 xtb: 6.6.1 (8d0f1dd)
N           -1.49101573870969        2.79378291225997        2.24113109386746
C           -1.55669190709575        2.15948958548066        1.16356816796983
C           -2.73886888400509        2.06506498770034        0.24856404464904
C           -3.31243054990162        0.65594426568027        0.33064375781577
C           -4.29430556651210        0.25140290946055       -0.57587960125200
C           -4.84122813199044       -1.01754988255451       -0.53219982614307
O           -5.80404235436378       -1.48676235791968       -1.36878066435657
C           -6.37640201537103       -0.60833219983420       -2.30554082188103
C           -4.39550305506102       -1.93704844663084        0.44661411845404
O           -4.98694934524306       -3.15867050586113        0.41339568906091
C           -4.66337626563379       -4.09155569327551        1.41460904836754
C           -3.42438976703674       -1.53327169274054        1.34277399606309
C           -2.88939651871867       -0.25029693476266        1.28444136338612
C           -2.18418239228278        2.30359534069987       -1.18151542188744
C           -1.25919369789400        1.18430845659699       -1.68245006361564
C            0.01266785474153        1.11633834054102       -0.91359793826595
N            0.62358948991126       -0.06018288562491       -0.56444907392197
C            1.99488539661943       -0.06530012857653       -0.15431355256867
C            2.92603966864664       -0.57616828331121       -1.27137479187714
C            4.35091303162898       -0.45519254237838       -0.83285078585046
C            5.03760677129124        0.72871415993612       -1.01370442808788
C            6.35328127984545        0.84941291411771       -0.58662700132962
C            6.98733627279313       -0.20255151254886        0.05360324725811
O            8.26664089305170       -0.19432617815875        0.51454483388240
C            9.04862508576094        0.95412423191679        0.31207695506914
C            6.27721680570347       -1.40719669009146        0.27181882022901
O            6.97275350064769       -2.38283368382619        0.91558354135084
C            6.34816012868623       -3.62205191918529        1.13533688394914
C            4.97331731261529       -1.51170035566830       -0.17131787479040
C           -0.06718488550220       -1.32133682287164       -0.62826997387755
C           -3.86570549002323        3.08362953656165        0.57849354997252
C           -4.49356898388385        2.78351787357249        1.93815118391324
C           -3.38600083637848        4.53262913848891        0.54537691304470
H           -4.64273388764932        0.94702562408459       -1.32135360536261
H           -6.83064029849277        0.26070428719236       -1.81844378178111
H           -7.15134161803609       -1.18493516260903       -2.80797469193096
H           -5.64275157976308       -0.26994234920206       -3.04509993093157
H           -4.88620163165510       -3.70360430949520        2.41353088339150
H           -5.28983549913719       -4.95935040239851        1.21692836147081
H           -3.60985325008320       -4.38772333066300        1.36641009707996
H           -3.07225227069901       -2.20799151134570        2.10717823864279
H           -2.14611474941479        0.03359506512959        2.01364211646070
H           -3.01669800698581        2.40247128910740       -1.87965186110492
H           -1.63171945732005        3.24396489593059       -1.19308346420701
H           -1.79958502990072        0.24080504198554       -1.63767797461390
H           -1.02783160423279        1.38781850824088       -2.73933004624256
H           -0.68259419122714        1.64330883062085        0.67389941101130
H            0.66493199717757        1.97483601163494       -0.97465633953105
H            2.10713249335162       -0.69575618500531        0.73411808407110
H            2.29195826698040        0.95182941517270        0.10992637168598
H            2.75305469385471        0.02655999452670       -2.16415370524558
H            2.67746554475374       -1.61326528210098       -1.49860758983587
H            4.55934368211813        1.57330133395252       -1.49200687965974
H            6.88214819662792        1.77240504470771       -0.76476479000092
H            8.62446689014921        1.82707773421938        0.81838586874617
H            9.17096448050592        1.17497312891926       -0.75351468946880
H           10.02055234428292        0.72426302064139        0.74605980667663
H            7.09488789220989       -4.23971343731229        1.63194466575723
H            5.47129858983480       -3.52436564332902        1.78421032002258
H            6.05279734882665       -4.09884487434080        0.19449139888645
H            4.41942252857958       -2.42562601266833       -0.01599620874260
H           -0.23406796507995       -1.63591186399972       -1.66344667649392
H           -1.03561381668164       -1.25136493768373       -0.12460438103781
H            0.53395139470342       -2.07563099681959       -0.12722911891023
H           -4.63935322482617        2.96479061553257       -0.18927899846108
H           -3.75273227396918        2.90702789709388        2.72181467414684
H           -4.87431638100197        1.76572346836674        1.97285807736122
H           -5.31874633672247        3.46830904170590        2.12177073848326
H           -2.59389897479140        4.68523188549401        1.27258755296423
H           -3.02473564411123        4.81617907579341       -0.43977181660565
H           -4.21472547749229        5.19070284852737        0.79915565669412
H           -0.61022515620614        2.79076518911786        2.74809523886787
72
 energy: -103.315939924618 gnorm: 0.018013478191 xtb: 6.6.1 (8d0f1dd)
N           -1.47740779233498        2.78427208409204        2.23349194430879
C           -1.54201672570444        2.14923912711019        1.14897477818357
C           -2.73551893310960        2.06402151238840        0.24412476578807
C           -3.30502268296621        0.65309904645571        0.32417833771285
C           -4.29072807918442        0.24894891848879       -0.57859123240364
C           -4.83715920913785       -1.01892753842913       -0.53337255442237
O           -5.80552922810091       -1.48870740251004       -1.36937537447192
C           -6.37739840203260       -0.60996379250966       -2.30466747353753
C           -4.39189155465578       -1.93741443451228        0.44410131232876
O           -4.98866894302728       -3.16167309958281        0.41248961793261
C           -4.66469255353363       -4.09191998747261        1.41429264788195
C           -3.42020868811101       -1.53555055548772        1.33975801488902
C           -2.88300728406265       -0.25405298611332        1.27883928560099
C           -2.18575723359449        2.30642158560105       -1.18637456529809
C           -1.26030619769443        1.18148288368998       -1.67546241982691
C            0.00599036801616        1.12453275472396       -0.89787918503054
N            0.62338114436520       -0.06444374021622       -0.55173442979895
C            1.99054846728784       -0.05901212755330       -0.15013951868536
C            2.92103052085976       -0.57198146946243       -1.26787252029350
C            4.34203845283797       -0.45076251486764       -0.82742482934406
C            5.03191658014750        0.73317032629171       -1.00938879728855
C            6.34833314295555        0.85021111284549       -0.59075578351400
C            6.98023491780966       -0.20164479145092        0.04907137133627
O            8.26270507226552       -0.19625688533053        0.51219753658825
C            9.04567039743250        0.95137159019070        0.31158866696286
C            6.27010830277268       -1.40356707031106        0.27213649240753
O            6.96979127287553       -2.38116783876096        0.91424306826213
C            6.34805388662119       -3.62101766857271        1.13465864113103
C            4.96548257613165       -1.50934551287364       -0.16657370522549
C           -0.06736569650784       -1.31847242358908       -0.62934059715385
C           -3.85823401393178        3.08234642881691        0.58075699802572
C           -4.48903872021738        2.78212925681137        1.93933314703382
C           -3.38299912904764        4.53426784132384        0.54637063054452
H           -4.64177173061267        0.94605834364831       -1.32168151655668
H           -6.83206245920010        0.25944197554528       -1.81792335328104
H           -7.15289092709364       -1.18709465001559       -2.80597933167708
H           -5.64544686818011       -0.27118740304053       -3.04602231765640
H           -4.88765935876244       -3.70384594697733        2.41388989729836
H           -5.29277692788875       -4.95907009508683        1.21662465948573
H           -3.61167511913224       -4.39030531735859        1.36704736622708
H           -3.07209947145231       -2.20960372190185        2.10715129360250
H           -2.14411714271531        0.03065912026573        2.01129832053776
H           -3.01584811758905        2.40243047386041       -1.88797246471594
H           -1.63042823955578        3.24643928888931       -1.19921618379910
H           -1.80101027806046        0.23536291677516       -1.62716485616495
H           -1.01693285954094        1.37972485299717       -2.72796208118895
H           -0.67479900638065        1.65370385904104        0.65031329189355
H            0.65482093632988        1.98326119137096       -0.94415865378120
H            2.10458687639225       -0.68652226753477        0.73975168580866
H            2.28731507240943        0.96031485767989        0.11226552851271
H            2.74945400572222        0.02968938486423       -2.16218995246820
H            2.67055192362998       -1.60894442559072       -1.49369049592499
H            4.54555871769790        1.57700562689591       -1.47583062653453
H            6.87658964148440        1.77177864902464       -0.77434350377693
H            8.62308132145831        1.82605289084606        0.81832773078088
H            9.17086449406282        1.17299907151381       -0.75376668882941
H           10.01617069524086        0.71890610649816        0.74753642167096
H            7.09710122754352       -4.23689076093472        1.63010204818073
H            5.47193009661507       -3.52614139585476        1.78554370879435
H            6.05211730860806       -4.09964369736942        0.19468619854567
H            4.41064975753146       -2.42135874319115       -0.00899169407590
H           -0.23424858524201       -1.62950204494269       -1.66729693026189
H           -1.03641371749983       -1.25240974514457       -0.12648365043843
H            0.53523128632797       -2.07335872443535       -0.13076855190117
H           -4.63161448988225        2.96352687590119       -0.18729393765179
H           -3.75259745371015        2.90641430073332        2.72681808831465
H           -4.86990652926770        1.76409123954230        1.97305193770238
H           -5.31542461714125        3.46638993013180        2.11842064703233
H           -2.59143499825218        4.69206780548664        1.27288722101678
H           -3.02295069343199        4.81889425541135       -0.43944554784846
H           -4.21457803196176        5.18888616965500        0.79886827613637
H           -0.58126464911160        2.77141600949443        2.71616014721799
72
 energy: -103.316263607724 gnorm: 0.010646240588 xtb: 6.6.1 (8d0f1dd)
N           -1.49923571271925        2.77950460528560        2.23948468342980
C           -1.54805126571496        2.15558219894911        1.14975673254295
C           -2.73950855226221        2.06419506587232        0.24444132490106
C           -3.30871272779413        0.65355796300733        0.32725776452677
C           -4.29341675288869        0.25036391275545       -0.57672438516945
C           -4.83961215631387       -1.01716945245311       -0.53076741644088
O           -5.80557233294958       -1.48667938443740       -1.36898289602099
C           -6.37592802184120       -0.60818183573175       -2.30517209791209
C           -4.39397791725648       -1.93528368119416        0.44686447379911
O           -4.98804367147351       -3.16000062336460        0.41405606732499
C           -4.66270554325196       -4.09073219072108        1.41442417917987
C           -3.42266695204011       -1.53475880159161        1.34319016105731
C           -2.88654969142614       -0.25313577733571        1.28290546051790
C           -2.18396321372021        2.30729202464997       -1.18259543571267
C           -1.26299353995315        1.17766331809623       -1.66722825204830
C            0.00677544934954        1.11961942804788       -0.90307971995203
N            0.62499939446327       -0.06426800385471       -0.56411758080137
C            1.99224401865246       -0.05876113007776       -0.16014501375064
C            2.92699055986680       -0.57476642424267       -1.27370883170033
C            4.34746044612513       -0.45428007290552       -0.83073816276853
C            5.03643412208015        0.72937314305219       -1.01535271839849
C            6.35281398060210        0.84745053899903       -0.59296421164053
C            6.98453731166699       -0.20282278118346        0.05011128121112
O            8.26585258697708       -0.19413926867026        0.51569048668432
C            9.04855177708456        0.95316689012566        0.31357498886339
C            6.27548029199653       -1.40539133363678        0.27165507575524
O            6.97320174416933       -2.38339052702042        0.91488592869184
C            6.34914002965332       -3.62203623588174        1.13505354473340
C            4.97098045253939       -1.51123351671549       -0.16799708763796
C           -0.06858242440347       -1.31636738613499       -0.63106125079259
C           -3.86104980250174        3.08317550212615        0.58042444236452
C           -4.49201620051251        2.78292855807670        1.93918536926249
C           -3.38409311195297        4.53448904979708        0.54531734137281
H           -4.64497627328459        0.94802207449203       -1.31930704780285
H           -6.83238823761154        0.26104579725352       -1.81968669515135
H           -7.15025163479544       -1.18569945903420       -2.80765857159434
H           -5.64317954787108       -0.26970740734505       -3.04588612103592
H           -4.88702896198250       -3.70516861789403        2.41439039835752
H           -5.28958151098308       -4.95812174857418        1.21574292406844
H           -3.60947592213618       -4.38832263968269        1.36682084750626
H           -3.07511069504571       -2.20854066011442        2.11087679002122
H           -2.14976859369412        0.03233812254493        2.01798611137015
H           -3.01229138382153        2.40118459647078       -1.88495124167794
H           -1.63059932853014        3.24817699774427       -1.19542844718406
H           -1.80777416667956        0.23410326482964       -1.62953650951743
H           -1.00519778909561        1.37948845118609       -2.71306843886594
H           -0.67998035450864        1.65528502576899        0.65319463343032
H            0.65611235313336        1.97592524025043       -0.94864376065912
H            2.10065849671757       -0.68947711682111        0.72876819467593
H            2.29469600086239        0.95820286539116        0.10524406083843
H            2.75956673425904        0.02527696196659       -2.16973439783124
H            2.67846357461431       -1.61204857501226       -1.49979598728867
H            4.54930814608966        1.57440699431257       -1.48349723461335
H            6.88089958922426        1.77020656177842       -0.77213311073927
H            8.62621875603222        1.82761526119543        0.81974742575856
H            9.17188571718147        1.17289132464503       -0.75211973709134
H           10.02013197948198        0.72279821969177        0.74834474299491
H            7.09626870217679       -4.23879221943113        1.63226354124235
H            5.47235913516618       -3.52526441644973        1.78472834374950
H            6.05430651747268       -4.10096897203433        0.19484337908754
H            4.41886722911080       -2.42575117399982       -0.01508104935599
H           -0.23725442892610       -1.63481554359593       -1.66562538688385
H           -1.03686587572661       -1.24772866161252       -0.12601443494551
H            0.53565441739823       -2.06785862458488       -0.12919718015573
H           -4.63361545418007        2.96287931071107       -0.18813799742711
H           -3.75707881668877        2.90700009854547        2.72801439054272
H           -4.87515141157860        1.76580868219315        1.97353112985471
H           -5.31700012214530        3.46828252561579        2.11818930854537
H           -2.59338958150231        4.69277875370536        1.27271174157596
H           -3.02490812488168        4.81924536399301       -0.44063512833408
H           -4.21535996901506        5.18882937847101        0.79779000596300
H           -0.60754661367464        2.78077907765993        2.72952266395049
72
 energy: -103.316369369009 gnorm: 0.008641627098 xtb: 6.6.1 (8d0f1dd)
N           -1.48835693389445        2.78453704857651        2.23725564581854
C           -1.54227269730997        2.15800655157042        1.15132666012351
C           -2.73584909900857        2.06398261340747        0.24664258280434
C           -3.30844688878681        0.65419438392068        0.32818733248076
C           -4.29186064185275        0.25069286313325       -0.57762459693984
C           -4.83825869530035       -1.01731059304604       -0.53197370196929
O           -5.80390429273500       -1.48681379328464       -1.36962661507643
C           -6.37652736479920       -0.60878673484098       -2.30462954907343
C           -4.39259433406434       -1.93563705738235        0.44550208978337
O           -4.98673882628718       -3.15955386594683        0.41322831802111
C           -4.66373683750310       -4.09051959345027        1.41407733655761
C           -3.42025945865011       -1.53555205767456        1.34101106847055
C           -2.88462778518272       -0.25356799233608        1.28161974420292
C           -2.18374807531408        2.30483849275148       -1.18277070932858
C           -1.26238488999936        1.17921889924378       -1.67595233699425
C            0.00866387417517        1.11757526274993       -0.91389107256613
N            0.62320451045801       -0.06189658934870       -0.56627887457474
C            1.98887210650640       -0.05832348844497       -0.15226408576964
C            2.92286333322685       -0.57256818798431       -1.26697461973929
C            4.34497329269523       -0.45238541177983       -0.82767816879783
C            5.03331539760806        0.73144904352869       -1.01195410095985
C            6.35002914416144        0.84955495233321       -0.58852486736521
C            6.98263469745971       -0.20210626504586        0.05183255437080
O            8.26433893781704       -0.19396196176555        0.51419002216844
C            9.04682921160701        0.95304256791317        0.31122038211572
C            6.27374233008094       -1.40492265545099        0.27209671076970
O            6.97092613832297       -2.38304327629940        0.91465038890652
C            6.34683561284897       -3.62152963256337        1.13462696623156
C            4.96855370788005       -1.50940208772375       -0.16631288018306
C           -0.06830208542445       -1.31640010753443       -0.62949809221726
C           -3.85964164830915        3.08238036024206        0.58008604803489
C           -4.48967173806812        2.78182269677376        1.93892868498434
C           -3.38264175544918        4.53311321846165        0.54602978319512
H           -4.64166845568473        0.94749489715736       -1.32180209184673
H           -6.83187014096688        0.26023207023334       -1.81788839051152
H           -7.15194303373092       -1.18609538985542       -2.80584768561541
H           -5.64494434323083       -0.27036685768852       -3.04640373090674
H           -4.88743058022892       -3.70371442513804        2.41347951081506
H           -5.29172313617776       -4.95739536587509        1.21662539243956
H           -3.61102388716609       -4.38976826619657        1.36689373047058
H           -3.07013819992071       -2.21013780326645        2.10639546292093
H           -2.14312549850533        0.03039190340658        2.01291924265650
H           -3.01515296394366        2.39990363532534       -1.88117078799477
H           -1.63219759460095        3.24602826525111       -1.19689482772568
H           -1.80629499201839        0.23688229241127       -1.63823506929768
H           -1.01396399764560        1.38384611757304       -2.72459757457506
H           -0.67836064335970        1.64362021464612        0.65790179525403
H            0.65989753216883        1.97254456376987       -0.96283777279056
H            2.09805168524314       -0.69090187673245        0.73646160995812
H            2.29147959650600        0.95755490879778        0.11469245468754
H            2.75128928850208        0.02892594238146       -2.16111464306929
H            2.67386376308208       -1.60962603665402       -1.49395855351982
H            4.54905354901039        1.57698009582833       -1.48448198838287
H            6.87897275890888        1.77236676141172       -0.76649085569489
H            8.62438268600441        1.82649729934628        0.81816827434313
H            9.16888650464399        1.17330846872935       -0.75441540790315
H           10.01885925052821        0.72262569930158        0.74492492785467
H            7.09459070184141       -4.23865430967234        1.63052103691377
H            5.47079032898337       -3.52497370186024        1.78515864434750
H            6.05115586623179       -4.09926999132435        0.19414596047577
H            4.41542963326505       -2.42332786601067       -0.01201141014197
H           -0.23323275448448       -1.63529044611067       -1.66388240957341
H           -1.03811481286789       -1.25037831747119       -0.12683201303938
H            0.53449486172147       -2.06941914535432       -0.12696413317533
H           -4.63315385624730        2.96254005617396       -0.18788113679080
H           -3.75271918537799        2.90635080836066        2.72563643759797
H           -4.87128655667020        1.76425011427990        1.97330431271570
H           -5.31498268316315        3.46631758726984        2.12023077864354
H           -2.59178661561738        4.68875126039328        1.27372500771423
H           -3.02336484730989        4.81775318756667       -0.43966406440899
H           -4.21299458899484        5.18828787254633        0.79955028115115
H           -0.59727776082378        2.78500706026333        2.73029803936976
72
 energy: -103.316471013127 gnorm: 0.005062492688 xtb: 6.6.1 (8d0f1dd)
N           -1.48810519203131        2.78371308671269        2.23864402839279
C           -1.54461668895988        2.15456126837625        1.15381233930395
C           -2.73785276841107        2.06469854350959        0.24666228314223
C           -3.30969504478604        0.65438751205571        0.32690822238031
C           -4.29314096886091        0.24986753940913       -0.57837493928497
C           -4.83931441897337       -1.01834693120313       -0.53231425005096
O           -5.80537359431106       -1.48806908561531       -1.36995671258428
C           -6.37677026919905       -0.60965877762448       -2.30516257902854
C           -4.39409885038651       -1.93612841021568        0.44555282461300
O           -4.98795162405218       -3.16086816230741        0.41349724375688
C           -4.66388046860457       -4.09146704454780        1.41420606134147
C           -3.42294349763219       -1.53459245102583        1.34182647371531
C           -2.88699654332121       -0.25260722264492        1.28139366996384
C           -2.18465265013229        2.30560210568513       -1.18291163131939
C           -1.26017949064840        1.18091166295465       -1.67332046560288
C            0.00916205551140        1.11992181772869       -0.90623266547622
N            0.62474236242712       -0.06224228383679       -0.56043551206667
C            1.99195843701636       -0.05960684888707       -0.15325149672483
C            2.92385929237278       -0.57384223914466       -1.27045223219806