25
 energy: -42.122925673098 gnorm: 0.011616338263 xtb: 6.6.1 (8d0f1dd)
C            3.12777797833584       -0.44864129465734        1.09199540070182
N            2.31409698518451       -0.68149731491108       -0.09016315760155
C            2.94461316642302       -1.43916388394544       -1.18378632380587
N            4.02224193677439       -2.03473303577443       -1.15015919289581
C           -0.12583391869158        0.09824884869546       -0.10338099924538
C            1.09891487542335       -0.33113270777143       -0.13787663116206
C           -0.62491871757050        1.56077325718388       -0.46192518029888
O            0.07364527149247        2.47007857807710       -0.77316499410077
N           -1.95673504045553        1.47849609945836       -0.29675025234859
C           -2.86844056531022        2.57916261403839       -0.53805758475855
C           -2.39604870519866        0.22027672139321        0.12774682157293
O           -3.51336322527530       -0.10658331984845        0.36883744576449
N           -1.26038374270102       -0.57845229242998        0.22913498699487
C           -1.31572864223599       -1.95360689819871        0.66161063258780
H            3.34137469611092       -1.39540843658652        1.59132340083052
H            4.06767169524858        0.01858925807798        0.79343467563289
H            2.60866906965150        0.20886873295593        1.78427223764979
H            2.33300049788844       -1.45401480784675       -2.07880050328123
H           -2.35578645866568        3.51766543214021       -0.33767450995876
H           -3.20981524330992        2.56590512100180       -1.57377655384694
H           -3.72558545861257        2.46217841706974        0.12282836740045
H           -0.76985369699783       -2.08771439249213        1.59635712089673
H           -0.90145668406983       -2.61259389191499       -0.10259707913229
H           -2.36450523123293       -2.20033015828945        0.82122517137162
H            4.61688067190803       -2.03813210382468       -0.32948168106096
25
 energy: -42.123556380247 gnorm: 0.007151637728 xtb: 6.6.1 (8d0f1dd)
C            3.12898577658640       -0.44593231636580        1.09668633483452
N            2.30953029996277       -0.67827849536314       -0.08145550783427
C            2.92997224389784       -1.41731962016871       -1.18720264894322
N            4.00954667291625       -2.00205116280343       -1.16267304462094
C           -0.12874128787024        0.08471231468186       -0.09494059886471
C            1.09234073677215       -0.34520884445138       -0.11962940263825
C           -0.61019274792864        1.54068896922893       -0.47343440254620
O            0.09564361333808        2.44415924895091       -0.78606139176319
N           -1.94428206207610        1.47208523972022       -0.30340283116525
C           -2.85235485669049        2.57734643754561       -0.54122271938379
C           -2.39529438396413        0.21883767765706        0.12473854378070
O           -3.51551534066672       -0.09899031000492        0.36475244877923
N           -1.26601511971331       -0.58667467844524        0.23356671745279
C           -1.32501783687508       -1.96089830607304        0.66672220967159
H            3.35030548051642       -1.39448250947019        1.59024347252205
H            4.06395801115806        0.02874138453411        0.79408078901400
H            2.60852682018271        0.20539397228299        1.79481207813964
H            2.31178663325475       -1.43585885357196       -2.07607295856503
H           -2.33825467328708        3.51470487373814       -0.33994492364707
H           -3.19761993698048        2.56701767692788       -1.57568188811183
H           -3.70921195673781        2.46214915861404        0.12091544823540
H           -0.77987035044291       -2.09426908543382        1.60202610803063
H           -0.90953199810872       -2.61969657447093       -0.09691776793356
H           -2.37436407901645       -2.20565232488118        0.82434019226235
H            4.60610185588654       -2.01228533077698       -0.34307263879927
25
 energy: -42.124108879319 gnorm: 0.005245112549 xtb: 6.6.1 (8d0f1dd)
C            3.13271871771932       -0.44149903153377        1.10467296307959
N            2.30402364618710       -0.67461165722280       -0.06644183908293
C            2.90881636817200       -1.38581261080817       -1.19183354276212
N            3.99745234266251       -1.95233320036853       -1.18766681140813
C           -0.13814962588187        0.05981789610099       -0.08291299555831
C            1.08204667904137       -0.36690793094411       -0.09228744802858
C           -0.58853461165694        1.50875039488929       -0.48037327579825
O            0.12905797713866        2.39958170883672       -0.80516954494518
N           -1.92659182231905        1.46260873836401       -0.31186272015737
C           -2.82551339766030        2.57514018741149       -0.55032383751033
C           -2.39816694352270        0.21830193436442        0.12356275768462
O           -3.52412293771534       -0.08321613588098        0.35861264117113
N           -1.28059324591558       -0.60101332509707        0.24337195225651
C           -1.34552047283937       -1.97431860066729        0.67725787887148
H            3.36656298994004       -1.39138370775166        1.59084632398458
H            4.05962707171090        0.04489886309102        0.79601542406364
H            2.61009572191809        0.20029823745193        1.81095669655121
H            2.28194496102420       -1.39661543674046       -2.07341540340455
H           -2.30638632667749        3.50891113951413       -0.34585027868231
H           -3.17234247898996        2.56942131870995       -1.58423025509887
H           -3.68276162776178        2.46296036681579        0.11240989635615
H           -0.80060560833373       -2.10802043567042        1.61272305166375
H           -0.93007023022580       -2.63389394383872       -0.08579264747751
H           -2.39536646119439       -2.21607207629465        0.83362272343539
H            4.60281082929450       -1.96675415112946       -0.37472009129716
25
 energy: -42.124430050572 gnorm: 0.005369026307 xtb: 6.6.1 (8d0f1dd)
C            3.13864581339901       -0.43913652139585        1.11215175926001
N            2.30218309131195       -0.67299663870093       -0.05233294279394
C            2.89979777043861       -1.35582695941693       -1.19719039040287
N            3.99746468304059       -1.90770722403612       -1.21637734838342
C           -0.14771509844543        0.03629722521417       -0.06989439783007
C            1.07428622236168       -0.38709996973752       -0.06515683576535
C           -0.57518305650877        1.48131056066514       -0.48323932352203
O            0.15162667642907        2.36070973940791       -0.82118853433354
N           -1.91551062315621        1.45454096656674       -0.31836778169008
C           -2.80310510348300        2.57487877733196       -0.55978884651115
C           -2.40401703445687        0.21789677079714        0.12263206294825
O           -3.53482183135258       -0.06845946106226        0.35342847743761
N           -1.29645819664028       -0.61392062024905        0.25306850957658
C           -1.36910077092951       -1.98631054859300        0.68855147620943
H            3.38546889227531       -1.38949894559889        1.59116537361266
H            4.05765497833602        0.05861565691323        0.79848812550994
H            2.61443217055305        0.19322271336616        1.82602971100882
H            2.25981939139915       -1.36189323104392       -2.06942599804012
H           -2.27659401251606        3.50410187849799       -0.35318673364748
H           -3.14680375748133        2.57267116862301       -1.59457824393245
H           -3.66269570045587        2.46842225557687        0.10100595864901
H           -0.82531310087853       -2.12109270890800        1.62460577155722
H           -0.95505415741307       -2.64842670629006       -0.07316908392822
H           -2.41978807120421       -2.22421010888987        0.84401455468121
H            4.61121233949231       -1.92784952743561       -0.41007370176339
