      -----------------------------------------------------------      
     |                   =====================                   |     
     |                           x T B                           |     
     |                   =====================                   |     
     |                         S. Grimme                         |     
     |          Mulliken Center for Theoretical Chemistry        |     
     |                    University of Bonn                     |     
      -----------------------------------------------------------      

   * xtb version 6.6.1 (8d0f1dd) compiled by 'conda@1efc2f54142f' on 2023-08-01

   xtb is free software: you can redistribute it and/or modify it under
   the terms of the GNU Lesser General Public License as published by
   the Free Software Foundation, either version 3 of the License, or
   (at your option) any later version.
   
   xtb is distributed in the hope that it will be useful,
   but WITHOUT ANY WARRANTY; without even the implied warranty of
   MERCHANTABILITY or FITNESS FOR A PARTICULAR PURPOSE.  See the
   GNU Lesser General Public License for more details.
   
   Cite this work as:
   * C. Bannwarth, E. Caldeweyher, S. Ehlert, A. Hansen, P. Pracht,
     J. Seibert, S. Spicher, S. Grimme, WIREs Comput. Mol. Sci., 2020, 11,
     e01493. DOI: 10.1002/wcms.1493
   
   for GFN2-xTB:
   * C. Bannwarth, S. Ehlert and S. Grimme., J. Chem. Theory Comput., 2019,
     15, 1652-1671. DOI: 10.1021/acs.jctc.8b01176
   for GFN1-xTB:
   * S. Grimme, C. Bannwarth, P. Shushkov, J. Chem. Theory Comput., 2017,
     13, 1989-2009. DOI: 10.1021/acs.jctc.7b00118
   for GFN0-xTB:
   * P. Pracht, E. Caldeweyher, S. Ehlert, S. Grimme, ChemRxiv, 2019, preprint.
     DOI: 10.26434/chemrxiv.8326202.v1
   for GFN-FF:
   * S. Spicher and S. Grimme, Angew. Chem. Int. Ed., 2020, 59, 15665-15673.
     DOI: 10.1002/anie.202004239
   
   for ALPB and GBSA implicit solvation:
   * S. Ehlert, M. Stahn, S. Spicher, S. Grimme, J. Chem. Theory Comput.,
     2021, 17, 4250-4261. DOI: 10.1021/acs.jctc.1c00471
   
   for DFT-D4:
   * E. Caldeweyher, C. Bannwarth and S. Grimme, J. Chem. Phys., 2017,
     147, 034112. DOI: 10.1063/1.4993215
   * E. Caldeweyher, S. Ehlert, A. Hansen, H. Neugebauer, S. Spicher,
     C. Bannwarth and S. Grimme, J. Chem. Phys., 2019, 150, 154122.
     DOI: 10.1063/1.5090222
   * E. Caldeweyher, J.-M. Mewes, S. Ehlert and S. Grimme, Phys. Chem. Chem. Phys.
     2020, 22, 8499-8512. DOI: 10.1039/D0CP00502A
   
   for sTDA-xTB:
   * S. Grimme and C. Bannwarth, J. Chem. Phys., 2016, 145, 054103.
     DOI: 10.1063/1.4959605
   
   in the mass-spec context:
   * V. Asgeirsson, C. Bauer and S. Grimme, Chem. Sci., 2017, 8, 4879.
     DOI: 10.1039/c7sc00601b
   * J. Koopman and S. Grimme, ACS Omega 2019, 4, 12, 15120-15133.
     DOI: 10.1021/acsomega.9b02011
   
   for metadynamics refer to:
   * S. Grimme, J. Chem. Theory Comput., 2019, 155, 2847-2862
     DOI: 10.1021/acs.jctc.9b00143
   
   for SPH calculations refer to:
   * S. Spicher and S. Grimme, J. Chem. Theory Comput., 2021, 17, 1701-1714
     DOI: 10.1021/acs.jctc.0c01306
   
   with help from (in alphabetical order)
   P. Atkinson, C. Bannwarth, F. Bohle, G. Brandenburg, E. Caldeweyher
   M. Checinski, S. Dohm, S. Ehlert, S. Ehrlich, I. Gerasimov, C. Hölzer
   A. Katbashev, J. Koopman, C. Lavigne, S. Lehtola, F. März, M. Müller,
   F. Musil, H. Neugebauer, J. Pisarek, C. Plett, P. Pracht, F. Pultar,
   J. Seibert, P. Shushkov, S. Spicher, M. Stahn, M. Steiner, T. Strunk,
   J. Stückrath, T. Rose, and J. Unsleber
   
 * started run on 2024/04/06 at 11:11:30.334     

           -------------------------------------------------
          |                Calculation Setup                |
           -------------------------------------------------

          program call               : xtb struc.xyz --opt loose --input .xc1 --gfn2
          hostname                   : n-62-30-23
          coordinate file            : struc.xyz
          omp threads                :                     1

   ID    Z sym.   atoms
    1    7 N      1, 17
    2    6 C      2-6, 8, 9, 11-16, 18-23, 25, 26, 28-33
    3    8 O      7, 10, 24, 27
    4    1 H      34-72
constraining bond 1 47 to    4.0600000 Å, actual value:    2.0968291 Å

           -------------------------------------------------
          |                 G F N 2 - x T B                 |
           -------------------------------------------------

        Reference                      10.1021/acs.jctc.8b01176
      * Hamiltonian:
        H0-scaling (s, p, d)           1.850000    2.230000    2.230000
        zeta-weighting                 0.500000
      * Dispersion:
        s8                             2.700000
        a1                             0.520000
        a2                             5.000000
        s9                             5.000000
      * Repulsion:
        kExp                           1.500000    1.000000
        rExp                           1.000000
      * Coulomb:
        alpha                          2.000000
        third order                    shell-resolved
        anisotropic                    true
        a3                             3.000000
        a5                             4.000000
        cn-shift                       1.200000
        cn-exp                         4.000000
        max-rad                        5.000000


          ...................................................
          :                      SETUP                      :
          :.................................................:
          :  # basis functions                 171          :
          :  # atomic orbitals                 171          :
          :  # shells                          105          :
          :  # electrons                       180          :
          :  max. iterations                   250          :
          :  Hamiltonian                  GFN2-xTB          :
          :  restarted?                      false          :
          :  GBSA solvation                  false          :
          :  PC potential                    false          :
          :  electronic temp.         5000.0000000     K    :
          :  accuracy                    1.0000000          :
          :  -> integral cutoff          0.2500000E+02      :
          :  -> integral neglect         0.1000000E-07      :
          :  -> SCF convergence          0.1000000E-05 Eh   :
          :  -> wf. convergence          0.1000000E-03 e    :
          :  Broyden damping             0.4000000          :
          ...................................................

 iter      E             dE          RMSdq      gap      omega  full diag
   1   -100.5973919 -0.100597E+03  0.374E+00    3.20       0.0  T
   2   -100.7362642 -0.138872E+00  0.221E+00    1.08       1.0  T
   3   -100.7049001  0.313641E-01  0.141E+00    3.29       1.0  T
   4   -100.7721690 -0.672689E-01  0.526E-01    1.50       1.0  T
   5   -100.7894292 -0.172602E-01  0.190E-01    1.98       1.0  T
   6   -100.7911978 -0.176856E-02  0.792E-02    1.77       1.0  T
   7   -100.7914750 -0.277198E-03  0.375E-02    1.83       1.0  T
   8   -100.7914914 -0.164582E-04  0.140E-02    1.83       1.0  T
   9   -100.7914976 -0.616739E-05  0.474E-03    1.82       2.5  T
  10   -100.7914988 -0.118227E-05  0.172E-03    1.82       6.8  T
  11   -100.7914989 -0.139928E-06  0.766E-04    1.82      15.4  T
  12   -100.7914989 -0.773143E-08  0.318E-04    1.82      37.0  T

   *** convergence criteria satisfied after 12 iterations ***

         #    Occupation            Energy/Eh            Energy/eV
      -------------------------------------------------------------
         1        2.0000           -0.8078051             -21.9815
       ...           ...                  ...                  ...
        84        1.9966           -0.5157491             -14.0342
        85        1.9959           -0.5128261             -13.9547
        86        1.9840           -0.4911498             -13.3649
        87        1.9795           -0.4872543             -13.2589
        88        1.9640           -0.4782114             -13.0128
        89        1.8920           -0.4602041             -12.5228
        90        1.8557           -0.4553147             -12.3897 (HOMO)
        91        0.3166           -0.3884132             -10.5693 (LUMO)
        92        0.0218           -0.3434697              -9.3463
        93        0.0041           -0.3169887              -8.6257
        94        0.0034           -0.3139726              -8.5436
        95        0.0029           -0.3112618              -8.4699
       ...           ...                  ...                  ...
       171                          0.5822580              15.8440
      -------------------------------------------------------------
                  HL-Gap            0.0669015 Eh            1.8205 eV
             Fermi-level           -0.4148687 Eh          -11.2892 eV

 SCC (total)                   0 d,  0 h,  0 min,  0.191 sec
 SCC setup                      ...        0 min,  0.001 sec (  0.714%)
 Dispersion                     ...        0 min,  0.002 sec (  1.226%)
 classical contributions        ...        0 min,  0.001 sec (  0.322%)
 integral evaluation            ...        0 min,  0.019 sec (  9.793%)
 iterations                     ...        0 min,  0.098 sec ( 51.474%)
 molecular gradient             ...        0 min,  0.069 sec ( 36.150%)
 printout                       ...        0 min,  0.001 sec (  0.312%)

         :::::::::::::::::::::::::::::::::::::::::::::::::::::
         ::                     SUMMARY                     ::
         :::::::::::::::::::::::::::::::::::::::::::::::::::::
         :: total energy             -98.715979724690 Eh    ::
         :: gradient norm              0.530944274235 Eh/a0 ::
         :: HOMO-LUMO gap              1.820481192090 eV    ::
         ::.................................................::
         :: SCC energy              -100.791498925389 Eh    ::
         :: -> isotropic ES            0.109302908418 Eh    ::
         :: -> anisotropic ES          0.005415138735 Eh    ::
         :: -> anisotropic XC          0.042392697176 Eh    ::
         :: -> dispersion             -0.075527661009 Eh    ::
         :: repulsion energy           1.386151658689 Eh    ::
         :: add. restraining           0.688151189505 Eh    ::
         :: total charge               1.000000000108 e     ::
         :::::::::::::::::::::::::::::::::::::::::::::::::::::

      ----------------------------------------------------------- 
     |                   =====================                   |
     |                        A N C O P T                        |
     |                   =====================                   |
     |               Approximate Normal Coordinate               |
     |                Rational Function Optimizer                |
      ----------------------------------------------------------- 

          ...................................................
          :                      SETUP                      :
          :.................................................:
          :   optimization level             loose          :
          :   max. optcycles                   200          :
          :   ANC micro-cycles                  20          :
          :   degrees of freedom               210          :
          :.................................................:
          :   RF solver                   davidson          :
          :   write xtbopt.log                true          :
          :   linear?                        false          :
          :   energy convergence         0.5000000E-04 Eh   :
          :   grad. convergence          0.4000000E-02 Eh/α :
          :   maxmium RF displ.          1.0000000          :
          :   Hlow (freq-cutoff)         0.1000000E-01      :
          :   Hmax (freq-cutoff)         5.0000000          :
          :   S6 in model hess.         20.0000000          :
          ...................................................

generating ANC from model Hessian ...
Using Lindh-Hessian (1995)
 Shifting diagonal of input Hessian by   0.17674200237923701     
 Lowest  eigenvalues of input Hessian
    0.010000    0.108570    0.000000    0.000000    0.000000    0.000000
    0.000000    0.000000    0.176798    0.176876    0.176949    0.177017
    0.177101    0.177411    0.177577    0.177730    0.178042    0.178599
 Highest eigenvalues
    2.202707    2.212702    2.218323    2.349231    2.351241    2.360533


........................................................................
.............................. CYCLE    1 ..............................
........................................................................

 iter      E             dE          RMSdq      gap      omega  full diag
   1   -100.7914989 -0.100791E+03  0.114E-04    1.82       0.0  T
   2   -100.7914989 -0.678995E-10  0.713E-05    1.82     165.2  T
   3   -100.7914989  0.665210E-10  0.496E-05    1.82     237.5  T
     SCC iter.                  ...        0 min,  0.026 sec
     gradient                   ...        0 min,  0.068 sec
 * total energy  :   -98.7159797 Eh     change       -0.4035485E-08 Eh
   gradient norm :     0.5309437 Eh/α   predicted     0.0000000E+00 (-100.00%)
   displ. norm   :     0.4971569 α      lambda       -0.2484524E+00
   maximum displ.:     0.2927347 α      in ANC's #154, #153, #149, ...

........................................................................
.............................. CYCLE    2 ..............................
........................................................................

 iter      E             dE          RMSdq      gap      omega  full diag
   1   -100.7231112 -0.100723E+03  0.337E-01    1.57       0.0  T
   2   -100.7219562  0.115500E-02  0.310E-01    1.98       1.0  T
   3   -100.7268519 -0.489575E-02  0.165E-01    1.71       1.0  T
   4   -100.7269327 -0.807497E-04  0.516E-02    1.74       1.0  T
   5   -100.7271963 -0.263641E-03  0.211E-02    1.75       1.0  T
   6   -100.7272213 -0.249454E-04  0.521E-03    1.76       2.3  T
   7   -100.7272218 -0.508522E-06  0.395E-03    1.75       3.0  T
   8   -100.7272223 -0.525073E-06  0.108E-03    1.76      11.0  T
   9   -100.7272224 -0.112186E-06  0.331E-04    1.75      35.6  T
  10   -100.7272224 -0.323546E-08  0.149E-04    1.75      78.9  T
     SCC iter.                  ...        0 min,  0.082 sec
     gradient                   ...        0 min,  0.069 sec
 * total energy  :   -98.9171675 Eh     change       -0.2011877E+00 Eh
   gradient norm :     0.3336128 Eh/α   predicted    -0.1549325E+00 ( -22.99%)
   displ. norm   :     0.6236119 α      lambda       -0.2026487E+00
   maximum displ.:     0.3724376 α      in ANC's #154, #153, #152, ...

........................................................................
.............................. CYCLE    3 ..............................
........................................................................

 iter      E             dE          RMSdq      gap      omega  full diag
   1   -100.6398508 -0.100640E+03  0.600E-01    1.06       0.0  T
   2   -100.6194403  0.204104E-01  0.596E-01    1.96       1.0  T
   3   -100.6511047 -0.316644E-01  0.273E-01    1.33       1.0  T
   4   -100.6552575 -0.415281E-02  0.212E-01    1.41       1.0  T
   5   -100.6574180 -0.216044E-02  0.434E-02    1.40       1.0  T
   6   -100.6575990 -0.181020E-03  0.299E-02    1.46       1.0  T
   7   -100.6576669 -0.679281E-04  0.124E-02    1.44       1.0  T
   8   -100.6576689 -0.198689E-05  0.537E-03    1.44       2.2  T
   9   -100.6576719 -0.299478E-05  0.214E-03    1.44       5.5  T
  10   -100.6576720 -0.159320E-06  0.101E-03    1.44      11.6  T
  11   -100.6576721 -0.739958E-07  0.343E-04    1.44      34.4  T
  12   -100.6576721 -0.115861E-07  0.903E-05    1.44     130.5  T
     SCC iter.                  ...        0 min,  0.098 sec
     gradient                   ...        0 min,  0.070 sec
 * total energy  :   -99.0842313 Eh     change       -0.1670638E+00 Eh
   gradient norm :     0.2433315 Eh/α   predicted    -0.1407295E+00 ( -15.76%)
   displ. norm   :     0.7312116 α      lambda       -0.1691614E+00
   maximum displ.:     0.4372945 α      in ANC's #154, #153, #152, ...

........................................................................
.............................. CYCLE    4 ..............................
........................................................................

 iter      E             dE          RMSdq      gap      omega  full diag
   1   -100.6216591 -0.100622E+03  0.589E-01    0.76       0.0  T
   2   -100.6055990  0.160601E-01  0.551E-01    0.89       1.0  T
   3   -100.6256643 -0.200653E-01  0.348E-01    0.76       1.0  T
   4   -100.6254931  0.171136E-03  0.363E-01    1.10       1.0  T
   5   -100.6368895 -0.113964E-01  0.938E-02    0.83       1.0  T
   6   -100.6379032 -0.101368E-02  0.314E-02    0.91       1.0  T
   7   -100.6379885 -0.853021E-04  0.167E-02    0.89       1.0  T
   8   -100.6379922 -0.366890E-05  0.838E-03    0.89       1.4  T
   9   -100.6379976 -0.545432E-05  0.232E-03    0.89       5.1  T
  10   -100.6379978 -0.165693E-06  0.124E-03    0.89       9.5  T
  11   -100.6379979 -0.666477E-07  0.457E-04    0.89      25.8  T
  12   -100.6379979 -0.150746E-07  0.139E-04    0.89      84.6  T
     SCC iter.                  ...        0 min,  0.097 sec
     gradient                   ...        0 min,  0.069 sec
 * total energy  :   -99.1667230 Eh     change       -0.8249169E-01 Eh
   gradient norm :     0.3187220 Eh/α   predicted    -0.1298035E+00 (  57.35%)
   displ. norm   :     0.5079663 α      lambda       -0.1170448E+00
   maximum displ.:     0.3289179 α      in ANC's #1, #42, #113, ...

........................................................................
.............................. CYCLE    5 ..............................
........................................................................

 iter      E             dE          RMSdq      gap      omega  full diag
   1   -100.6141282 -0.100614E+03  0.273E-01    0.96       0.0  T
   2   -100.6089859  0.514238E-02  0.245E-01    0.77       1.0  T
   3   -100.6068305  0.215541E-02  0.273E-01    1.08       1.0  T
   4   -100.6149199 -0.808945E-02  0.110E-01    0.90       1.0  T
   5   -100.6158294 -0.909458E-03  0.216E-02    0.90       1.0  T
   6   -100.6158670 -0.376581E-04  0.103E-02    0.91       1.1  T
   7   -100.6158683 -0.130343E-05  0.650E-03    0.91       1.8  T
   8   -100.6158721 -0.382037E-05  0.195E-03    0.91       6.0  T
   9   -100.6158724 -0.279104E-06  0.103E-03    0.91      11.5  T
  10   -100.6158725 -0.691624E-07  0.427E-04    0.91      27.6  T
  11   -100.6158725 -0.917663E-08  0.137E-04    0.91      86.0  T
     SCC iter.                  ...        0 min,  0.089 sec
     gradient                   ...        0 min,  0.069 sec
 * total energy  :   -99.2163497 Eh     change       -0.4962666E-01 Eh
   gradient norm :     0.1694930 Eh/α   predicted    -0.7362298E-01 (  48.35%)
   displ. norm   :     0.4773541 α      lambda       -0.4017589E-01
   maximum displ.:     0.2391104 α      in ANC's #1, #154, #153, ...

........................................................................
.............................. CYCLE    6 ..............................
........................................................................

 iter      E             dE          RMSdq      gap      omega  full diag
   1   -100.5998309 -0.100600E+03  0.285E-01    0.98       0.0  T
   2   -100.5622034  0.376275E-01  0.548E-01    0.45       1.0  T
   3   -100.6009824 -0.387790E-01  0.198E-01    0.92       1.0  T
   4   -100.6037805 -0.279812E-02  0.112E-01    0.85       1.0  T
   5   -100.6046721 -0.891595E-03  0.131E-02    0.80       1.0  T
   6   -100.6046815 -0.934359E-05  0.785E-03    0.80       1.5  T
   7   -100.6046850 -0.356128E-05  0.386E-03    0.80       3.1  T
   8   -100.6046854 -0.415244E-06  0.195E-03    0.80       6.0  T
   9   -100.6046860 -0.557016E-06  0.469E-04    0.80      25.1  T
  10   -100.6046860 -0.884546E-08  0.253E-04    0.80      46.6  T
     SCC iter.                  ...        0 min,  0.082 sec
     gradient                   ...        0 min,  0.069 sec
 * total energy  :   -99.2473848 Eh     change       -0.3103520E-01 Eh
   gradient norm :     0.1578844 Eh/α   predicted    -0.2466534E-01 ( -20.52%)
   displ. norm   :     0.6374722 α      lambda       -0.5233245E-01
   maximum displ.:     0.2123213 α      in ANC's #1, #57, #154, ...

........................................................................
.............................. CYCLE    7 ..............................
........................................................................

 iter      E             dE          RMSdq      gap      omega  full diag
   1   -100.6042374 -0.100604E+03  0.671E-01    1.60       0.0  T
   2   -100.1989148  0.405323E+00  0.180E+00    0.41       1.0  T
   3   -100.6383248 -0.439410E+00  0.321E-01    1.16       1.0  T
   4   -100.6472636 -0.893881E-02  0.138E-01    0.92       1.0  T
   5   -100.6474242 -0.160581E-03  0.105E-01    0.80       1.0  T
   6   -100.6480473 -0.623096E-03  0.520E-02    0.86       1.0  T
   7   -100.6483144 -0.267147E-03  0.122E-02    0.88       1.0  T
   8   -100.6483237 -0.923834E-05  0.669E-03    0.88       1.8  T
   9   -100.6483281 -0.442767E-05  0.404E-03    0.89       2.9  T
  10   -100.6483291 -0.100713E-05  0.191E-03    0.89       6.2  T
  11   -100.6483295 -0.393010E-06  0.374E-04    0.89      31.5  T
  12   -100.6483295 -0.815187E-08  0.153E-04    0.89      77.3  T
     SCC iter.                  ...        0 min,  0.097 sec
     gradient                   ...        0 min,  0.069 sec
 * total energy  :   -99.2816737 Eh     change       -0.3428889E-01 Eh
   gradient norm :     0.0850827 Eh/α   predicted    -0.3679962E-01 (   7.32%)
   displ. norm   :     0.5202752 α      lambda       -0.2321442E-01
   maximum displ.:     0.3077377 α      in ANC's #1, #2, #193, ...

........................................................................
.............................. CYCLE    8 ..............................
........................................................................

 iter      E             dE          RMSdq      gap      omega  full diag
   1   -100.6432320 -0.100643E+03  0.489E-01    1.58       0.0  T
   2   -100.4184931  0.224739E+00  0.137E+00    0.22       1.0  T
   3   -100.6670829 -0.248590E+00  0.168E-01    1.15       1.0  T
   4   -100.6684231 -0.134013E-02  0.103E-01    0.97       1.0  T
   5   -100.6684585 -0.354622E-04  0.811E-02    0.93       1.0  T
   6   -100.6690295 -0.570938E-03  0.356E-02    0.98       1.0  T
   7   -100.6691845 -0.155028E-03  0.727E-03    1.01       1.6  T
   8   -100.6691863 -0.178363E-05  0.464E-03    1.01       2.5  T
   9   -100.6691884 -0.208285E-05  0.170E-03    1.01       6.9  T
  10   -100.6691886 -0.201023E-06  0.491E-04    1.02      24.0  T
  11   -100.6691886 -0.196457E-07  0.158E-04    1.02      74.6  T
     SCC iter.                  ...        0 min,  0.089 sec
     gradient                   ...        0 min,  0.069 sec
 * total energy  :   -99.2972720 Eh     change       -0.1559821E-01 Eh
   gradient norm :     0.0795720 Eh/α   predicted    -0.1474913E-01 (  -5.44%)
   displ. norm   :     0.3786829 α      lambda       -0.1549432E-01
   maximum displ.:     0.1337513 α      in ANC's #2, #1, #31, ...

........................................................................
.............................. CYCLE    9 ..............................
........................................................................

 iter      E             dE          RMSdq      gap      omega  full diag
   1   -100.6803134 -0.100680E+03  0.268E-01    1.40       0.0  T
   2   -100.6272463  0.530671E-01  0.680E-01    0.50       1.0  T
   3   -100.6873123 -0.600660E-01  0.872E-02    1.16       1.0  T
   4   -100.6871160  0.196337E-03  0.659E-02    1.08       1.0  T
   5   -100.6875158 -0.399860E-03  0.260E-02    1.09       1.0  T
   6   -100.6875808 -0.649875E-04  0.954E-03    1.11       1.2  T
   7   -100.6875907 -0.993634E-05  0.250E-03    1.12       4.7  T
   8   -100.6875908 -0.100076E-07  0.138E-03    1.12       8.5  T
   9   -100.6875909 -0.161323E-06  0.524E-04    1.12      22.5  T
  10   -100.6875909 -0.292992E-07  0.151E-04    1.12      78.1  T
     SCC iter.                  ...        0 min,  0.081 sec
     gradient                   ...        0 min,  0.069 sec
 * total energy  :   -99.3100303 Eh     change       -0.1275837E-01 Eh
   gradient norm :     0.0885425 Eh/α   predicted    -0.8858238E-02 ( -30.57%)
   displ. norm   :     0.5487432 α      lambda       -0.2123583E-01
   maximum displ.:     0.1914064 α      in ANC's #2, #1, #11, ...

........................................................................
.............................. CYCLE   10 ..............................
........................................................................

 iter      E             dE          RMSdq      gap      omega  full diag
   1   -100.6931206 -0.100693E+03  0.229E-01    1.28       0.0  T
   2   -100.6876747  0.544595E-02  0.269E-01    0.99       1.0  T
   3   -100.6929405 -0.526580E-02  0.151E-01    1.34       1.0  T
   4   -100.6939098 -0.969307E-03  0.753E-02    1.13       1.0  T
   5   -100.6946786 -0.768887E-03  0.186E-02    1.22       1.0  T
   6   -100.6947211 -0.424112E-04  0.695E-03    1.21       1.7  T
   7   -100.6947229 -0.181984E-05  0.225E-03    1.21       5.2  T
   8   -100.6947231 -0.191896E-06  0.727E-04    1.21      16.2  T
   9   -100.6947231 -0.274561E-07  0.375E-04    1.21      31.4  T
     SCC iter.                  ...        0 min,  0.073 sec
     gradient                   ...        0 min,  0.069 sec
 * total energy  :   -99.3240306 Eh     change       -0.1400022E-01 Eh
   gradient norm :     0.0559100 Eh/α   predicted    -0.1381517E-01 (  -1.32%)
   displ. norm   :     0.3669348 α      lambda       -0.8012393E-02
   maximum displ.:     0.1284479 α      in ANC's #11, #2, #31, ...

........................................................................
.............................. CYCLE   11 ..............................
........................................................................

 iter      E             dE          RMSdq      gap      omega  full diag
   1   -100.7026878 -0.100703E+03  0.135E-01    1.36       0.0  T
   2   -100.6964322  0.625558E-02  0.237E-01    1.02       1.0  T
   3   -100.7036864 -0.725418E-02  0.638E-02    1.31       1.0  T
   4   -100.7037511 -0.647546E-04  0.341E-02    1.24       1.0  T
   5   -100.7038956 -0.144455E-03  0.485E-03    1.26       2.4  T
   6   -100.7038965 -0.906941E-06  0.239E-03    1.26       4.9  T
   7   -100.7038966 -0.962742E-07  0.937E-04    1.26      12.6  T
   8   -100.7038966 -0.564253E-07  0.359E-04    1.26      32.8  T
     SCC iter.                  ...        0 min,  0.066 sec
     gradient                   ...        0 min,  0.069 sec
 * total energy  :   -99.3304546 Eh     change       -0.6424011E-02 Eh
   gradient norm :     0.0570883 Eh/α   predicted    -0.4545607E-02 ( -29.24%)
   displ. norm   :     0.5186712 α      lambda       -0.1229144E-01
   maximum displ.:     0.2047273 α      in ANC's #11, #2, #31, ...

........................................................................
.............................. CYCLE   12 ..............................
........................................................................

 iter      E             dE          RMSdq      gap      omega  full diag
   1   -100.7100992 -0.100710E+03  0.112E-01    1.28       0.0  T
   2   -100.7101320 -0.327863E-04  0.648E-02    1.29       1.0  T
   3   -100.7100613  0.706799E-04  0.389E-02    1.27       1.0  T
   4   -100.7101577 -0.963632E-04  0.557E-03    1.29       2.1  T
   5   -100.7101587 -0.104304E-05  0.320E-03    1.28       3.7  T
   6   -100.7101586  0.144038E-06  0.206E-03    1.28       5.7  T
   7   -100.7101586 -0.821530E-08  0.200E-03    1.29       5.9  T
   8   -100.7101591 -0.524676E-06  0.312E-04    1.28      37.8  T
   9   -100.7101591 -0.241775E-08  0.212E-04    1.29      55.6  T
     SCC iter.                  ...        0 min,  0.073 sec
     gradient                   ...        0 min,  0.069 sec
 * total energy  :   -99.3399725 Eh     change       -0.9517897E-02 Eh
   gradient norm :     0.0441487 Eh/α   predicted    -0.7799060E-02 ( -18.06%)
   displ. norm   :     0.5194991 α      lambda       -0.9431606E-02
   maximum displ.:     0.2327556 α      in ANC's #11, #10, #23, ...

........................................................................
.............................. CYCLE   13 ..............................
........................................................................

 iter      E             dE          RMSdq      gap      omega  full diag
   1   -100.7246700 -0.100725E+03  0.125E-01    1.40       0.0  T
   2   -100.7213467  0.332324E-02  0.180E-01    1.12       1.0  T
   3   -100.7251350 -0.378832E-02  0.718E-02    1.36       1.0  T
   4   -100.7253026 -0.167549E-03  0.357E-02    1.31       1.0  T
   5   -100.7254007 -0.980831E-04  0.497E-03    1.31       2.4  T
   6   -100.7254015 -0.826050E-06  0.242E-03    1.31       4.9  T
   7   -100.7254016 -0.813628E-07  0.889E-04    1.31      13.3  T
   8   -100.7254016 -0.670083E-07  0.349E-04    1.31      33.7  T
     SCC iter.                  ...        0 min,  0.064 sec
     gradient                   ...        0 min,  0.070 sec
 * total energy  :   -99.3466126 Eh     change       -0.6640119E-02 Eh
   gradient norm :     0.0391041 Eh/α   predicted    -0.5988516E-02 (  -9.81%)
   displ. norm   :     0.5591157 α      lambda       -0.6569807E-02
   maximum displ.:     0.2431209 α      in ANC's #11, #1, #10, ...

........................................................................
.............................. CYCLE   14 ..............................
........................................................................

 iter      E             dE          RMSdq      gap      omega  full diag
   1   -100.7241723 -0.100724E+03  0.128E-01    1.37       0.0  T
   2   -100.7229162  0.125611E-02  0.129E-01    1.20       1.0  T
   3   -100.7237428 -0.826568E-03  0.888E-02    1.41       1.0  T
   4   -100.7244131 -0.670371E-03  0.371E-02    1.31       1.0  T
   5   -100.7245317 -0.118601E-03  0.450E-03    1.32       2.6  T
   6   -100.7245322 -0.443595E-06  0.217E-03    1.32       5.4  T
   7   -100.7245323 -0.857552E-07  0.761E-04    1.32      15.5  T
   8   -100.7245323 -0.413310E-07  0.258E-04    1.32      45.7  T
     SCC iter.                  ...        0 min,  0.064 sec
     gradient                   ...        0 min,  0.069 sec
 * total energy  :   -99.3513763 Eh     change       -0.4763724E-02 Eh
   gradient norm :     0.0351097 Eh/α   predicted    -0.4311803E-02 (  -9.49%)
   displ. norm   :     0.4938550 α      lambda       -0.6056207E-02
   maximum displ.:     0.2552453 α      in ANC's #11, #10, #23, ...

........................................................................
.............................. CYCLE   15 ..............................
........................................................................

 iter      E             dE          RMSdq      gap      omega  full diag
   1   -100.7354732 -0.100735E+03  0.959E-02    1.34       0.0  T
   2   -100.7354038  0.693760E-04  0.682E-02    1.27       1.0  T
   3   -100.7348714  0.532422E-03  0.706E-02    1.40       1.0  T
   4   -100.7353786 -0.507191E-03  0.403E-02    1.28       1.0  T
   5   -100.7355558 -0.177240E-03  0.329E-03    1.31       3.6  T
   6   -100.7355561 -0.336353E-06  0.161E-03    1.31       7.3  T
   7   -100.7355562 -0.342256E-07  0.573E-04    1.31      20.6  T
   8   -100.7355562 -0.204298E-07  0.205E-04    1.31      57.5  T
     SCC iter.                  ...        0 min,  0.064 sec
     gradient                   ...        0 min,  0.069 sec
 * total energy  :   -99.3559438 Eh     change       -0.4567463E-02 Eh
   gradient norm :     0.0268113 Eh/α   predicted    -0.3766641E-02 ( -17.53%)
   displ. norm   :     0.4535869 α      lambda       -0.4845480E-02
   maximum displ.:     0.2476775 α      in ANC's #11, #10, #13, ...

........................................................................
.............................. CYCLE   16 ..............................
........................................................................

 iter      E             dE          RMSdq      gap      omega  full diag
   1   -100.7375291 -0.100738E+03  0.121E-01    1.22       0.0  T
   2   -100.7357045  0.182454E-02  0.132E-01    1.44       1.0  T
   3   -100.7372732 -0.156869E-02  0.871E-02    1.20       1.0  T
   4   -100.7379463 -0.673055E-03  0.108E-02    1.28       1.1  T
   5   -100.7379535 -0.721227E-05  0.303E-03    1.28       3.9  T
   6   -100.7379539 -0.360201E-06  0.165E-03    1.28       7.1  T
   7   -100.7379539 -0.649227E-07  0.504E-04    1.28      23.4  T
   8   -100.7379539 -0.138302E-07  0.193E-04    1.28      61.2  T
     SCC iter.                  ...        0 min,  0.065 sec
     gradient                   ...        0 min,  0.069 sec
 * total energy  :   -99.3596394 Eh     change       -0.3695629E-02 Eh
   gradient norm :     0.0231389 Eh/α   predicted    -0.2921203E-02 ( -20.96%)
   displ. norm   :     0.4245805 α      lambda       -0.4046138E-02
   maximum displ.:     0.2492276 α      in ANC's #11, #10, #13, ...

........................................................................
.............................. CYCLE   17 ..............................
........................................................................

 iter      E             dE          RMSdq      gap      omega  full diag
   1   -100.7388677 -0.100739E+03  0.101E-01    1.20       0.0  T
   2   -100.7377316  0.113615E-02  0.104E-01    1.38       1.0  T
   3   -100.7385325 -0.800868E-03  0.795E-02    1.18       1.0  T
   4   -100.7391230 -0.590567E-03  0.838E-03    1.25       1.4  T
   5   -100.7391281 -0.510243E-05  0.251E-03    1.26       4.7  T
   6   -100.7391284 -0.226963E-06  0.134E-03    1.25       8.8  T
   7   -100.7391284 -0.806092E-07  0.557E-04    1.26      21.2  T
   8   -100.7391285 -0.273912E-07  0.176E-04    1.25      67.1  T
     SCC iter.                  ...        0 min,  0.065 sec
     gradient                   ...        0 min,  0.069 sec
 * total energy  :   -99.3627324 Eh     change       -0.3093015E-02 Eh
   gradient norm :     0.0262346 Eh/α   predicted    -0.2387769E-02 ( -22.80%)
   displ. norm   :     0.4279974 α      lambda       -0.3707018E-02
   maximum displ.:     0.2589256 α      in ANC's #11, #10, #13, ...

........................................................................
.............................. CYCLE   18 ..............................
........................................................................

 iter      E             dE          RMSdq      gap      omega  full diag
   1   -100.7352693 -0.100735E+03  0.110E-01    1.15       0.0  T
   2   -100.7328214  0.244790E-02  0.147E-01    1.41       1.0  T
   3   -100.7355233 -0.270189E-02  0.659E-02    1.18       1.0  T
   4   -100.7358106 -0.287291E-03  0.222E-02    1.22       1.0  T
   5   -100.7358418 -0.312312E-04  0.295E-03    1.23       4.0  T
   6   -100.7358422 -0.338278E-06  0.158E-03    1.23       7.5  T
   7   -100.7358422 -0.391632E-07  0.664E-04    1.23      17.8  T
   8   -100.7358423 -0.323505E-07  0.218E-04    1.23      54.2  T
     SCC iter.                  ...        0 min,  0.065 sec
     gradient                   ...        0 min,  0.069 sec
 * total energy  :   -99.3656141 Eh     change       -0.2881664E-02 Eh
   gradient norm :     0.0265933 Eh/α   predicted    -0.2193043E-02 ( -23.90%)
   displ. norm   :     0.4379398 α      lambda       -0.3696608E-02
   maximum displ.:     0.2717633 α      in ANC's #11, #10, #34, ...

........................................................................
.............................. CYCLE   19 ..............................
........................................................................

 iter      E             dE          RMSdq      gap      omega  full diag
   1   -100.7336214 -0.100734E+03  0.829E-02    1.21       0.0  T
   2   -100.7335756  0.457367E-04  0.505E-02    1.25       1.0  T
   3   -100.7326119  0.963747E-03  0.876E-02    1.13       1.0  T
   4   -100.7336371 -0.102517E-02  0.104E-02    1.23       1.1  T
   5   -100.7336462 -0.913726E-05  0.346E-03    1.22       3.4  T
   6   -100.7336471 -0.886485E-06  0.133E-03    1.22       8.9  T
   7   -100.7336471  0.533966E-08  0.610E-04    1.22      19.3  T
   8   -100.7336471 -0.382025E-07  0.183E-04    1.22      64.5  T
     SCC iter.                  ...        0 min,  0.065 sec
     gradient                   ...        0 min,  0.069 sec
 * total energy  :   -99.3684269 Eh     change       -0.2812864E-02 Eh
   gradient norm :     0.0266101 Eh/α   predicted    -0.2202803E-02 ( -21.69%)
   displ. norm   :     0.4130172 α      lambda       -0.3150080E-02
   maximum displ.:     0.2589975 α      in ANC's #11, #10, #34, ...

........................................................................
.............................. CYCLE   20 ..............................
........................................................................

 iter      E             dE          RMSdq      gap      omega  full diag
   1   -100.7307573 -0.100731E+03  0.799E-02    1.21       0.0  T
   2   -100.7306899  0.673718E-04  0.552E-02    1.26       1.0  T
   3   -100.7303397  0.350171E-03  0.646E-02    1.16       1.0  T
   4   -100.7306893 -0.349579E-03  0.335E-02    1.26       1.0  T
   5   -100.7308282 -0.138860E-03  0.289E-03    1.22       4.1  T
   6   -100.7308286 -0.399129E-06  0.139E-03    1.22       8.5  T
   7   -100.7308286  0.965954E-09  0.808E-04    1.22      14.6  T
   8   -100.7308286 -0.555158E-07  0.200E-04    1.22      58.8  T
     SCC iter.                  ...        0 min,  0.065 sec
     gradient                   ...        0 min,  0.069 sec
 * total energy  :   -99.3707826 Eh     change       -0.2355702E-02 Eh
   gradient norm :     0.0229015 Eh/α   predicted    -0.1843723E-02 ( -21.73%)
   displ. norm   :     0.3747771 α      lambda       -0.2531633E-02
   maximum displ.:     0.2393967 α      in ANC's #11, #10, #34, ...
 * RMSD in coord.:     0.7546008 α      energy gain  -0.6548029E+00 Eh

generating ANC from model Hessian ...
Using Lindh-Hessian (1995)
 Shifting diagonal of input Hessian by    1.0011880058681326E-002
 Lowest  eigenvalues of input Hessian
    0.010000    0.000000    0.000000    0.000000    0.000000    0.000000
    0.000000    0.010053    0.010152    0.010220    0.010329    0.010620
    0.010653    0.010774    0.011049    0.011485    0.011715    0.012418
 Highest eigenvalues
    1.939825    2.037856    2.043976    2.172145    2.194445    2.270396


........................................................................
.............................. CYCLE   21 ..............................
........................................................................

 iter      E             dE          RMSdq      gap      omega  full diag
   1   -100.7340656 -0.100734E+03  0.890E-02    1.32       0.0  T
   2   -100.7319265  0.213909E-02  0.137E-01    1.09       1.0  T
   3   -100.7343736 -0.244708E-02  0.459E-02    1.28       1.0  T
   4   -100.7344736 -0.100041E-03  0.157E-02    1.25       1.0  T
   5   -100.7344957 -0.220645E-04  0.341E-03    1.25       3.5  T
   6   -100.7344969 -0.119116E-05  0.141E-03    1.25       8.4  T
   7   -100.7344969 -0.592110E-07  0.601E-04    1.25      19.6  T
   8   -100.7344970 -0.116333E-07  0.182E-04    1.25      64.7  T
     SCC iter.                  ...        0 min,  0.065 sec
     gradient                   ...        0 min,  0.069 sec
 * total energy  :   -99.3726617 Eh     change       -0.1879064E-02 Eh
   gradient norm :     0.0202144 Eh/α   predicted     0.0000000E+00 (-100.00%)
   displ. norm   :     0.4075148 α      lambda       -0.4026580E-02
   maximum displ.:     0.1521253 α      in ANC's #11, #10, #9, ...

........................................................................
.............................. CYCLE   22 ..............................
........................................................................

 iter      E             dE          RMSdq      gap      omega  full diag
   1   -100.7435866 -0.100744E+03  0.757E-02    1.26       0.0  T
   2   -100.7435245  0.621121E-04  0.497E-02    1.22       1.0  T
   3   -100.7427879  0.736574E-03  0.786E-02    1.34       1.0  T
   4   -100.7436015 -0.813575E-03  0.852E-03    1.25       1.4  T
   5   -100.7436087 -0.722278E-05  0.255E-03    1.25       4.6  T
   6   -100.7436091 -0.393586E-06  0.103E-03    1.25      11.4  T
   7   -100.7436091 -0.120869E-07  0.481E-04    1.25      24.5  T
   8   -100.7436092 -0.209374E-07  0.140E-04    1.25      83.9  T
     SCC iter.                  ...        0 min,  0.065 sec
     gradient                   ...        0 min,  0.070 sec
 * total energy  :   -99.3759426 Eh     change       -0.3280881E-02 Eh
   gradient norm :     0.0108041 Eh/α   predicted    -0.2347650E-02 ( -28.44%)
   displ. norm   :     0.6624206 α      lambda       -0.4189065E-02
   maximum displ.:     0.2610585 α      in ANC's #9, #11, #10, ...

........................................................................
.............................. CYCLE   23 ..............................
........................................................................

 iter      E             dE          RMSdq      gap      omega  full diag
   1   -100.7511016 -0.100751E+03  0.103E-01    1.31       0.0  T
   2   -100.7501214  0.980195E-03  0.104E-01    1.16       1.0  T
   3   -100.7506949 -0.573533E-03  0.790E-02    1.34       1.0  T
   4   -100.7512983 -0.603340E-03  0.665E-03    1.27       1.8  T
   5   -100.7513013 -0.306700E-05  0.245E-03    1.26       4.8  T
   6   -100.7513015 -0.190359E-06  0.124E-03    1.26       9.5  T
   7   -100.7513015 -0.230486E-08  0.510E-04    1.26      23.1  T
   8   -100.7513015 -0.298674E-07  0.170E-04    1.26      69.5  T
     SCC iter.                  ...        0 min,  0.065 sec
     gradient                   ...        0 min,  0.071 sec
 * total energy  :   -99.3792808 Eh     change       -0.3338201E-02 Eh
   gradient norm :     0.0098441 Eh/α   predicted    -0.3013896E-02 (  -9.71%)
   displ. norm   :     0.6888801 α      lambda       -0.2969631E-02
   maximum displ.:     0.2948375 α      in ANC's #9, #11, #10, ...

........................................................................
.............................. CYCLE   24 ..............................
........................................................................

 iter      E             dE          RMSdq      gap      omega  full diag
   1   -100.7536019 -0.100754E+03  0.104E-01    1.33       0.0  T
   2   -100.7523077  0.129424E-02  0.116E-01    1.16       1.0  T
   3   -100.7534140 -0.110633E-02  0.715E-02    1.35       1.0  T
   4   -100.7538589 -0.444872E-03  0.810E-03    1.28       1.5  T
   5   -100.7538636 -0.469920E-05  0.256E-03    1.28       4.6  T
   6   -100.7538638 -0.182175E-06  0.134E-03    1.28       8.8  T
   7   -100.7538638 -0.299966E-07  0.537E-04    1.28      22.0  T
   8   -100.7538638 -0.207592E-07  0.193E-04    1.28      61.0  T
     SCC iter.                  ...        0 min,  0.065 sec
     gradient                   ...        0 min,  0.069 sec
 * total energy  :   -99.3816931 Eh     change       -0.2412320E-02 Eh
   gradient norm :     0.0134311 Eh/α   predicted    -0.2189443E-02 (  -9.24%)
   displ. norm   :     0.6474127 α      lambda       -0.2233814E-02
   maximum displ.:     0.2927366 α      in ANC's #9, #11, #10, ...

........................................................................
.............................. CYCLE   25 ..............................
........................................................................

 iter      E             dE          RMSdq      gap      omega  full diag
   1   -100.7558781 -0.100756E+03  0.989E-02    1.34       0.0  T
   2   -100.7548432  0.103491E-02  0.106E-01    1.18       1.0  T
   3   -100.7556575 -0.814347E-03  0.691E-02    1.36       1.0  T
   4   -100.7560908 -0.433313E-03  0.769E-03    1.29       1.5  T
   5   -100.7560947 -0.384835E-05  0.238E-03    1.29       5.0  T
   6   -100.7560948 -0.130575E-06  0.125E-03    1.29       9.4  T
   7   -100.7560948 -0.249309E-07  0.484E-04    1.29      24.3  T
   8   -100.7560948 -0.164831E-07  0.179E-04    1.29      65.9  T
     SCC iter.                  ...        0 min,  0.065 sec
     gradient                   ...        0 min,  0.072 sec
 * total energy  :   -99.3834500 Eh     change       -0.1756925E-02 Eh
   gradient norm :     0.0131275 Eh/α   predicted    -0.1585053E-02 (  -9.78%)
   displ. norm   :     0.5450424 α      lambda       -0.1569493E-02
   maximum displ.:     0.2694741 α      in ANC's #9, #11, #12, ...

........................................................................
.............................. CYCLE   26 ..............................
........................................................................

 iter      E             dE          RMSdq      gap      omega  full diag
   1   -100.7598017 -0.100760E+03  0.865E-02    1.33       0.0  T
   2   -100.7594042  0.397474E-03  0.745E-02    1.23       1.0  T
   3   -100.7592992  0.105021E-03  0.729E-02    1.38       1.0  T
   4   -100.7598914 -0.592239E-03  0.926E-03    1.31       1.3  T
   5   -100.7598993 -0.787279E-05  0.239E-03    1.30       4.9  T
   6   -100.7598995 -0.199176E-06  0.124E-03    1.30       9.5  T
   7   -100.7598995 -0.511311E-07  0.537E-04    1.30      21.9  T
   8   -100.7598996 -0.229645E-07  0.159E-04    1.30      74.1  T
     SCC iter.                  ...        0 min,  0.065 sec
     gradient                   ...        0 min,  0.069 sec
 * total energy  :   -99.3846395 Eh     change       -0.1189432E-02 Eh
   gradient norm :     0.0092555 Eh/α   predicted    -0.1017873E-02 ( -14.42%)
   displ. norm   :     0.4677721 α      lambda       -0.9718701E-03
   maximum displ.:     0.2482438 α      in ANC's #9, #11, #12, ...

........................................................................
.............................. CYCLE   27 ..............................
........................................................................

 iter      E             dE          RMSdq      gap      omega  full diag
   1   -100.7622099 -0.100762E+03  0.795E-02    1.32       0.0  T
   2   -100.7621711  0.388404E-04  0.505E-02    1.28       1.0  T
   3   -100.7615256  0.645535E-03  0.716E-02    1.40       1.0  T
   4   -100.7622069 -0.681380E-03  0.172E-02    1.30       1.0  T
   5   -100.7622413 -0.343409E-04  0.243E-03    1.31       4.9  T
   6   -100.7622415 -0.213015E-06  0.126E-03    1.31       9.4  T
   7   -100.7622415 -0.467448E-07  0.388E-04    1.31      30.4  T
   8   -100.7622415 -0.965036E-08  0.137E-04    1.31      85.9  T
     SCC iter.                  ...        0 min,  0.065 sec
     gradient                   ...        0 min,  0.068 sec
 * total energy  :   -99.3853647 Eh     change       -0.7252067E-03 Eh
   gradient norm :     0.0076386 Eh/α   predicted    -0.5922693E-03 ( -18.33%)
   displ. norm   :     0.4017554 α      lambda       -0.6246420E-03
   maximum displ.:     0.2185637 α      in ANC's #9, #11, #12, ...

........................................................................
.............................. CYCLE   28 ..............................
........................................................................

 iter      E             dE          RMSdq      gap      omega  full diag
   1   -100.7646086 -0.100765E+03  0.744E-02    1.32       0.0  T
   2   -100.7646161 -0.745896E-05  0.441E-02    1.31       1.0  T
   3   -100.7645553  0.608023E-04  0.261E-02    1.33       1.0  T
   4   -100.7646162 -0.609474E-04  0.941E-03    1.30       1.3  T
   5   -100.7646277 -0.114492E-04  0.346E-03    1.32       3.4  T
   6   -100.7646288 -0.111829E-05  0.129E-03    1.31       9.1  T
   7   -100.7646289 -0.659821E-07  0.332E-04    1.31      35.5  T
   8   -100.7646289 -0.580131E-08  0.134E-04    1.31      87.9  T
     SCC iter.                  ...        0 min,  0.065 sec
     gradient                   ...        0 min,  0.069 sec
 * total energy  :   -99.3858182 Eh     change       -0.4534812E-03 Eh
   gradient norm :     0.0064652 Eh/α   predicted    -0.3627325E-03 ( -20.01%)
   displ. norm   :     0.4155963 α      lambda       -0.4367720E-03
   maximum displ.:     0.2186535 α      in ANC's #9, #12, #11, ...

........................................................................
.............................. CYCLE   29 ..............................
........................................................................

 iter      E             dE          RMSdq      gap      omega  full diag
   1   -100.7628213 -0.100763E+03  0.765E-02    1.31       0.0  T
   2   -100.7628267 -0.547215E-05  0.446E-02    1.32       1.0  T
   3   -100.7627559  0.708670E-04  0.271E-02    1.30       1.0  T
   4   -100.7628166 -0.607069E-04  0.115E-02    1.33       1.0  T
   5   -100.7628338 -0.172234E-04  0.347E-03    1.31       3.4  T
   6   -100.7628351 -0.130571E-05  0.120E-03    1.32       9.8  T
   7   -100.7628352 -0.540482E-07  0.480E-04    1.31      24.5  T
   8   -100.7628352 -0.147998E-07  0.123E-04    1.31      95.9  T
     SCC iter.                  ...        0 min,  0.065 sec
     gradient                   ...        0 min,  0.069 sec
 * total energy  :   -99.3860888 Eh     change       -0.2706320E-03 Eh
   gradient norm :     0.0086037 Eh/α   predicted    -0.2561059E-03 (  -5.37%)
   displ. norm   :     0.3269889 α      lambda       -0.4288835E-03
   maximum displ.:     0.1440136 α      in ANC's #9, #8, #5, ...

........................................................................
.............................. CYCLE   30 ..............................
........................................................................

 iter      E             dE          RMSdq      gap      omega  full diag
   1   -100.7671876 -0.100767E+03  0.640E-02    1.31       0.0  T
   2   -100.7671904 -0.286680E-05  0.387E-02    1.32       1.0  T
   3   -100.7670826  0.107871E-03  0.325E-02    1.29       1.0  T
   4   -100.7671565 -0.739239E-04  0.174E-02    1.33       1.0  T
   5   -100.7672020 -0.454768E-04  0.244E-03    1.31       4.8  T
   6   -100.7672024 -0.408960E-06  0.119E-03    1.31       9.9  T
   7   -100.7672024 -0.498131E-07  0.406E-04    1.31      29.0  T
   8   -100.7672024 -0.599030E-08  0.136E-04    1.31      86.6  T
     SCC iter.                  ...        0 min,  0.065 sec
     gradient                   ...        0 min,  0.068 sec
 * total energy  :   -99.3863179 Eh     change       -0.2290987E-03 Eh
   gradient norm :     0.0061487 Eh/α   predicted    -0.2373729E-03 (   3.61%)
   displ. norm   :     0.2454989 α      lambda       -0.2023663E-03
   maximum displ.:     0.0983185 α      in ANC's #9, #6, #12, ...

........................................................................
.............................. CYCLE   31 ..............................
........................................................................

 iter      E             dE          RMSdq      gap      omega  full diag
   1   -100.7651456 -0.100765E+03  0.424E-02    1.31       0.0  T
   2   -100.7651472 -0.158421E-05  0.249E-02    1.31       1.0  T
   3   -100.7651423  0.484190E-05  0.771E-03    1.32       1.5  T
   4   -100.7651438 -0.143568E-05  0.533E-03    1.31       2.2  T
   5   -100.7651476 -0.377496E-05  0.153E-03    1.31       7.7  T
   6   -100.7651478 -0.229959E-06  0.530E-04    1.31      22.2  T
   7   -100.7651478 -0.567682E-08  0.182E-04    1.31      64.6  T
     SCC iter.                  ...        0 min,  0.057 sec
     gradient                   ...        0 min,  0.069 sec
 * total energy  :   -99.3864661 Eh     change       -0.1481884E-03 Eh
   gradient norm :     0.0050452 Eh/α   predicted    -0.1072818E-03 ( -27.60%)
   displ. norm   :     0.3172644 α      lambda       -0.2978808E-03
   maximum displ.:     0.1539402 α      in ANC's #6, #5, #12, ...

........................................................................
.............................. CYCLE   32 ..............................
........................................................................

 iter      E             dE          RMSdq      gap      omega  full diag
   1   -100.7664898 -0.100766E+03  0.487E-02    1.34       0.0  T
   2   -100.7663391  0.150741E-03  0.451E-02    1.27       1.0  T
   3   -100.7663788 -0.397114E-04  0.377E-02    1.35       1.0  T
   4   -100.7665211 -0.142278E-03  0.859E-03    1.32       1.4  T
   5   -100.7665268 -0.573152E-05  0.124E-03    1.32       9.5  T
   6   -100.7665268 -0.303403E-07  0.695E-04    1.32      17.0  T
   7   -100.7665269 -0.110913E-07  0.338E-04    1.32      34.9  T
     SCC iter.                  ...        0 min,  0.057 sec
     gradient                   ...        0 min,  0.069 sec
 * total energy  :   -99.3866587 Eh     change       -0.1926230E-03 Eh
   gradient norm :     0.0064283 Eh/α   predicted    -0.1639324E-03 ( -14.89%)
   displ. norm   :     0.2580255 α      lambda       -0.2137508E-03
   maximum displ.:     0.1406811 α      in ANC's #6, #5, #11, ...

........................................................................
.............................. CYCLE   33 ..............................
........................................................................

 iter      E             dE          RMSdq      gap      omega  full diag
   1   -100.7664415 -0.100766E+03  0.375E-02    1.32       0.0  T
   2   -100.7664369  0.458428E-05  0.236E-02    1.31       1.0  T
   3   -100.7663361  0.100816E-03  0.304E-02    1.35       1.0  T
   4   -100.7664330 -0.968777E-04  0.101E-02    1.30       1.2  T
   5   -100.7664486 -0.156455E-04  0.148E-03    1.32       8.0  T
   6   -100.7664488 -0.195075E-06  0.609E-04    1.32      19.4  T
   7   -100.7664488 -0.974950E-08  0.276E-04    1.32      42.7  T
     SCC iter.                  ...        0 min,  0.057 sec
     gradient                   ...        0 min,  0.070 sec
 * total energy  :   -99.3867974 Eh     change       -0.1386860E-03 Eh
   gradient norm :     0.0068457 Eh/α   predicted    -0.1139935E-03 ( -17.80%)
   displ. norm   :     0.2553062 α      lambda       -0.1678749E-03
   maximum displ.:     0.1258176 α      in ANC's #6, #5, #4, ...

........................................................................
.............................. CYCLE   34 ..............................
........................................................................

 iter      E             dE          RMSdq      gap      omega  full diag
   1   -100.7661307 -0.100766E+03  0.376E-02    1.33       0.0  T
   2   -100.7660630  0.677125E-04  0.320E-02    1.29       1.0  T
   3   -100.7660349  0.280355E-04  0.317E-02    1.35       1.0  T
   4   -100.7661441 -0.109167E-03  0.614E-03    1.32       1.9  T
   5   -100.7661477 -0.356894E-05  0.818E-04    1.32      14.4  T
   6   -100.7661477 -0.191514E-07  0.459E-04    1.32      25.7  T
   7   -100.7661477 -0.835959E-08  0.209E-04    1.32      56.5  T
     SCC iter.                  ...        0 min,  0.057 sec
     gradient                   ...        0 min,  0.069 sec
 * total energy  :   -99.3869294 Eh     change       -0.1320675E-03 Eh
   gradient norm :     0.0052535 Eh/α   predicted    -0.8940952E-04 ( -32.30%)
   displ. norm   :     0.3311066 α      lambda       -0.2346583E-03
   maximum displ.:     0.1571667 α      in ANC's #6, #5, #4, ...

........................................................................
.............................. CYCLE   35 ..............................
........................................................................

 iter      E             dE          RMSdq      gap      omega  full diag
   1   -100.7667039 -0.100767E+03  0.479E-02    1.33       0.0  T
   2   -100.7666738  0.300191E-04  0.326E-02    1.30       1.0  T
   3   -100.7664039  0.269970E-03  0.480E-02    1.38       1.0  T
   4   -100.7667094 -0.305547E-03  0.568E-03    1.32       2.1  T
   5   -100.7667134 -0.394393E-05  0.114E-03    1.32      10.3  T
   6   -100.7667134 -0.844100E-07  0.512E-04    1.32      23.0  T
   7   -100.7667134 -0.376278E-08  0.210E-04    1.32      56.0  T
     SCC iter.                  ...        0 min,  0.057 sec
     gradient                   ...        0 min,  0.069 sec
 * total energy  :   -99.3870998 Eh     change       -0.1703543E-03 Eh
   gradient norm :     0.0041148 Eh/α   predicted    -0.1301930E-03 ( -23.58%)
   displ. norm   :     0.3323104 α      lambda       -0.1684803E-03
   maximum displ.:     0.1574927 α      in ANC's #5, #6, #4, ...

........................................................................
.............................. CYCLE   36 ..............................
........................................................................

 iter      E             dE          RMSdq      gap      omega  full diag
   1   -100.7658023 -0.100766E+03  0.482E-02    1.33       0.0  T
   2   -100.7657838  0.184972E-04  0.316E-02    1.31       1.0  T
   3   -100.7654630  0.320801E-03  0.489E-02    1.38       1.0  T
   4   -100.7658072 -0.344194E-03  0.335E-03    1.32       3.5  T
   5   -100.7658081 -0.863846E-06  0.102E-03    1.32      11.5  T
   6   -100.7658081 -0.230632E-07  0.558E-04    1.32      21.1  T
   7   -100.7658081 -0.170401E-07  0.195E-04    1.32      60.3  T
     SCC iter.                  ...        0 min,  0.057 sec
     gradient                   ...        0 min,  0.069 sec
 * total energy  :   -99.3872225 Eh     change       -0.1227094E-03 Eh
   gradient norm :     0.0056275 Eh/α   predicted    -0.9354540E-04 ( -23.77%)
   displ. norm   :     0.2878702 α      lambda       -0.1674870E-03
   maximum displ.:     0.1450669 α      in ANC's #5, #6, #4, ...

........................................................................
.............................. CYCLE   37 ..............................
........................................................................

 iter      E             dE          RMSdq      gap      omega  full diag
   1   -100.7687617 -0.100769E+03  0.437E-02    1.32       0.0  T
   2   -100.7687582  0.349262E-05  0.268E-02    1.31       1.0  T
   3   -100.7685903  0.167969E-03  0.343E-02    1.36       1.0  T
   4   -100.7687630 -0.172672E-03  0.372E-03    1.32       3.2  T
   5   -100.7687642 -0.124880E-05  0.969E-04    1.32      12.2  T
   6   -100.7687642 -0.316732E-07  0.519E-04    1.32      22.7  T
   7   -100.7687642 -0.970725E-08  0.218E-04    1.32      54.0  T
     SCC iter.                  ...        0 min,  0.057 sec
     gradient                   ...        0 min,  0.069 sec
 * total energy  :   -99.3873324 Eh     change       -0.1098587E-03 Eh
   gradient norm :     0.0055024 Eh/α   predicted    -0.9068646E-04 ( -17.45%)
   displ. norm   :     0.4005729 α      lambda       -0.1544025E-03
   maximum displ.:     0.2078484 α      in ANC's #5, #6, #3, ...

........................................................................
.............................. CYCLE   38 ..............................
........................................................................

 iter      E             dE          RMSdq      gap      omega  full diag
   1   -100.7653134 -0.100765E+03  0.656E-02    1.31       0.0  T
   2   -100.7652824  0.309824E-04  0.406E-02    1.34       1.0  T
   3   -100.7646881  0.594352E-03  0.672E-02    1.24       1.0  T
   4   -100.7653214 -0.633308E-03  0.752E-03    1.32       1.6  T
   5   -100.7653261 -0.470142E-05  0.156E-03    1.32       7.6  T
   6   -100.7653261 -0.507043E-07  0.788E-04    1.32      15.0  T
   7   -100.7653261 -0.679690E-08  0.324E-04    1.32      36.4  T
     SCC iter.                  ...        0 min,  0.057 sec
     gradient                   ...        0 min,  0.069 sec
 * total energy  :   -99.3874160 Eh     change       -0.8360061E-04 Eh
   gradient norm :     0.0074142 Eh/α   predicted    -0.8959857E-04 (   7.17%)
   displ. norm   :     0.1700158 α      lambda       -0.1540845E-03
   maximum displ.:     0.0971949 α      in ANC's #5, #3, #6, ...

........................................................................
.............................. CYCLE   39 ..............................
........................................................................

 iter      E             dE          RMSdq      gap      omega  full diag
   1   -100.7685451 -0.100769E+03  0.317E-02    1.32       0.0  T
   2   -100.7685375  0.756796E-05  0.210E-02    1.30       1.0  T
   3   -100.7684051  0.132406E-03  0.308E-02    1.36       1.0  T
   4   -100.7685469 -0.141791E-03  0.499E-03    1.31       2.4  T
   5   -100.7685488 -0.190543E-05  0.802E-04    1.32      14.7  T
   6   -100.7685488 -0.115004E-07  0.414E-04    1.32      28.5  T
   7   -100.7685488 -0.236622E-08  0.198E-04    1.32      59.5  T
     SCC iter.                  ...        0 min,  0.057 sec
     gradient                   ...        0 min,  0.069 sec
 * total energy  :   -99.3875155 Eh     change       -0.9952069E-04 Eh
   gradient norm :     0.0042032 Eh/α   predicted    -0.7927072E-04 ( -20.35%)
   displ. norm   :     0.2408065 α      lambda       -0.1105446E-03
   maximum displ.:     0.1442641 α      in ANC's #5, #6, #3, ...

........................................................................
.............................. CYCLE   40 ..............................
........................................................................

 iter      E             dE          RMSdq      gap      omega  full diag
   1   -100.7693456 -0.100769E+03  0.396E-02    1.31       0.0  T
   2   -100.7693451  0.491204E-06  0.232E-02    1.32       1.0  T
   3   -100.7692873  0.578016E-04  0.201E-02    1.29       1.0  T
   4   -100.7693459 -0.586122E-04  0.292E-03    1.32       4.0  T
   5   -100.7693468 -0.870772E-06  0.746E-04    1.31      15.8  T
   6   -100.7693468 -0.465388E-08  0.280E-04    1.31      42.0  T
     SCC iter.                  ...        0 min,  0.049 sec
     gradient                   ...        0 min,  0.069 sec
 * total energy  :   -99.3875928 Eh     change       -0.7731934E-04 Eh
   gradient norm :     0.0043040 Eh/α   predicted    -0.5848004E-04 ( -24.37%)
   displ. norm   :     0.2915655 α      lambda       -0.1155239E-03
   maximum displ.:     0.1769311 α      in ANC's #5, #6, #3, ...

........................................................................
.............................. CYCLE   41 ..............................
........................................................................

 iter      E             dE          RMSdq      gap      omega  full diag
   1   -100.7688726 -0.100769E+03  0.499E-02    1.30       0.0  T
   2   -100.7688280  0.445221E-04  0.341E-02    1.33       1.0  T
   3   -100.7685325  0.295554E-03  0.514E-02    1.25       1.0  T
   4   -100.7688822 -0.349764E-03  0.606E-03    1.31       1.9  T
   5   -100.7688855 -0.325602E-05  0.110E-03    1.31      10.7  T
   6   -100.7688855 -0.255470E-07  0.599E-04    1.31      19.7  T
   7   -100.7688855 -0.115559E-07  0.224E-04    1.31      52.5  T
     SCC iter.                  ...        0 min,  0.057 sec
     gradient                   ...        0 min,  0.069 sec
 * total energy  :   -99.3876694 Eh     change       -0.7658604E-04 Eh
   gradient norm :     0.0051131 Eh/α   predicted    -0.6267263E-04 ( -18.17%)
   displ. norm   :     0.2581560 α      lambda       -0.1077388E-03
   maximum displ.:     0.1564172 α      in ANC's #5, #6, #3, ...

........................................................................
.............................. CYCLE   42 ..............................
........................................................................

 iter      E             dE          RMSdq      gap      omega  full diag
   1   -100.7687415 -0.100769E+03  0.387E-02    1.32       0.0  T
   2   -100.7687239  0.175995E-04  0.265E-02    1.29       1.0  T
   3   -100.7685323  0.191621E-03  0.387E-02    1.36       1.0  T
   4   -100.7687455 -0.213190E-03  0.485E-03    1.31       2.4  T
   5   -100.7687473 -0.185151E-05  0.791E-04    1.31      14.9  T
   6   -100.7687473 -0.697941E-08  0.442E-04    1.31      26.6  T
   7   -100.7687473 -0.483386E-08  0.173E-04    1.31      68.2  T
     SCC iter.                  ...        0 min,  0.057 sec
     gradient                   ...        0 min,  0.069 sec
 * total energy  :   -99.3877335 Eh     change       -0.6409869E-04 Eh
   gradient norm :     0.0048811 Eh/α   predicted    -0.5746171E-04 ( -10.35%)
   displ. norm   :     0.1963807 α      lambda       -0.7760603E-04
   maximum displ.:     0.1186557 α      in ANC's #5, #3, #7, ...
 * RMSD in coord.:     0.6715510 α      energy gain  -0.1695085E-01 Eh

generating ANC from model Hessian ...
Using Lindh-Hessian (1995)
 Shifting diagonal of input Hessian by    9.9600698584003024E-003
 Lowest  eigenvalues of input Hessian
    0.000000    0.000000    0.000000    0.000000    0.000000    0.000000
    0.010000    0.010009    0.010114    0.010186    0.010273    0.010611
    0.010689    0.010888    0.011282    0.011606    0.012303    0.012705
 Highest eigenvalues
    1.927590    2.045246    2.046075    2.181942    2.182083    2.365040


........................................................................
.............................. CYCLE   43 ..............................
........................................................................

 iter      E             dE          RMSdq      gap      omega  full diag
   1   -100.7683602 -0.100768E+03  0.372E-02    1.29       0.0  T
   2   -100.7682215  0.138658E-03  0.390E-02    1.35       1.0  T
   3   -100.7683359 -0.114334E-03  0.258E-02    1.28       1.0  T
   4   -100.7683919 -0.560473E-04  0.830E-03    1.31       1.4  T
   5   -100.7683969 -0.497318E-05  0.914E-04    1.31      12.9  T
   6   -100.7683969 -0.263817E-07  0.522E-04    1.30      22.6  T
   7   -100.7683969 -0.105790E-07  0.209E-04    1.30      56.4  T
     SCC iter.                  ...        0 min,  0.057 sec
     gradient                   ...        0 min,  0.068 sec
 * total energy  :   -99.3877833 Eh     change       -0.4982466E-04 Eh
   gradient norm :     0.0040503 Eh/α   predicted     0.0000000E+00 (-100.00%)
   displ. norm   :     0.0432838 α      lambda       -0.5629496E-04
   maximum displ.:     0.0159332 α      in ANC's #28, #7, #29, ...

........................................................................
.............................. CYCLE   44 ..............................
........................................................................

 iter      E             dE          RMSdq      gap      omega  full diag
   1   -100.7690686 -0.100769E+03  0.113E-02    1.31       0.0  T
   2   -100.7690547  0.138608E-04  0.127E-02    1.29       1.0  T
   3   -100.7690685 -0.137702E-04  0.696E-03    1.31       1.7  T
   4   -100.7690716 -0.316807E-05  0.290E-03    1.31       4.1  T
   5   -100.7690723 -0.676368E-06  0.366E-04    1.31      32.2  T
   6   -100.7690723 -0.149984E-08  0.219E-04    1.31      53.9  T
     SCC iter.                  ...        0 min,  0.049 sec
     gradient                   ...        0 min,  0.068 sec
 * total energy  :   -99.3878289 Eh     change       -0.4562037E-04 Eh
   gradient norm :     0.0016954 Eh/α   predicted    -0.2869387E-04 ( -37.10%)
   displ. norm   :     0.1801903 α      lambda       -0.8804610E-04
   maximum displ.:     0.0687386 α      in ANC's #28, #7, #29, ...

   *** GEOMETRY OPTIMIZATION CONVERGED AFTER 44 ITERATIONS ***

------------------------------------------------------------------------
 total energy gain   :        -0.6718492 Eh     -421.5917 kcal/mol
 total RMSD          :         1.0927150 a0        0.5782 Å
 total power (kW/mol):       -40.0895427 (step) -242.6843 (real)
------------------------------------------------------------------------

 ANCopt (total)                0 d,  0 h,  0 min,  7.268 sec
 optimizer setup                ...        0 min,  0.000 sec (  0.004%)
 model hessian                  ...        0 min,  0.152 sec (  2.087%)
 ANC generation                 ...        0 min,  0.020 sec (  0.271%)
 coordinate transformation      ...        0 min,  0.003 sec (  0.042%)
 single point calculation       ...        0 min,  6.914 sec ( 95.128%)
 optimization log               ...        0 min,  0.011 sec (  0.152%)
 hessian update                 ...        0 min,  0.003 sec (  0.039%)
 rational function              ...        0 min,  0.144 sec (  1.976%)

================
 final structure:
================
72
 xtb: 6.6.1 (8d0f1dd)
N           -2.05857725552885        3.33073298010977        2.37576215186296
C           -2.32514398991723        2.43304158067464        1.61428168793002
C           -3.13458794809798        2.07387176769963        0.47631485428762
C           -3.57590624998795        0.62154355979047        0.56211205009042
C           -4.35685563628857        0.06481794707143       -0.44983916986027
C           -4.75305413901193       -1.26181255217116       -0.40105924174544
O           -5.50751320221794       -1.88297379949228       -1.32999625694312
C           -6.01958248900023       -1.13928609903064       -2.41072714793283
C           -4.34994212531430       -2.07291058715649        0.69486101237380
O           -4.76313308897297       -3.35428422350958        0.64731282578273
C           -4.43001117191276       -4.22275310323369        1.70526275456321
C           -3.58565634316421       -1.50479797624660        1.70187855298801
C           -3.20568238153329       -0.17173831127471        1.63489557435008
C           -2.26323638574330        2.32207183172546       -0.79666778961720
C           -1.46090756642711        1.12955352357468       -1.31956978078092
C           -0.40346591306799        0.58564291141071       -0.35325886328907
N            0.57286655615830       -0.21101629124210       -1.06349982394634
C            1.89851832062497       -0.28272811473088       -0.49209288542963
C            2.96174106252333       -0.36669532190461       -1.60441510783756
C            4.34110647804417       -0.14629017070968       -1.05898937836388
C            4.97007790469905        1.08301099112609       -1.19380817592190
C            6.24710196000115        1.28970159607351       -0.69739603786092
C            6.92348630955597        0.26878281721215       -0.04415361432007
O            8.16582910453268        0.35272698443113        0.46822066360930
C            8.90358993417856        1.53926830787281        0.28802799716717
C            6.28329091423715       -0.99265805529838        0.11380471630326
O            7.00987193316471       -1.92491210465699        0.76054878239361
C            6.47550389114313       -3.21507401695903        0.93851128722783
C            5.00692451348281       -1.17523816372749       -0.39642198047963
C            0.04901749188338       -1.46883916846173       -1.53945926651081
C           -4.41449742006388        2.99648521742247        0.45145179243119
C           -5.30352388942592        2.72620106794310        1.66086459602338
C           -4.08380196256156        4.48060171731367        0.36254377086931
H           -4.65655206228719        0.67656777167694       -1.28507444594552
H           -6.64871432923535       -0.31277371107330       -2.06590389944597
H           -6.62643772709123       -1.83717669937571       -2.98411255153003
H           -5.21899905658273       -0.75067102249653       -3.04831355556281
H           -4.84807945538016       -3.87691391308103        2.65527613185892
H           -4.87206488493156       -5.18261499841072        1.44525492619674
H           -3.34593317975149       -4.33866012583361        1.80325204254718
H           -3.28016405792158       -2.09269319529087        2.55199700641411
H           -2.61463809181124        0.25044343930881        2.43614562718133
H           -2.93613277087936        2.63669790927036       -1.59524339246957
H           -1.58293968703077        3.15155595932924       -0.59555293856306
H           -2.14129964707948        0.32710127024660       -1.60172297760385
H           -0.94086750138748        1.46181500839992       -2.22055171918321
H           -0.88912049479026       -0.01898366414746        0.43011080416927
H            0.11348097467331        1.42585718907938        0.11691435950469
H            2.00661618208826       -1.14141619429293        0.18714783806479
H            2.08136782200111        0.62576657619757        0.08514982700093
H            2.72963003364023        0.39699352467583       -2.34660220472143
H            2.91145174032489       -1.34166692926922       -2.09054586517569
H            4.46573832957760        1.88916205405027       -1.70433092788945
H            6.71213771059287        2.25296005661471       -0.82911354164057
H            8.43692690902643        2.38405610770215        0.80445969006005
H            9.02129016071683        1.77952712006429       -0.77291315835195
H            9.88140540291580        1.34566010856332        0.72528565970341
H            7.24506228170261       -3.78061508482265        1.46037255489261
H            5.56676828822077       -3.19189398407966        1.54853880718005
H            6.26028099553668       -3.69585448681049       -0.02072436815834
H            4.51803906355952       -2.13159790003822       -0.29684783280803
H           -0.66611457000855       -1.29023193239915       -2.34037677472188
H           -0.45844134423756       -2.03072304396687       -0.74127100272269
H            0.85488654714793       -2.07993013270317       -1.93495532917724
H           -4.96173399137409        2.70896339765661       -0.45118524205532
H           -4.79588836310672        3.00057577539406        2.58222760315848
H           -5.58515656648457        1.67765861419228        1.71759218998653
H           -6.21097245810193        3.31970799899002        1.58599873341161
H           -3.56699942741231        4.81743267958340        1.25722793034532
H           -3.47010724545873        4.70999262765342       -0.50368675687784
H           -5.00856064222112        5.04578635967202        0.27706759093832
H           -1.38649650614690        3.37022825062483        3.12497345517658

 Bond Distances (Angstroems)
 ---------------------------
N1-C2=1.2070         N1-H72=1.0073        C2-N1=1.2070         C2-C3=1.4419         C3-C2=1.4419         C3-C4=1.5203         
C3-C14=1.5625        C3-C31=1.5780        C4-C3=1.5203         C4-C5=1.3942         C4-C13=1.3846        C5-C4=1.3942         
C5-C6=1.3854         C5-H34=1.0778        C6-C5=1.3854         C6-O7=1.3483         C6-C9=1.4218         O7-C6=1.3483         
O7-C8=1.4083         C8-O7=1.4083         C8-H35=1.0945        C8-H36=1.0882        C8-H37=1.0947        C9-C6=1.4218         
C9-O10=1.3472        C9-C12=1.3860        O10-C9=1.3472        O10-C11=1.4087       C11-O10=1.4087       C11-H38=1.0940       
C11-H39=1.0883       C11-H40=1.0947       C12-C9=1.3860        C12-C13=1.3878       C12-H41=1.0778       C13-C4=1.3846        
C13-C12=1.3878       C13-H42=1.0815       C14-C3=1.5625        C14-C15=1.5295       C14-H43=1.0906       C14-H44=1.0915       
C15-C14=1.5295       C15-C16=1.5322       C15-H45=1.0893       C15-H46=1.0921       C16-C15=1.5322       C16-N17=1.4465       
C16-H47=1.1023       C16-H48=1.0928       N17-C16=1.4465       N17-C18=1.4453       N17-C30=1.4433       C18-N17=1.4453       
C18-C19=1.5410       C18-H49=1.1002       C18-H50=1.0918       C19-C18=1.5410       C19-C20=1.4996       C19-H51=1.0899       
C19-H52=1.0906       C20-C19=1.4996       C20-C21=1.3874       C20-C29=1.3932       C21-C20=1.3874       C21-C22=1.3856       
C21-H53=1.0793       C22-C21=1.3856       C22-C23=1.3880       C22-H54=1.0777       C23-C22=1.3880       C23-O24=1.3465       
C23-C26=1.4234       O24-C23=1.3465       O24-C25=1.4088       C25-O24=1.4088       C25-H55=1.0946       C25-H56=1.0942       
C25-H57=1.0885       C26-C23=1.4234       C26-O27=1.3473       C26-C29=1.3866       O27-C26=1.3473       O27-C28=1.4077       
C28-O27=1.4077       C28-H58=1.0883       C28-H59=1.0947       C28-H60=1.0944       C29-C20=1.3932       C29-C26=1.3866       
C29-H61=1.0787       C30-N17=1.4433       C30-H62=1.0885       C30-H63=1.1002       C30-H64=1.0859       C31-C3=1.5780        
C31-C32=1.5252       C31-C33=1.5231       C31-H65=1.0940       C32-C31=1.5252       C32-H66=1.0871       C32-H67=1.0872       
C32-H68=1.0869       C33-C31=1.5231       C33-H69=1.0867       C33-H70=1.0861       C33-H71=1.0872       H34-C5=1.0778        
H35-C8=1.0945        H36-C8=1.0882        H37-C8=1.0947        H38-C11=1.0940       H39-C11=1.0883       H40-C11=1.0947       
H41-C12=1.0778       H42-C13=1.0815       H43-C14=1.0906       H44-C14=1.0915       H45-C15=1.0893       H46-C15=1.0921       
H47-C16=1.1023       H48-C16=1.0928       H49-C18=1.1002       H50-C18=1.0918       H51-C19=1.0899       H52-C19=1.0906       
H53-C21=1.0793       H54-C22=1.0777       H55-C25=1.0946       H56-C25=1.0942       H57-C25=1.0885       H58-C28=1.0883       
H59-C28=1.0947       H60-C28=1.0944       H61-C29=1.0787       H62-C30=1.0885       H63-C30=1.1002       H64-C30=1.0859       
H65-C31=1.0940       H66-C32=1.0871       H67-C32=1.0872       H68-C32=1.0869       H69-C33=1.0867       H70-C33=1.0861       
H71-C33=1.0872       H72-N1=1.0073        
 C  H  Rav=1.0895 sigma=0.0061  Rmin=1.0777  Rmax=1.1023    38
 C  C  Rav=1.4535 sigma=0.0703  Rmin=1.3846  Rmax=1.5780    22
 N  H  Rav=1.0073 sigma=0.0000  Rmin=1.0073  Rmax=1.0073     1
 N  C  Rav=1.3855 sigma=0.1031  Rmin=1.2070  Rmax=1.4465     4
 O  C  Rav=1.3779 sigma=0.0305  Rmin=1.3465  Rmax=1.4088     8

 selected bond angles (degree)
 --------------------
H72-N1-C2=130.23               C3-C2-N1=143.82                C4-C3-C2=110.88                C14-C3-C2=106.88               
C14-C3-C4=111.08               C31-C3-C2=108.79               C31-C3-C4=108.90               C31-C3-C14=110.28              
C5-C4-C3=120.20                C13-C4-C3=120.89               C13-C4-C5=118.90               C6-C5-C4=121.13                
H34-C5-C4=119.44               H34-C5-C6=119.42               O7-C6-C5=125.23                C9-C6-C5=119.49                
C9-C6-O7=115.27                C8-O7-C6=119.27                H35-C8-O7=111.47               H36-C8-O7=105.57               
H36-C8-H35=109.25              H37-C8-O7=111.62               H37-C8-H35=109.62              H37-C8-H36=109.18              
O10-C9-C6=115.37               C12-C9-C6=118.85               C12-C9-O10=125.78              C11-O10-C9=119.17              

 selected dihedral angles (degree)
 ---------------------------------
C3-C2-N1-H72=183.08           C4-C3-C2-N1=215.08            C14-C3-C2-N1= 93.89           C31-C3-C2-N1=334.82           
C5-C4-C3-C2=180.76            C5-C4-C3-C14=299.45           C5-C4-C3-C31= 61.09           C13-C4-C3-C2=  0.34           
C13-C4-C3-C14=119.02          C13-C4-C3-C31=240.67          C6-C5-C4-C3=179.03            C6-C5-C4-C13=359.44           
H34-C5-C4-C3=359.10           H34-C5-C4-C13=179.52          O7-C6-C5-C4=179.90            O7-C6-C5-H34=359.83           
[...]
         ::.................................................::
         :: SCC energy              -100.769072316797 Eh    ::
         :: -> isotropic ES            0.102426705189 Eh    ::
         :: -> anisotropic ES          0.006131824579 Eh    ::
         :: -> anisotropic XC          0.043765548073 Eh    ::
         :: -> dispersion             -0.072952334518 Eh    ::
         :: repulsion energy           1.379921919350 Eh    ::
         :: add. restraining           0.000032761704 Eh    ::
         :: total charge               1.000000001526 e     ::
         :::::::::::::::::::::::::::::::::::::::::::::::::::::

           -------------------------------------------------
          |                Property Printout                |
           -------------------------------------------------

    * Orbital Energies and Occupations

         #    Occupation            Energy/Eh            Energy/eV
      -------------------------------------------------------------
         1        2.0000           -0.8100218             -22.0418
       ...           ...                  ...                  ...
        78        1.9985           -0.5307445             -14.4423
        79        1.9984           -0.5300733             -14.4240
        80        1.9983           -0.5292065             -14.4004
        81        1.9982           -0.5276393             -14.3578
        82        1.9976           -0.5232727             -14.2390
        83        1.9973           -0.5214871             -14.1904
        84        1.9972           -0.5207974             -14.1716
        85        1.9953           -0.5126150             -13.9490
        86        1.9834           -0.4926035             -13.4044
        87        1.9678           -0.4819780             -13.1153
        88        1.8891           -0.4617434             -12.5647
        89        1.8418           -0.4557114             -12.4005
        90        1.7614           -0.4485046             -12.2044 (HOMO)
        91        0.5251           -0.4004969             -10.8981 (LUMO)
        92        0.0482           -0.3582560              -9.7486
        93        0.0040           -0.3186717              -8.6715
        94        0.0034           -0.3157647              -8.5924
        95        0.0018           -0.3060327              -8.3276
        96        0.0015           -0.3032331              -8.2514
        97        0.0000           -0.1929937              -5.2516
        98        0.0000           -0.1809412              -4.9237
        99                         -0.1012611              -2.7555
       100                         -0.0863895              -2.3508
       101                         -0.0759889              -2.0678
       ...                                ...                  ...
       171                          0.6858516              18.6630
      -------------------------------------------------------------
                  HL-Gap            0.0480077 Eh            1.3064 eV
             Fermi-level           -0.4168483 Eh          -11.3430 eV

     #   Z          covCN         q      C6AA      α(0)
     1   7 N        1.772    -0.158    25.182     7.431
     2   6 C        1.921     0.093    28.787     8.665
     3   6 C        3.903     0.028    20.051     6.365
     4   6 C        2.977     0.006    27.887     8.662
     5   6 C        2.919    -0.077    29.931     8.972
     6   6 C        2.863     0.131    25.129     8.217
     7   8 O        1.706    -0.229    17.790     5.695
     8   6 C        3.645     0.027    20.449     6.500
     9   6 C        2.864     0.131    25.124     8.216
    10   8 O        1.706    -0.227    17.759     5.690
    11   6 C        3.645     0.027    20.458     6.501
    12   6 C        2.914    -0.071    29.764     8.946
    13   6 C        2.921    -0.048    29.191     8.860
    14   6 C        3.812    -0.059    21.629     6.620
    15   6 C        3.801    -0.071    21.862     6.657
    16   6 C        3.750     0.000    20.637     6.479
    17   7 N        2.728    -0.122    23.658     7.224
    18   6 C        3.749     0.004    20.576     6.469
    19   6 C        3.809    -0.072    21.877     6.658
    20   6 C        2.967     0.009    27.824     8.652
    21   6 C        2.922    -0.045    29.129     8.851
    22   6 C        2.913    -0.066    29.651     8.929
    23   6 C        2.865     0.133    25.082     8.209
    24   8 O        1.706    -0.220    17.655     5.673
    25   6 C        3.645     0.025    20.488     6.505
    26   6 C        2.862     0.134    25.069     8.207
    27   8 O        1.706    -0.222    17.690     5.679
    28   6 C        3.645     0.027    20.460     6.501
    29   6 C        2.919    -0.077    29.916     8.969
    30   6 C        3.705    -0.047    21.575     6.640
    31   6 C        3.854    -0.008    20.676     6.467
    32   6 C        3.755    -0.115    22.756     6.802
    33   6 C        3.755    -0.121    22.879     6.820
    34   1 H        0.926     0.053     2.287     2.365
    35   1 H        0.924     0.052     2.292     2.368
    36   1 H        0.925     0.082     1.959     2.189
    37   1 H        0.924     0.049     2.337     2.391
    38   1 H        0.924     0.055     2.264     2.353
    39   1 H        0.925     0.082     1.963     2.191
    40   1 H        0.924     0.050     2.324     2.384
    41   1 H        0.926     0.055     2.260     2.351
    42   1 H        0.925     0.038     2.479     2.462
    43   1 H        0.924     0.065     2.145     2.290
    44   1 H        0.924     0.052     2.292     2.368
    45   1 H        0.925     0.051     2.305     2.374
    46   1 H        0.924     0.063     2.162     2.299
    47   1 H        0.923     0.028     2.611     2.527
    48   1 H        0.924     0.041     2.430     2.438
    49   1 H        0.923     0.034     2.534     2.490
    50   1 H        0.924     0.045     2.386     2.416
    51   1 H        0.925     0.062     2.182     2.310
    52   1 H        0.924     0.054     2.276     2.359
    53   1 H        0.926     0.051     2.303     2.373
    54   1 H        0.926     0.058     2.217     2.328
    55   1 H        0.924     0.055     2.257     2.349
    56   1 H        0.924     0.057     2.239     2.340
    57   1 H        0.925     0.082     1.957     2.188
    58   1 H        0.925     0.082     1.963     2.191
    59   1 H        0.924     0.051     2.311     2.377
    60   1 H        0.924     0.054     2.266     2.354
    61   1 H        0.926     0.051     2.308     2.376
    62   1 H        0.925     0.056     2.247     2.344
    63   1 H        0.923     0.033     2.545     2.495
    64   1 H        0.925     0.060     2.200     2.320
    65   1 H        0.924     0.055     2.254     2.348
    66   1 H        0.925     0.046     2.371     2.408
    67   1 H        0.925     0.043     2.409     2.427
    68   1 H        0.925     0.059     2.210     2.325
    69   1 H        0.925     0.055     2.254     2.348
    70   1 H        0.925     0.045     2.384     2.415
    71   1 H        0.925     0.061     2.191     2.315
    72   1 H        0.860     0.219     1.013     1.577

 Mol. C6AA /au·bohr⁶  :      47327.817423
 Mol. C8AA /au·bohr⁸  :    1077231.967211
 Mol. α(0) /au        :        332.852230


Wiberg/Mayer (AO) data.
largest (>0.10) Wiberg bond orders for each atom

 ---------------------------------------------------------------------------
     #   Z sym  total        # sym  WBO       # sym  WBO       # sym  WBO
 ---------------------------------------------------------------------------
     1   7 N    3.215 --     2 C    2.177    72 H    0.901
     2   6 C    3.369 --     1 N    2.177     3 C    1.072
     3   6 C    3.960 --     2 C    1.072     4 C    0.963    14 C    0.923
                            31 C    0.881
     4   6 C    3.941 --    13 C    1.416     5 C    1.371     3 C    0.963
     5   6 C    3.964 --     6 C    1.399     4 C    1.371    34 H    0.958
     6   6 C    3.908 --     5 C    1.399     9 C    1.223     7 O    1.101
     7   8 O    2.258 --     6 C    1.101     8 C    0.978
     8   6 C    3.932 --     7 O    0.978    36 H    0.977    35 H    0.974
                            37 H    0.973
     9   6 C    3.906 --    12 C    1.391     6 C    1.223    10 O    1.105
    10   8 O    2.258 --     9 C    1.105    11 C    0.977
    11   6 C    3.931 --    10 O    0.977    39 H    0.977    40 H    0.974
                            38 H    0.973
    12   6 C    3.964 --    13 C    1.406     9 C    1.391    41 H    0.963
    13   6 C    3.953 --     4 C    1.416    12 C    1.406    42 H    0.957
    14   6 C    3.980 --    15 C    1.009    44 H    0.973    43 H    0.965
                             3 C    0.923
    15   6 C    3.985 --    14 C    1.009    16 C    0.996    45 H    0.969
                            46 H    0.969
    16   6 C    3.975 --    17 N    1.006    15 C    0.996    48 H    0.970
                            47 H    0.953
    17   7 N    3.100 --    30 C    1.017    18 C    1.007    16 C    1.006
    18   6 C    3.967 --    17 N    1.007    19 C    0.973    50 H    0.971
                            49 H    0.959
    19   6 C    3.980 --    20 C    1.015    18 C    0.973    51 H    0.972
                            52 H    0.964
    20   6 C    3.931 --    21 C    1.397    29 C    1.381    19 C    1.015
    21   6 C    3.932 --    22 C    1.421    20 C    1.397    53 H    0.967
    22   6 C    3.952 --    21 C    1.421    23 C    1.378    54 H    0.963
    23   6 C    3.877 --    22 C    1.378    26 C    1.214    24 O    1.110
    24   8 O    2.244 --    23 C    1.110    25 C    0.976
    25   6 C    3.927 --    57 H    0.977    24 O    0.976    56 H    0.972
                            55 H    0.972
    26   6 C    3.884 --    29 C    1.392    23 C    1.214    27 O    1.106
    27   8 O    2.247 --    26 C    1.106    28 C    0.978
    28   6 C    3.930 --    27 O    0.978    58 H    0.977    59 H    0.973
                            60 H    0.972
    29   6 C    3.953 --    26 C    1.392    20 C    1.381    61 H    0.962
    30   6 C    3.971 --    17 N    1.017    64 H    0.978    62 H    0.975
                            63 H    0.966
    31   6 C    3.937 --    33 C    1.015    32 C    1.013    65 H    0.951
                             3 C    0.881
    32   6 C    3.990 --    31 C    1.013    66 H    0.984    67 H    0.982
                            68 H    0.980
    33   6 C    3.988 --    31 C    1.015    70 H    0.983    69 H    0.978
                            71 H    0.978
    34   1 H    0.996 --     5 C    0.958
    35   1 H    0.994 --     8 C    0.974
    36   1 H    0.993 --     8 C    0.977
    37   1 H    0.994 --     8 C    0.973
    38   1 H    0.993 --    11 C    0.973
    39   1 H    0.993 --    11 C    0.977
    40   1 H    0.993 --    11 C    0.974
    41   1 H    0.995 --    12 C    0.963
    42   1 H    0.998 --    13 C    0.957
    43   1 H    0.994 --    14 C    0.965
    44   1 H    0.996 --    14 C    0.973
    45   1 H    0.997 --    15 C    0.969
    46   1 H    0.994 --    15 C    0.969
    47   1 H    0.982 --    16 C    0.953
    48   1 H    0.998 --    16 C    0.970
    49   1 H    0.981 --    18 C    0.959
    50   1 H    0.998 --    18 C    0.971
    51   1 H    0.994 --    19 C    0.972
    52   1 H    0.994 --    19 C    0.964
    53   1 H    0.996 --    21 C    0.967
    54   1 H    0.995 --    22 C    0.963
    55   1 H    0.990 --    25 C    0.972
    56   1 H    0.990 --    25 C    0.972
    57   1 H    0.992 --    25 C    0.977
    58   1 H    0.993 --    28 C    0.977
    59   1 H    0.992 --    28 C    0.973
    60   1 H    0.991 --    28 C    0.972
    61   1 H    0.996 --    29 C    0.962
    62   1 H    0.990 --    30 C    0.975
    63   1 H    0.981 --    30 C    0.966
    64   1 H    0.996 --    30 C    0.978
    65   1 H    0.989 --    31 C    0.951
    66   1 H    0.997 --    32 C    0.984
    67   1 H    0.998 --    32 C    0.982
    68   1 H    0.994 --    32 C    0.980
    69   1 H    0.996 --    33 C    0.978
    70   1 H    0.997 --    33 C    0.983
    71   1 H    0.994 --    33 C    0.978
    72   1 H    0.926 --     1 N    0.901
 ---------------------------------------------------------------------------

Topologies differ in total number of bonds
Writing topology from bond orders to xtbtopo.mol

molecular dipole:
                 x           y           z       tot (Debye)
 q only:       -0.310       1.119       0.355
   full:       -0.272       1.036       0.656       3.193
molecular quadrupole (traceless):
                xx          xy          yy          xz          yz          zz
 q only:       54.393      -6.020     -14.941      -0.975      -1.065     -39.453
  q+dip:       48.841      -3.796     -13.757      -0.227      -1.687     -35.084
   full:       49.768      -4.907     -14.838      -3.031      -1.675     -34.931

           -------------------------------------------------
          |                Geometry Summary                 |
           -------------------------------------------------

      molecular mass/u    :      455.6105846
   center of mass at/Å    :        0.0007586       0.0267246       0.0391125
  moments of inertia/u·Å² :        0.2598394E+04   0.1113341E+05   0.1244639E+05
rotational constants/cm⁻¹ :        0.6487712E-02   0.1514148E-02   0.1354419E-02

 * 67 selected distances

     #   Z          #   Z                                           value/Å
     1   7 N        2   6 C                                       1.2069633
     4   6 C        5   6 C                                       1.3942277
     5   6 C        6   6 C                                       1.3853886
     6   6 C        7   8 O                                       1.3483227
     7   8 O        8   6 C                                       1.4082848
     6   6 C        9   6 C                                       1.4217668
     9   6 C       10   8 O                                       1.3471846
    10   8 O       11   6 C                                       1.4087111
     9   6 C       12   6 C                                       1.3859904
     4   6 C       13   6 C                                       1.3846396
    12   6 C       13   6 C                                       1.3877735
    14   6 C       15   6 C                                       1.5294634
    15   6 C       16   6 C                                       1.5322463
    16   6 C       17   7 N                                       1.4464901
    17   7 N       18   6 C                                       1.4453378
    18   6 C       19   6 C                                       1.5410238 (max)
    20   6 C       21   6 C                                       1.3874303
    21   6 C       22   6 C                                       1.3856178
    22   6 C       23   6 C                                       1.3879831
    23   6 C       24   8 O                                       1.3464732
    24   8 O       25   6 C                                       1.4087729
    23   6 C       26   6 C                                       1.4233884
    26   6 C       27   8 O                                       1.3473291
    27   8 O       28   6 C                                       1.4077422
    20   6 C       29   6 C                                       1.3932134
    26   6 C       29   6 C                                       1.3866428
    17   7 N       30   6 C                                       1.4432858
    31   6 C       32   6 C                                       1.5251562
    31   6 C       33   6 C                                       1.5231107
     5   6 C       34   1 H                                       1.0778098
     8   6 C       35   1 H                                       1.0944555
     8   6 C       36   1 H                                       1.0881616
     8   6 C       37   1 H                                       1.0947475
    11   6 C       38   1 H                                       1.0940345
    11   6 C       39   1 H                                       1.0882787
    11   6 C       40   1 H                                       1.0946514
    12   6 C       41   1 H                                       1.0777977
    13   6 C       42   1 H                                       1.0814678
    14   6 C       43   1 H                                       1.0906431
    14   6 C       44   1 H                                       1.0914646
    15   6 C       45   1 H                                       1.0892537
    15   6 C       46   1 H                                       1.0920659
    16   6 C       47   1 H                                       1.1023166
    16   6 C       48   1 H                                       1.0928208
    18   6 C       49   1 H                                       1.1001811
    18   6 C       50   1 H                                       1.0917902
    19   6 C       51   1 H                                       1.0899257
    19   6 C       52   1 H                                       1.0906062
    21   6 C       53   1 H                                       1.0792922
    22   6 C       54   1 H                                       1.0777174 (min)
    25   6 C       55   1 H                                       1.0945971
    25   6 C       56   1 H                                       1.0941545
    25   6 C       57   1 H                                       1.0884860
    28   6 C       58   1 H                                       1.0882997
    28   6 C       59   1 H                                       1.0947472
    28   6 C       60   1 H                                       1.0943510
    29   6 C       61   1 H                                       1.0786789
    30   6 C       62   1 H                                       1.0884776
    30   6 C       63   1 H                                       1.1001512
    30   6 C       64   1 H                                       1.0859440
    31   6 C       65   1 H                                       1.0940249
    32   6 C       66   1 H                                       1.0871455
    32   6 C       67   1 H                                       1.0871874
    32   6 C       68   1 H                                       1.0868848
    33   6 C       69   1 H                                       1.0867382
    33   6 C       70   1 H                                       1.0860925
    33   6 C       71   1 H                                       1.0871608

 * 4 distinct bonds (by element types)

   Z      Z             #   av. dist./Å        max./Å        min./Å
   1 H    6 C          38     1.0895422     1.1023166     1.0777174
   6 C    6 C          17     1.4338272     1.5410238     1.3846396
   6 C    7 N           4     1.3855193     1.4464901     1.2069633
   6 C    8 O           8     1.3778526     1.4087729     1.3464732


optimized geometry written to: xtbopt.xyz


           -------------------------------------------------
          | TOTAL ENERGY              -99.387828944226 Eh   |
          | GRADIENT NORM               0.001699501752 Eh/α |
          | HOMO-LUMO GAP               1.306356787652 eV   |
           -------------------------------------------------

------------------------------------------------------------------------
 * finished run on 2024/04/06 at 11:11:37.958     
------------------------------------------------------------------------
 total:
 * wall-time:     0 d,  0 h,  0 min,  7.624 sec
 *  cpu-time:     0 d,  0 h,  0 min,  7.480 sec
 * ratio c/w:     0.981 speedup
 SCF:
 * wall-time:     0 d,  0 h,  0 min,  0.191 sec
 *  cpu-time:     0 d,  0 h,  0 min,  0.191 sec
 * ratio c/w:     1.000 speedup
 ANC optimizer:
 * wall-time:     0 d,  0 h,  0 min,  7.390 sec
 *  cpu-time:     0 d,  0 h,  0 min,  7.262 sec
 * ratio c/w:     0.983 speedup

