25
 energy: 0.000000000000 xtb: 6.6.1 (8d0f1dd)
C            3.23720132972391        1.16630909158653        0.08434468864950
N            2.29877796055224        0.07527476373246        0.03981602671198
C            2.58028186251803       -1.21425391179017        0.03006175752192
N            1.43813944744728       -1.93419254010258        0.00098261751768
C            0.39035684826767       -1.05887462812143       -0.00790371763344
C            0.93510047688824        0.21347817468824        0.01709077332874
C            0.09450143016486        1.40504290868848       -0.00410946993748
O            0.49712746915594        2.54126690785742       -0.00342325656480
N           -1.25076628431515        1.06271869620815       -0.03085477937476
C           -2.21907191394203        2.15522079838987       -0.05001256521996
C           -1.81739470187490       -0.20012724136556       -0.04692818139228
O           -2.99983858926755       -0.37846413507442       -0.07008877579474
N           -0.92618577614240       -1.30210203518959       -0.03682761236648
C           -1.46982251276835       -2.64643077634382       -0.06029819901142
H            3.71247229913541        1.21471443890471        1.06488839270555
H            4.00791460421487        1.03430799217987       -0.67357688121503
H            2.69909982127087        2.09770098766290       -0.09130154035862
H            3.56654087521359       -1.63682977417947        0.04233139674524
H           -1.67107945562430        3.09322822573871       -0.02552706696334
H           -2.82428927394145        2.09428605349656       -0.95318074103337
H           -2.87644002486466        2.07745706351925        0.81450059976605
H           -1.17061985538665       -3.19584861009707        0.83242224714061
H           -1.14560246782873       -3.17511580834413       -0.95688266944647
H           -2.55549768731684       -2.55659960601237       -0.07459039105944
H            1.38130842369251       -2.94313824728853       -0.01389874052104
25
 energy: -5.975232414809 xtb: 6.6.1 (8d0f1dd)
C            3.24191854373388        1.17884379041681        0.08604718220295
N            2.30664337149793        0.10641167158965        0.04002624439510
C            2.60755217132889       -1.23480910388197        0.04374400691137
N            1.42784077706942       -1.93558353518830        0.01131669508582
C            0.40303219603294       -1.06228367628620       -0.00826607522458
C            0.92136897989990        0.22686061789542        0.01875865194482
C            0.11825050523708        1.38676127759278       -0.00280733142605
O            0.49532094737901        2.56202706650525       -0.00581132041885
N           -1.26542412720530        1.04708136688120       -0.02659011635889
C           -2.21474666340751        2.14944837385991       -0.04994569497268
C           -1.81222960589698       -0.20052234859112       -0.04489491593228
O           -3.01232310814794       -0.38432777319911       -0.06469315067003
N           -0.93487238137868       -1.31244340344536       -0.06139181448742
C           -1.48123387648222       -2.65511224028866       -0.08036302589011
H            3.71895905672362        1.22938467022977        1.06880945879640
H            4.01266465355331        1.04066040141887       -0.67481246673596
H            2.69824719238944        2.10444007976707       -0.09562974946394
H            3.58512895890762       -1.64426152903503        0.05337267147328
H           -1.65403510926328        3.08255800569856       -0.02489722587936
H           -2.81914672369272        2.09864415445102       -0.95561784024445
H           -2.87431225893072        2.08207828151218        0.81449315679500
H           -1.13172885866342       -3.21939776436057        0.78633519702207
H           -1.23744932162228       -3.22327322936418       -0.98552310242769
H           -2.56275219249983       -2.54262379434429       -0.02158223651154
H            1.37653210264052       -2.93934340548051       -0.00003373253878
25
 energy: -5.101466979673 xtb: 6.6.1 (8d0f1dd)
C            3.24443707992500        1.18530126875134        0.08779050483488
N            2.31079817220456        0.11017324190763        0.04412964771546
C            2.61506208012994       -1.23183399441406        0.05225304862978
N            1.43509879723536       -1.93320984579653        0.02002954106204
C            0.40704778127073       -1.06468920764096       -0.00974002924878
C            0.92383510004223        0.22755571609684        0.02080906165322
C            0.12206840181064        1.38695673715897       -0.00108871204048
O            0.49667583190043        2.56330662656675       -0.00435584997579
N           -1.26264764950320        1.04301294022981       -0.02313514594146
C           -2.21017531124070        2.14916608194378       -0.05162919136942
C           -1.80769115360489       -0.20577681327355       -0.04720983959086
O           -3.00911525688225       -0.38537802328213       -0.05365319415239
N           -0.93197002322377       -1.32508289228463       -0.08482636892096
C           -1.49430450183530       -2.66940074717081       -0.09815301342034
H            3.72502790139072        1.23941998713569        1.06915087455233
H            4.01364314480113        1.04868349212435       -0.67521615214254
H            2.69932506325258        2.11048997391514       -0.09352396939456
H            3.59342708320515       -1.64210657244188        0.05967914867663
H           -1.64657642290965        3.08098160059450       -0.02786482363718
H           -2.81148739812069        2.10048094009582       -0.95969734090725
H           -2.87517910915435        2.09084658194987        0.80957415790069
H           -1.09838803200652       -3.24557809700098        0.74076408703727
H           -1.33158614382112       -3.26637373857263       -1.00957932294565
H           -2.56905631987832       -2.53648990479915        0.02985477406497
H            1.38113019330806       -2.93668066631862        0.01470432183983
25
 energy: -3.628214888555 xtb: 6.6.1 (8d0f1dd)
C            3.24622987640846        1.19175935418544        0.08829399036040
N            2.31385301092981        0.11484500787015        0.04924830329626
C            2.62157493701374       -1.22772279258117        0.06430414141736
N            1.44190305844248       -1.93005276045658        0.02976463531133
C            0.41025289084509       -1.06705051483735       -0.00944037490720
C            0.92514554799321        0.22850109573779        0.02407690334362
C            0.12575122671406        1.38710503604276        0.00059843794424
O            0.49797423220266        2.56492843096033       -0.00490616799408
N           -1.25950295579544        1.03991216984806       -0.01866990672754
C           -2.20511286314023        2.14902617995062       -0.05225148358530
C           -1.80224494586717       -0.21046966871359       -0.04951409627782
O           -3.00462948497283       -0.38597580277802       -0.04578294098472
N           -0.92965453088351       -1.33688216032681       -0.10780508183847
C           -1.50846113130788       -2.68342741772116       -0.11583486090573
H            3.72844682895994        1.25012590232408        1.06889274156346
H            4.01518150159122        1.05382756715035       -0.67514944323315
H            2.70013266166250        2.11599549605338       -0.09589997591836
H            3.60069519181734       -1.63787584195671        0.06887530185146
H           -1.63805139899865        3.07924190305336       -0.02872513119961
H           -2.80438923848627        2.10311235995191       -0.96215287850549
H           -2.87348425556371        2.09671670269050        0.80678588887226
H           -1.06280155484334       -3.26977892615984        0.69188816621154
H           -1.42873301523192       -3.30551325611145       -1.03045244795597
H           -2.57193754502608       -2.52902822022126        0.08176662889143
H            1.38692721301543       -2.93320002489343        0.02876013605468
25
 energy: -1.545477256414 xtb: 6.6.1 (8d0f1dd)
C            3.24759604703784        1.19825959441836        0.08852774678727
N            2.31587113362350        0.12008041735744        0.05437180279268
C            2.62724867849006       -1.22241895532191        0.07719442806326
N            1.44843574112777       -1.92656719519318        0.03955772523334
C            0.41155052841892       -1.07084443140556       -0.00659349867163
C            0.92525391264710        0.22888413032856        0.02769985805059
C            0.12948960024366        1.38783833811491        0.00182470712032
O            0.49979199239510        2.56684854228368       -0.00473511719584
N           -1.25574525982448        1.03939058994482       -0.01754629406329
C           -2.20004827383757        2.15004929453921       -0.05353583086835
C           -1.79720672884231       -0.21352029695432       -0.05214578184725
O           -3.00043725981202       -0.38486451614804       -0.03852083208608
N           -0.92976513373744       -1.34859927396377       -0.12828446507812
C           -1.52487256672322       -2.69912973673529       -0.13269820646551
H            3.73114861036640        1.26021536441892        1.06840832737407
H            4.01681854006141        1.05924291757605       -0.67494087268622
H            2.70090954792202        2.12170103064240       -0.09821165999189
H            3.60748871331644       -1.63127172104698        0.07864331141328
H           -1.62927265782065        3.07829974829850       -0.02959671295278
H           -2.79774193966026        2.10693795423824       -0.96489532536275
H           -2.87110480301341        2.10219206033195        0.80377581193827
H           -1.03003321973964       -3.29451153301450        0.64107796824052
H           -1.52612504388866       -3.34219937827428       -1.04913708623380
H           -2.57196563485453       -2.52910643957868        0.13571923763063
H            1.39471736545411       -2.92945150462538        0.04219481086018
25
 energy: 1.201526751339 xtb: 6.6.1 (8d0f1dd)
C            3.24891496491396        1.20457859060181        0.08939306688515
N            2.31708778509707        0.12556223782646        0.06003625408486
C            2.63124228448539       -1.21671873690440        0.09021835978620
N            1.45323269328191       -1.92254581520618        0.04869583439419
C            0.41002954959222       -1.07383397505665       -0.00266490806419
C            0.92434957814178        0.22961516808710        0.03224192388771
C            0.13324977880236        1.38981061518885        0.00287677148027
O            0.50131040895119        2.56989997390181       -0.00380603429162
N           -1.25244241365676        1.04026140171180       -0.01923000793332
C           -2.19529891578892        2.15214867129458       -0.05535720234132
C           -1.79426317112691       -0.21389977928225       -0.05412420581049
O           -2.99776908499085       -0.38235377520346       -0.02972040135494
N           -0.93250782578323       -1.35971658788939       -0.14830002092616
C           -1.54376844494878       -2.71706976369809       -0.14894289439129
H            3.73448479601058        1.26925016972949        1.06830327047317
H            4.01812388473111        1.06474849938655       -0.67452427412231
H            2.70235514479856        2.12780367625871       -0.09896393100784
H            3.61298803730682       -1.62381936765236        0.08893079453041
H           -1.62053542476161        3.07813860691023       -0.03245883919907
H           -2.79221978474621        2.11044564677366       -0.96739601474719
H           -2.86790640502745        2.10912607376487        0.80119409811734
H           -0.99972320592335       -3.31916507975716        0.58828894471216
H           -1.62385637831277       -3.37780006060049       -1.06526844951052
H           -2.56948770330101       -2.53567333153612        0.19092132443192
H            1.40231021172306       -2.92545538800688        0.05469618754812
25
 energy: 4.326057655861 xtb: 6.6.1 (8d0f1dd)
C            3.25062420439894        1.21144494556769        0.09009598333647
N            2.31877423260757        0.13164291180670        0.06660955796057
C            2.63470557100774       -1.21047892818215        0.10472260671714
N            1.45720207827665       -1.91775846379357        0.05697375056761
C            0.40896609452695       -1.07325629049897        0.00092531619282
C            0.92466555194235        0.23186809815125        0.03856031782872
C            0.13729132638507        1.39310205491318        0.00511009731956
O            0.50358850549712        2.57403629941291       -0.00087933236360
N           -1.24885596045049        1.04278104433301       -0.02096086263445
C           -2.19033764413868        2.15557738110533       -0.05778765522952
C           -1.79198185930391       -0.21164789651938       -0.05234792853865
O           -2.99515139765353       -0.37858020293250       -0.01999966634361
N           -0.93380409203727       -1.36519841133533       -0.16161472578225
C           -1.55246386052694       -2.72751378967487       -0.16129557181973
H            3.73905316547418        1.27846094135206        1.06753834489698
H            4.01897422378014        1.07110748645459       -0.67514091859350
H            2.70400328570558        2.13446036078038       -0.09930465069658
H            3.61794199916313       -1.61581883854429        0.10122556130733
H           -1.61259284636858        3.07981523350020       -0.03649986325246
H           -2.78640684890349        2.11386270936588       -0.97036827671283
H           -2.86421087579891        2.11669855790617        0.79807943103565
H           -0.96985554853641       -3.34362342711324        0.53396437134465
H           -1.71664097916498       -3.40821112998478       -1.07671136776631
H           -2.55599400194857       -2.54903799291748        0.24323160865054
H            1.40982824899012       -2.92101281809413        0.06528421663762
25
 energy: 7.914648557045 xtb: 6.6.1 (8d0f1dd)
C            3.25422889226895        1.21851243488758        0.08889973203705
N            2.32187865433097        0.13877838820646        0.07357186208881
C            2.63847458942644       -1.20342259003329        0.12061496628307
N            1.46105789725849       -1.91175580466142        0.07089575860301
C            0.41088135608078       -1.06858255007059        0.00888429613196
C            0.92778712831440        0.23733293127204        0.04079985004388
C            0.14128350891655        1.39926710583367        0.00524098255492
O            0.50590225608322        2.58066781102165       -0.00339267663702
N           -1.24513080410306        1.04802602095648       -0.02327487248875
C           -2.18609733367027        2.16084364800662       -0.05693698552303
C           -1.78937819859726       -0.20608587433069       -0.05085142650008
O           -2.99197480911309       -0.37354080108629       -0.01601510143632
N           -0.93128137558140       -1.36193032866352       -0.15390187850589
C           -1.54930100515624       -2.72888675880508       -0.16668090361532
H            3.74349182825759        1.29156684191698        1.06552968679823
H            4.02286966217633        1.07349370211470       -0.67546376893545
H            2.70878597831298        2.14085865260935       -0.10671106436223
H            3.62258706067276       -1.60793471278296        0.11038140176632
H           -1.60609091431989        3.08340571668312       -0.02922369265022
H           -2.77891025333186        2.12408526714956       -0.97184255548464
H           -2.86327977473700        2.11988754829686        0.79623130109476
H           -0.94361265274969       -3.36880331256119        0.48170858985008
H           -1.79803565061575       -3.43467299851712       -1.08182299363047
H           -2.53124689706913       -2.56935824557183        0.28646670777952
H            1.41673194568978       -2.91544900395769        0.08270053597570
25
 energy: 12.488814180368 xtb: 6.6.1 (8d0f1dd)
C            3.25601354670654        1.22584795458557        0.09105064230706
N            2.32499559706212        0.14510869337373        0.08217268962906
C            2.64243067955036       -1.19717534827886        0.13357513135763
N            1.46566170514266       -1.90666985811555        0.08202155796955
C            0.41399087370674       -1.06412676259079        0.01500377880904
C            0.93154148482031        0.24220401215687        0.04130279935984
C            0.14439009405573        1.40422648326505        0.00482223114043
O            0.50771992446939        2.58587624251928       -0.00685988606889
N           -1.24167522663692        1.05209259002941       -0.02333792713704
C           -2.18150607824923        2.16476250662900       -0.05885185343163
C           -1.78697110430343       -0.20136821934852       -0.04317224947965
O           -2.98882521374203       -0.37065759253827       -0.00384699675765
N           -0.92788339095534       -1.35745393315614       -0.14483016144907
C           -1.54816121312913       -2.72544833346826       -0.17182807857418
H            3.74635357903015        1.30330821435364        1.06684038366376
H            4.02386612205007        1.08008134700728       -0.67404663982777
H            2.70866833414419        2.14642178826282       -0.10723592922991
H            3.62746009997562       -1.60076646903328        0.11541749993867
H           -1.59647507129545        3.08397066759950       -0.03310133748422
H           -2.77197703450086        2.12639176572969       -0.97520257114206
H           -2.86060743078569        2.12900428932898        0.79313065588376
H           -0.91731244831001       -3.38984654104553        0.42113470345318
H           -1.88631272788166       -3.46001779366933       -1.08591417144122
H           -2.50432642534226       -2.57581376647299        0.33145217151302
H            1.42470945688668       -2.91089170606940        0.09747541783149
25
 energy: 18.622682020649 xtb: 6.6.1 (8d0f1dd)
C            3.25814157145893        1.23283386803661        0.09372946923256
N            2.32792111900195        0.15150224178258        0.09071563859341
C            2.64571324107035       -1.19035946107827        0.14629237509150
N            1.46996288121094       -1.90111683784323        0.08907090059374
C            0.41693147115908       -1.05877588070080        0.01636836877014
C            0.93538096759757        0.24733781003952        0.03897263516178
C            0.14770636344486        1.40951215338022        0.00301677245432
O            0.51264715716610        2.59040598282254       -0.00736543264562
N           -1.23785002064245        1.05718331540202       -0.02612491096577
C           -2.17703091256799        2.16958618424268       -0.05926073751800
C           -1.78442488372745       -0.19585490917368       -0.04046576470832
O           -2.98552002508302       -0.36598526644497        0.00212607615305
N           -0.92481334991013       -1.35160751933741       -0.13913396132470
C           -1.54498519068886       -2.72098583454230       -0.17230893537590
H            3.74848701663983        1.31295441332191        1.06920057171859
H            4.02610498979331        1.08686458730124       -0.67149641606945
H            2.70974112195915        2.15221478551011       -0.10675796863093
H            3.63176645117334       -1.59250311919580        0.12231507702733
H           -1.58807711383990        3.08606136061525       -0.03233279915594
H           -2.76659250592049        2.13257553232966       -0.97630176266121
H           -2.85703178709597        2.13481688254301        0.79212767894438
H           -0.89033046002321       -3.40219072259790        0.36858306327822
H           -1.96956127609025       -3.50191890493874       -1.08461576151699
H           -2.47341686452973       -2.58234523638304        0.37438118980123
H            1.43303975078012       -2.90587192336700        0.10661575103170
25
 energy: 27.114311673631 xtb: 6.6.1 (8d0f1dd)
C            3.26079418127116        1.23905232598415        0.08989050971334
N            2.33066376104936        0.15724173588486        0.10275886955652
C            2.64808865890579       -1.18311266723011        0.16364321699596
N            1.47413510244793       -1.89505251762120        0.10465875277051
C            0.41997806393557       -1.05297132390637        0.02594535043470
C            0.93894118277466        0.25272404521329        0.04352444608361
C            0.15038862548443        1.41472455611284        0.00680715181896
O            0.51759912955457        2.59462566446487       -0.00490831313485
N           -1.23473234079124        1.06241488591093       -0.02285582657661
C           -2.17314143416662        2.17510784531583       -0.05866645075538
C           -1.78271451910140       -0.19052807855357       -0.02950742456803
O           -2.98278019621808       -0.36126430851861        0.01134723320235
N           -0.92162719833640       -1.34495539520594       -0.12681782040361
C           -1.53475031487624       -2.71080434563967       -0.17283430353160
H            3.75567775431355        1.32520292959550        1.06224638215040
H            4.02512473254523        1.08888565341784       -0.67845879183614
H            2.71152362453382        2.15694759593075       -0.11445516625863
H            3.63555470348504       -1.58310600009301        0.13343352303519
H           -1.58035858530825        3.08939143745677       -0.03333583192162
H           -2.76147568644241        2.13615465191226       -0.97627577823330
H           -2.85430082254925        2.14453327424250        0.79194064787270
H           -0.85821535458554       -3.41146730051339        0.30762323774178
H           -2.05107066300925       -3.55085028211665       -1.10298907238832
H           -2.44022723168689       -2.59531787154313        0.40289396648409
H            1.44127699324672       -2.90034191490979        0.12539683845554
25
 energy: 40.402405120407 xtb: 6.6.1 (8d0f1dd)
C            3.26354582244280        1.24462312058665        0.08980918581384
N            2.33390211894291        0.16091873533791        0.11414601013713
C            2.64768335670653       -1.17521441492986        0.17367622023281
N            1.47897160247852       -1.88835077258759        0.11346302803257
C            0.42281144247877       -1.04605533106338        0.03080339331898
C            0.94303576893011        0.25917082851133        0.04545425167116
C            0.15277192004912        1.42075855027261        0.00836221862027
O            0.52249837603588        2.59941489499980       -0.00306834169974
N           -1.23093611640897        1.06916953581526       -0.02371490206287
C           -2.17000927219557        2.18112096651369       -0.05864293866255
C           -1.78113798634585       -0.18323262548047       -0.02350588240973
O           -2.97969119590439       -0.35563588549643        0.01488453420039
N           -0.91741409687628       -1.33612115423238       -0.10982292254304
C           -1.51950641975612       -2.68392730361644       -0.15633109466017
H            3.76115889173001        1.33565995838423        1.05989276233185
H            4.02516328634353        1.09293396957367       -0.68060263073504
H            2.71355541930695        2.16159464792904       -0.11684711876759
H            3.63715441610612       -1.57295636380812        0.14279380103801
H           -1.57609291214685        3.09432710327158       -0.03260619232303
H           -2.75793257626521        2.14212606961187       -0.97581954464293
H           -2.85080245607277        2.15158024807773        0.79244301812204
H           -0.82683970761549       -3.40955181572746        0.25006840895622
H           -2.15230310049339       -3.64265074384098       -1.12805931687410
H           -2.40887474617870       -2.60345540252194        0.44044911498881
H            1.44964020867762       -2.89442577669970        0.13745876457430
25
 energy: 59.027133848662 xtb: 6.6.1 (8d0f1dd)
C            3.26515117670492        1.25063018167509        0.08946392552848
N            2.33824728090319        0.16097933763278        0.12180528579263
C            2.64321652605528       -1.16166359039913        0.17521310333271
N            1.48711152383582       -1.87881114801999        0.11975170672207
C            0.42441462761348       -1.03292247077033        0.04269965043286
C            0.95138061562252        0.26953100872017        0.04743845097380
C            0.15406215468623        1.43137361648536        0.00852386636323
O            0.53009599934345        2.60436270500790       -0.00267075008022
N           -1.22124943394343        1.08186838044805       -0.02507605518275
C           -2.16523233148496        2.18915817356155       -0.06173775312742
C           -1.77691573741214       -0.17292798763555       -0.01284904181618
O           -2.97226955284948       -0.34410190399391        0.01859956835057
N           -0.90378892602697       -1.31515796042510       -0.06721911738841
C           -1.48397217822785       -2.62516663953162       -0.10280055437459
H            3.76107882596074        1.34601285535914        1.05885591533908
H            4.02469183474932        1.10106128298518       -0.68233576474174
H            2.71079798501711        2.16527126238230       -0.11874459875416
H            3.63543744934902       -1.56053383923250        0.15604034889026
H           -1.57480217572060        3.10418077296010       -0.03607457346259
H           -2.75275385294305        2.14696306867548       -0.97825732745689
H           -2.84534052305431        2.15544801031970        0.79028623923438
H           -0.80078414212715       -3.40986739274940        0.17674987793979
H           -2.30583688535179       -3.81692902650710       -1.18864680184988
H           -2.37969836743955       -2.61443231652452        0.48229465106230
H            1.45793915845342       -2.88654538683936        0.14580828814641
25
 energy: 68.178087646835 xtb: 6.6.1 (8d0f1dd)
C            3.26619203947713        1.25596289438296        0.08912550412762
N            2.34093110314878        0.16273118498459        0.12735878378384
C            2.64090321123895       -1.15000343034970        0.18077867308782
N            1.49375453327400       -1.87075388311895        0.12731974587667
C            0.42684830557091       -1.02077804203442        0.05680419378089
C            0.95803508269729        0.27980466104214        0.05347991184506
C            0.15536040596465        1.44105564646943        0.01025781049201
O            0.53469140567392        2.61123986861633       -0.00772687331554
N           -1.21441745037433        1.09128618924557       -0.02182776345665
C           -2.16179472878331        2.19605814071767       -0.06440224700082
C           -1.77315036558344       -0.16465880249988       -0.00567002939654
O           -2.96675904200515       -0.33540361896647        0.01679058695659
N           -0.89291335784959       -1.29850555433602       -0.03972053365496
C           -1.45213862311681       -2.58790781070610       -0.08166514017318
H            3.76119090546339        1.35647019909895        1.05764487368826
H            4.02551426532348        1.10111457185066       -0.68005940358938
H            2.70973368056534        2.16860159709598       -0.12391990322822
H            3.63425527968114       -1.54838593503463        0.16278933041532
H           -1.57617169474389        3.11365650487580       -0.03661982564143
H           -2.74748630189275        2.15283148398362       -0.98197092389357
H           -2.84354704303566        2.15985605804719        0.78572131710020
H           -0.78036782433732       -3.40657357405109        0.10829603619453
H           -2.42489924710812       -3.95061345922940       -1.22180910086870
H           -2.36698998646763       -2.63067282077881        0.45538351138049
H            1.46713272543064       -2.87892311777880        0.15476422395341
25
 energy: 73.620364017593 xtb: 6.6.1 (8d0f1dd)
C            3.26683327379883        1.26047677837410        0.08621387388528
N            2.34225919250343        0.16418595492521        0.12688992449085
C            2.63802551843432       -1.13982845222485        0.18292878249997
N            1.49932363020141       -1.86419337791540        0.13329263853243
C            0.42781317277536       -1.01057616585753        0.07041646090129
C            0.96240750968438        0.28945673741461        0.05998550905775
C            0.15535736385809        1.44876675027523        0.01461746785431
O            0.53689011690552        2.61788334129262       -0.00863810596085
N           -1.21030202519357        1.09851687473976       -0.01639279652959
C           -2.16007908135338        2.20130953831073       -0.06770033460853
C           -1.76947708665661       -0.15758713495404       -0.00088160394426
O           -2.96320800567329       -0.32878226224091        0.00927652144314
N           -0.88682612262604       -1.28579513775399       -0.01414027466796
C           -1.43137099894512       -2.55730497338292       -0.05926137887609
H            3.76290473703460        1.36448749752787        1.05305854137149
H            4.02705594586746        1.10111968161159       -0.67887907741848
H            2.71088689283555        2.17295548683892       -0.13000001207558
H            3.63219199265878       -1.53651971943075        0.16979059714073
H           -1.57838553691095        3.12079215743974       -0.03956660200371
H           -2.74267762003602        2.15666610807506       -0.98704298624597
H           -2.84354704850390        2.16432041934396        0.78017630317825
H           -0.76275654421535       -3.39625854580756        0.04186908263885
H           -2.52926185447549       -4.07197158799260       -1.24726745918070
H           -2.38030148140617       -2.64571750843696        0.41010479085927
H            1.47811667341509       -2.87228902888705        0.16465301462669
25