72
 energy: -99.162862397996 gnorm: 1.059724105188 xtb: 6.6.1 (8d0f1dd)
N           -1.67155541749639        2.98925845674466        2.35222591583639
C           -1.75297639027264        2.20819744199019        1.38097071373834
C           -2.96225074641970        2.06634212259364        0.49901015925716
C           -3.44439586624581        0.62252826741668        0.52505375069315
C           -4.32371246295338        0.17851390610582       -0.40517402528486
C           -4.69175363102807       -1.27076376099532       -0.57542255796893
O           -3.71731638483543       -1.76782569884960       -1.59239724167227
C           -4.33590554413529       -2.31322621337412       -2.73315241139992
C           -4.39161593869312       -2.03757608262903        0.69936982275334
O           -5.00742281356187       -3.21551725025892        0.73492894327004
C           -4.93277737697976       -4.12486714289060        1.65994012821582
C           -3.51076638012266       -1.53705104135143        1.65395702366484
C           -3.01011180181444       -0.25733751579667        1.55430704031750
C           -2.48067928538753        2.43907688020727       -0.93029077914411
C           -1.66010662491556        1.35098829039123       -1.64874128941405
C           -0.32326067946383        1.14020367936588       -1.05679043430667
N            0.22337956519980       -0.03460824708921       -0.78887729346386
C            1.59394033491160       -0.10957891566619       -0.34031727155742
C            2.55605960557276       -0.48268798895950       -1.48581892425563
C            3.97639793972304       -0.25726262800026       -1.04810164951400
C            4.57789728942246        0.97625132399849       -1.23809596013589
C            5.87415248628877        1.20934971790468       -0.80615587912541
C            6.59493903957109        0.21067261135502       -0.16780899892833
O            7.85478526750258        0.32453897105517        0.29307940290526
C            8.54194588178993        1.54213941258576        0.11795758012448
C            5.98546431357908       -1.05851666962607        0.03418007282146
O            6.75770808529835       -1.97027001598041        0.65851059697793
C            6.25480757578774       -3.26646369545988        0.87714502576941
C            4.68755898497591       -1.26760276092920       -0.40537061604583
C           -0.46761142294216       -1.27943946372518       -1.02759779823300
C           -4.14846781811780        2.98243596010713        0.91462214549223
C           -4.64985681705048        2.63888098149264        2.31538130106414
C           -3.81864063005359        4.47047345728115        0.83551025586580
H           -4.70456526360768        0.83022833706944       -1.17463606969454
H           -4.96946832384887       -3.16967105570233       -2.47995938925169
H           -3.52581963465988       -2.64514378488619       -3.38090148400750
H           -4.93505771231368       -1.56509332779931       -3.26376021680561
H           -5.38350434059035       -1.38745392265832       -0.82314977636336
H           -5.51905075680236       -5.00618630634233        1.48373461608576
H           -4.33884313992627       -4.01516964210371        2.54869715384129
H           -3.22763600947316       -2.14752678989678        2.49776985673837
H           -2.33458908273859        0.10221578184897        2.31267513155141
H           -3.35469606430015        2.65479365691438       -1.54308212807268
H           -1.88745245288598        3.35209976903852       -0.86892198560734
H           -2.22932363157270        0.42380164690127       -1.69421013553068
H           -1.51263241005399        1.70408878031115       -2.67785415010261
H           -0.91733277505703        1.57255423324290        1.03139192372275
H            0.30304242362729        2.00957142862011       -0.91311280313792
H            1.67054210144388       -0.85026901045733        0.45980159070329
H            1.89353129749365        0.86058298306596        0.06296710174222
H            2.33345721881889        0.15067601196053       -2.34649726662300
H            2.40472933389089       -1.52322100333171       -1.77391343094116
H            4.04101962298012        1.76752104044596       -1.73922135431444
H            6.31725100596281        2.17670106051449       -0.97641935022735
H            8.03763868066726        2.36482786423113        0.63396540392834
H            8.65454038200649        1.78950731782527       -0.94182861784717
H            9.52480699447890        1.38862547348871        0.55901154727894
H            7.05963500340692       -3.81316295069901        1.36483267622080
H            5.37877111072817       -3.25170277845108        1.53370782128429
H            5.99940512895340       -3.76233436314854       -0.06454173291946
H            4.21826915671879       -2.22829866733651       -0.26230825841975
H           -0.60976632736396       -1.45006574980932       -2.09647366482943
H           -1.45090058269336       -1.28016049086019       -0.55463993750112
H            0.11741153995689       -2.09912720653133       -0.61894842467439
H           -4.95877938963435        2.77228442281960        0.20673793066371
H           -3.89152852704234        2.88472566392717        3.05279230674016
H           -4.89463521109717        1.58183825357988        2.39668866809145
H           -5.54547980360639        3.21474994249104        2.53422784628443
H           -2.97339915903715        4.70232795834242        1.47622290068770
H           -3.59567726227235        4.78306770556612       -0.18133482274328
H           -4.67515947663934        5.04405228957716        1.18081984784629
H           -0.79009040406887        3.02862856172372        2.85489877047778
72
 energy: -99.322896942636 gnorm: 0.046275020941 xtb: 6.6.1 (8d0f1dd)
N           -1.67125019338541        2.98949212678958        2.35255275767683
C           -1.75245792930327        2.20859119386098        1.38098757576488
C           -2.96125854992407        2.06862575661051        0.49961118006979
C           -3.43997515759004        0.62792861650370        0.52953692557131
C           -4.30820341877310        0.18653997009742       -0.40125813500214
C           -4.58770475653504       -1.25696567382753       -0.54269487408877
O           -3.69559297208981       -1.77026055306796       -1.59730607299503
C           -4.33470375790809       -2.31232626819352       -2.73092818633717
C           -4.37676313328748       -2.03973775868362        0.70874860682241
O           -5.00407976811893       -3.21362072392443        0.73494162795010
C           -4.93364478406951       -4.12449668995736        1.65976811642284
C           -3.50682950777668       -1.53694745769681        1.66008928782017
C           -3.00827843404603       -0.25677487091183        1.55603791322743
C           -2.48059807944942        2.43920244213619       -0.93026738915749
C           -1.65999263255151        1.35099930289085       -1.64870314462859
C           -0.32329239870081        1.14015207511797       -1.05673164760333
N            0.22333546127045       -0.03455180103812       -0.78890264439645
C            1.59392135865029       -0.10956592217591       -0.34040237625881
C            2.55606644884283       -0.48268314525519       -1.48586385989575
C            3.97638826819513       -0.25725406476140       -1.04809793881071
C            4.57790647620172        0.97625027058504       -1.23809869985099
C            5.87416416150997        1.20933152700290       -0.80615444871357
C            6.59494892387398        0.21065623754604       -0.16781410156309
O            7.85477327329572        0.32450763920368        0.29307354266066
C            8.54195821360206        1.54210735479486        0.11795371962567
C            5.98546058246881       -1.05851338590238        0.03417464632297
O            6.75770820605443       -1.97029573796879        0.65847275829518
C            6.25479206292797       -3.26648924318908        0.87712579824993
C            4.68755565213971       -1.26760409616614       -0.40539191699224
C           -0.46751717104507       -1.27938262674649       -1.02768776325645
C           -4.14860295924021        2.98279478525258        0.91478165018170
C           -4.64988441943168        2.63888097458275        2.31546488718046
C           -3.81867576862598        4.47064346209390        0.83554697820742
H           -4.70391527975741        0.82911240471779       -1.17369907962237
H           -4.96879897560746       -3.16892834751619       -2.47875990435716
H           -3.52719164053174       -2.64582591094949       -3.38171483061276
H           -4.93467500017315       -1.56479025527624       -3.26231119806788
H           -5.55695376006905       -1.41742171836686       -0.88647236617315
H           -5.51941241570005       -5.00596480271550        1.48321956130423
H           -4.33895508123389       -4.01558322176168        2.54884137455563
H           -3.22659398702467       -2.14788499885291        2.50086415632684
H           -2.33388683055178        0.10276061400178        2.31375984407369
H           -3.35478155517127        2.65484482203988       -1.54312584433829
H           -1.88732858276058        3.35231265021116       -0.86894760575757
H           -2.22922129763060        0.42394832690336       -1.69424072634608
H           -1.51260101650162        1.70401313670288       -2.67770445979571
H           -0.91749159001938        1.57278705415745        1.03157063018022
H            0.30293059399289        2.00947112348267       -0.91311775459775
H            1.67054821816108       -0.85020594167047        0.45977053914261
H            1.89346130872421        0.86054975452755        0.06290247365817
H            2.33346980690114        0.15068968825040       -2.34650671606806
H            2.40472994603066       -1.52321190148952       -1.77392986620542
H            4.04103610764900        1.76753120786216       -1.73922014258294
H            6.31726942857643        2.17668797724729       -0.97641337708132
H            8.03765517387173        2.36481673129260        0.63400059372440
H            8.65455690795956        1.78948890472767       -0.94184816472866
H            9.52484476603952        1.38859350497332        0.55900930209511
H            7.05958282634854       -3.81317703292633        1.36482050109380
H            5.37876077760056       -3.25172057675151        1.53365537302637
H            5.99941207492985       -3.76234383359946       -0.06452838565164
H            4.21827426083416       -2.22830284798443       -0.26233452888284
H           -0.60955823386644       -1.45010620409206       -2.09644367888770
H           -1.45087510349945       -1.28013200606973       -0.55483855932047
H            0.11735501091241       -2.09897606341210       -0.61888479515991
H           -4.95871496388645        2.77225607018327        0.20676174338701
H           -3.89175172143812        2.88464076992220        3.05271266395591
H           -4.89463474980379        1.58206152434581        2.39666225807647
H           -5.54534193481016        3.21470862957952        2.53425908906268
H           -2.97352844810589        4.70236971397484        1.47625791815064
H           -3.59571344630968        4.78308294859472       -0.18118770982227
H           -4.67510500755003        5.04405336812722        1.18069436340814
H           -0.79001428672803        3.02870054451229        2.85516737893047
72
 energy: -99.325070359935 gnorm: 0.033417576972 xtb: 6.6.1 (8d0f1dd)
N           -1.66851253889669        2.99513076638765        2.35663026390026
C           -1.74924103114525        2.21555106642749        1.38368299493192
C           -2.95925615842085        2.07063247122380        0.50402960477774
C           -3.43494107703565        0.62610791762408        0.52832229749053
C           -4.30639927320696        0.17734194895596       -0.40814899736142
C           -4.60974977216897       -1.26881157175777       -0.56029135548188
O           -3.70002928021055       -1.77420850481095       -1.59679074250876
C           -4.33050385783084       -2.31829907064684       -2.73037249305528
C           -4.37052684117329       -2.04196791750609        0.69979947114263
O           -4.99580676732293       -3.21520541597081        0.72839693497329
C           -4.92995574064602       -4.12249014080432        1.65783400459487
C           -3.50182874494951       -1.53597984555483        1.66142944150229
C           -3.00237546877658       -0.25565644253833        1.55751719031923
C           -2.47998081282231        2.44090472440091       -0.92686765209228
C           -1.65986773512510        1.35294133562166       -1.64682041857355
C           -0.32312811316420        1.14106933115884       -1.05580176524485
N            0.22362652363782       -0.03381265739693       -0.78916782337267
C            1.59423092818517       -0.10900010051169       -0.34100764894134
C            2.55618838440586       -0.48225695077302       -1.48659008015492
C            3.97652838521423       -0.25718927162055       -1.04867389287865
C            4.57827337045384        0.97625465988782       -1.23837629708704
C            5.87458447502406        1.20899439285518       -0.80640482724339
C            6.59517170432455        0.21008073908816       -0.16821126140949
O            7.85502282994703        0.32357348663787        0.29260365072015
C            8.54249534441421        1.54106000411640        0.11770607085495
C            5.98546873873396       -1.05902898589337        0.03349523714738
O            6.75749871951226       -1.97106641494930        0.65769654483899
C            6.25424793936151       -3.26715921910605        0.87624710588882
C            4.68751106787253       -1.26777882989449       -0.40611489104408
C           -0.46646130189613       -1.27870971160632       -1.02911041559844
C           -4.14765680770589        2.98461657922092        0.91696236432935
C           -4.65056389800538        2.64006375907851        2.31671881280476
C           -3.81961999973723        4.47285527832830        0.83716016794014
H           -4.69919489737270        0.82078029730360       -1.17845946686058
H           -4.96493187174517       -3.17171517815886       -2.47153743979161
H           -3.52531691148856       -2.65313238275634       -3.38308866363452
H           -4.93281428460045       -1.56873463525649       -3.25538199415891
H           -5.59281701466544       -1.43175357867580       -0.90847841943551
H           -5.52052581333264       -5.00143751582832        1.48368911159238
H           -4.34002567658348       -4.01133704908742        2.55006200551773
H           -3.23253656838583       -2.13825061779096        2.51558766937503
H           -2.33311115336734        0.10730355405861        2.31970009480521
H           -3.35460498932497        2.65614379188356       -1.53951894664133
H           -1.88674259092156        3.35435711276501       -0.86670621149274
H           -2.22888746232450        0.42596507710437       -1.69403986077494
H           -1.51251302221825        1.70640990352162       -2.67550951419837
H           -0.91529433262072        1.57831446542355        1.03581527193802
H            0.30309532639894        2.01009561715473       -0.91178208203170
H            1.67101399634622       -0.84956765589913        0.45921709565360
H            1.89361233406531        0.86112412243002        0.06219692555479
H            2.33375913266596        0.15123644319591       -2.34718864357839
H            2.40472860247354       -1.52277028794682       -1.77469745435460
H            4.04158372447177        1.76775055364422       -1.73935117794067
H            6.31789834164706        2.17630024777770       -0.97647339090590
H            8.03850326984075        2.36375689169439        0.63414082119220
H            8.65496932437737        1.78869528248149       -0.94206837575092
H            9.52546567307011        1.38722056068310        0.55851544118525
H            7.05870262814155       -3.81395228191368        1.36430072931401
H            5.37797526157601       -3.25221705074614        1.53241118306804
H            5.99916058622440       -3.76305464107194       -0.06541950029639
H            4.21811323524026       -2.22846021108128       -0.26335257904505
H           -0.60586740707100       -1.45023894898640       -2.09797065731622
H           -1.45090965999771       -1.27962467616048       -0.55880669561909
H            0.11756395487452       -2.09775370749676       -0.61821187431429
H           -4.95640211059660        2.77241105107425        0.20793231337844
H           -3.89341127790659        2.88476508392414        3.05487916762538
H           -4.89583672701573        1.58352520384859        2.39673007547548
H           -5.54580775175639        3.21597752046363        2.53510870307095
H           -2.97567560342743        4.70555321359892        1.47887780315607
H           -3.59542645006278        4.78458467537678       -0.17934399342817
H           -4.67682228574131        5.04601782625773        1.18019473819042
H           -0.78859712275165        3.03129403602488        2.86181103795935
72
 energy: -99.325953658306 gnorm: 0.019018108117 xtb: 6.6.1 (8d0f1dd)
N           -1.67147251102209        2.99633482929998        2.36124949584353
C           -1.75058784052479        2.21549482508077        1.38886842131722
C           -2.95813094806933        2.07148508974192        0.50489931796551
C           -3.43359414000702        0.62537228039668        0.52826963656888
C           -4.30344340254845        0.17361825153897       -0.41210408079481
C           -4.62390536492335       -1.27559610751163       -0.57178029441548
O           -3.70547809746857       -1.77726775776185       -1.59503808711180
C           -4.32663039834778       -2.32730512924583       -2.72926914000743
C           -4.36807018665245       -2.04300967449064        0.69600993423162
O           -4.98846029941137       -3.21726635027783        0.72718749575299
C           -4.92577003891561       -4.12264372754945        1.65895536877595
C           -3.50368685771281       -1.53342360175405        1.66357651471626
C           -3.00431957223297       -0.25293117539757        1.56113747189898
C           -2.47759273567640        2.44456485687804       -0.92527497549272
C           -1.65774202267376        1.35710028517204       -1.64627310199684
C           -0.32179615926263        1.14325594401339       -1.05472538865727
N            0.22436765015011       -0.03213252869042       -0.78921987772707
C            1.59507803490364       -0.10789150731202       -0.34172065775525
C            2.55656037990052       -0.48144943959621       -1.48757605027517
C            3.97697871323605       -0.25700497201528       -1.04964823043216
C            4.57910749948605        0.97631645524289       -1.23882800785667
C            5.87546090854987        1.20845546056799       -0.80667966690457
C            6.59570611957480        0.20907460879687       -0.16883890143689
O            7.85558479636510        0.32196380481301        0.29201940300801
C            8.54350653353837        1.53926857953558        0.11752199524530
C            5.98553521508074       -1.05986874631270        0.03242213834812
O            6.75715480594858       -1.97239196129810        0.65644479739238
C            6.25329280498681       -3.26828939819766        0.87479028343395
C            4.68758647466146       -1.26806307042265       -0.40743946947683
C           -0.46483545344094       -1.27697996224279       -1.03151339046341
C           -4.14728735857491        2.98481270763529        0.91794843905519
C           -4.65123646550268        2.64056919793405        2.31748186250150
C           -3.82018428330009        4.47351549741254        0.83919413353294
H           -4.69051684557213        0.82027752502875       -1.18165091966422
H           -4.95924570675191       -3.18057600240365       -2.46627739928389
H           -3.52371249579762       -2.66361148445061       -3.38323013604943
H           -4.93102084199850       -1.57964245112550       -3.25438064575895
H           -5.62708233487761       -1.43996029575885       -0.92433952233962
H           -5.51849816387231       -5.00006837185876        1.48447670404201
H           -4.33933171261411       -4.01064538340631        2.55326707900171
H           -3.23694453351681       -2.13223606974862        2.52184437157332
H           -2.33816278421475        0.11250657550674        2.32598185781412
H           -3.35265580453279        2.66018391061767       -1.53729717342244
H           -1.88415640603820        3.35808829989404       -0.86464228801310
H           -2.22744912705222        0.43069945381688       -1.69559069262289
H           -1.50984948078786        1.71231079503524       -2.67416371780620
H           -0.91351105746465        1.58406685229328        1.03899990638533
H            0.30451397740754        2.01177409867184       -0.90892199830221
H            1.67197225105020       -0.84835328469880        0.45855824830127
H            1.89473556985956        0.86217531004016        0.06122648243935
H            2.33432598450817        0.15227104160213       -2.34803877175077
H            2.40463083722957       -1.52186346597230       -1.77578183947454
H            4.04267913239083        1.76820635651508       -1.73946787129817
H            6.31909599145493        2.17568042322318       -0.97633180020757
H            8.04000618403926        2.36190696424896        0.63457288393453
H            8.65576016097104        1.78739319645309       -0.94217588616520
H            9.52657363126965        1.38482378264767        0.55794309028484
H            7.05716740586329       -3.81531327535992        1.36350913221697
H            5.37654432423415       -3.25298269369951        1.53028467059499
H            5.99873497641171       -3.76419213268985       -0.06698339713083
H            4.21791776182005       -2.22867814799645       -0.26510339397557
H           -0.59870757349068       -1.44975799154169       -2.10090057747783
H           -1.45155746167643       -1.27756768615529       -0.56602164464183
H            0.11720563401912       -2.09548424612397       -0.61676121180153
H           -4.95514491423126        2.77201054460448        0.20809945925767
H           -3.89426746115725        2.88357335226537        3.05634748342179
H           -4.89820607811330        1.58444944472612        2.39616317656423
H           -5.54561613367494        3.21770197896956        2.53604285824703
H           -2.97827138032192        4.70761861445098        1.48306965924791
H           -3.59407267761117        4.78569511721596       -0.17668622020292
H           -4.67890457378232        5.04579792919629        1.17977127027999
H           -0.79015847651114        3.03817337448947        2.86380622759058
72
 energy: -99.326184375388 gnorm: 0.009193390510 xtb: 6.6.1 (8d0f1dd)
N           -1.67303662142469        2.99936700277804        2.36110998647680
C           -1.75016402641038        2.21911066480394        1.38803967226135
C           -2.95831682316788        2.07216050067899        0.50491329263001
C           -3.43422676947408        0.62587007610472        0.52819598186190
C           -4.30059116337083        0.17413450350745       -0.41412315475640
C           -4.62374913751026       -1.27581403994339       -0.57361182547010
O           -3.70833813204847       -1.77915035454658       -1.59477539188734
C           -4.32629148348398       -2.33564846765891       -2.72808924782385
C           -4.36940076690276       -2.04260281376963        0.69654075161384
O           -4.98608883627628       -3.21840264326685        0.72873117808888
C           -4.92340588354200       -4.12377833865200        1.66035590508377
C           -3.50784434922903       -1.53130227572680        1.66462819430616
C           -3.00872045029476       -0.25078615112077        1.56383009811485
C           -2.47643498086448        2.44689357066666       -0.92408813035620
C           -1.65578253754144        1.36080380290483       -1.64616410763546
C           -0.32053508010456        1.14569063370176       -1.05359655203744
N            0.22514241211602       -0.03022441088396       -0.78901525251877
C            1.59602267917301       -0.10666900341113       -0.34214019603888
C            2.55694930631957       -0.48051106428441       -1.48836403563426
C            3.97750831133561       -0.25677280862242       -1.05057178325828
C            4.58004677832864        0.97641382382308       -1.23923487520319
C            5.87645085941922        1.20792885712307       -0.80690399719917
C            6.59632700233946        0.20805879846295       -0.16941924352791
O            7.85622344047524        0.32035691849212        0.29155700757332
C            8.54456670144886        1.53748161068573        0.11745501336025
C            5.98567609276849       -1.06071804185896        0.03136662666758
O            6.75686137744035       -1.97372525729866        0.65524117777383
C            6.25235126059809       -3.26940380694900        0.87338220993917
C            4.68773201126431       -1.26833419588618       -0.40874713391306
C           -0.46344083005146       -1.27491054928795       -1.03383482908743
C           -4.14801126086697        2.98491963348952        0.91823473359157
C           -4.65246128453544        2.64004616577396        2.31746741126798
C           -3.82134865601457        4.47382991221503        0.84031183949372
H           -4.68294995241100        0.82186402277992       -1.18566629821267
H           -4.95622347029835       -3.19048909845797       -2.46303469611427
H           -3.52245333096310       -2.67220017306701       -3.38065534880168
H           -4.93231185824782       -1.59203732398707       -3.25726066652356
H           -5.63966215629870       -1.43950846586697       -0.92724594553169
H           -5.51472405484505       -5.00172151203831        1.48420434674510
H           -4.33852484065331       -4.01145505695507        2.55561654985896
H           -3.24103670861484       -2.13069735759328        2.52194801199848
H           -2.34531862154366        0.11556760498989        2.33069808835008
H           -3.35116172875231        2.66366291654372       -1.53613244793728
H           -1.88300294452884        3.36024887089522       -0.86127595055334
H           -2.22575773440828        0.43467938414275       -1.69750809039627
H           -1.50684644251540        1.71786590152828       -2.67329032694155
H           -0.91354745263660        1.58473114409016        1.04245494451716
H            0.30585832559297        2.01386531036570       -0.90601866215747
H            1.67298058227336       -0.84723367906251        0.45802584477043
H            1.89626636711753        0.86321084180656        0.06077396808187
H            2.33481650661224        0.15347148890673       -2.34865709110511
H            2.40447224774088       -1.52080713853886       -1.77669557554370
H            4.04388629283694        1.76869232165908       -1.73955336437048
H            6.32040542439675        2.17507849761882       -0.97612315767763
H            8.04151668985469        2.36005570165447        0.63504766960783
H            8.65663209300606        1.78609169761911       -0.94215039545156
H            9.52769083047463        1.38244207230142        0.55754000677051
H            7.05567967464641       -3.81669425407505        1.36270818980624
H            5.37515545909751       -3.25370940972558        1.52827159331859
H            5.99825258339544       -3.76528905864121       -0.06852659487427
H            4.21773566947323       -2.22884916991929       -0.26680108298899
H           -0.59177934981173       -1.44857258967203       -2.10384432149927
H           -1.45248126135034       -1.27485620571503       -0.57326818324410
H            0.11630045695190       -2.09325971678846       -0.61543847509131
H           -4.95564317946319        2.77218303512008        0.20812099349979
H           -3.89540901115450        2.88180248216536        3.05665475280270
H           -4.90093198269061        1.58421656622758        2.39553999039582
H           -5.54604468805886        3.21840516447541        2.53611744240161
H           -2.98106058456217        4.70812554944805        1.48629168318049
H           -3.59300826464446        4.78662880445577       -0.17491295871077
H           -4.68120985582342        5.04546674759195        1.17924727785585
H           -0.79371329212561        3.03885135417983        2.86738179860033
