72
 energy: 18.907720590007 xtb: 6.6.1 (8d0f1dd)
N           -1.54232635099703        2.82513673715029        2.26276370103866
C           -1.55773071292489        2.15670006333872        1.19988303580342
C           -2.73345310591156        2.05714755174448        0.26722744179247
C           -3.30274911525730        0.64720209847902        0.34445575784012
C           -4.28276587557294        0.24312423259826       -0.56520228619970
C           -4.83233884154128       -1.02370662597063       -0.52207742070866
O           -5.79435003251173       -1.49104443184994       -1.36600987509108
C           -6.36522813660879       -0.60816932475557       -2.29781924703656
C           -4.39222105502349       -1.94273520125503        0.45735941016096
O           -4.99069720667416       -3.16866272598658        0.42286917783605
C           -4.66544348710306       -4.10452503793104        1.41736288211156
C           -3.42364708483147       -1.54247990941685        1.35718903712582
C           -2.88787649857092       -0.26016657894277        1.30176698278751
C           -2.16466576959951        2.30071184456230       -1.15514921375803
C           -1.24768754798520        1.17733216570603       -1.67413479168058
C            0.05403088821988        1.12826694815830       -0.96359409928183
N            0.67897323062596       -0.04205536915143       -0.57359209491595
C            2.04692602468847       -0.00723673264718       -0.17839733805952
C            2.98696856613033       -0.51307667635562       -1.29193697824672
C            4.40752010469225       -0.37439284404418       -0.84804490499312
C            5.12309782587681        0.78257646397687       -1.09404118852834
C            6.42773504685362        0.88632165121310       -0.62846254978388
C            7.03625290332331       -0.15241259472852        0.10843594620540
O            8.32492084526178       -0.04371426873509        0.54405453759400
C            9.06927352955420        1.11508830703382        0.25171799085523
C            6.29671117486368       -1.39090041026522        0.38797136880234
O            6.69501843618423       -2.61517948609598        1.07732366999607
C            6.06726442048696       -3.99908213685552        1.17942842687639
C            5.00848118260606       -1.39733340905386       -0.11705241512327
C            0.00859313499138       -1.31038575943162       -0.63982510252483
C           -3.87270719467059        3.06880654999001        0.57456553463096
C           -4.52640762792984        2.77491708070052        1.92354102895312
C           -3.40784144839448        4.52316858447225        0.53797233863708
H           -4.62457767073516        0.93873383770152       -1.31420572464574
H           -6.81521640762840        0.26378959663171       -1.81063634823237
H           -7.14491012855263       -1.17949128297421       -2.79934969080808
H           -5.63331464141958       -0.27183699761031       -3.04079015223554
H           -4.88797173399247       -3.72395482909279        2.41981376071477
H           -5.29239105503907       -4.97154195381788        1.21432106458124
H           -3.61209419054359       -4.40193313678261        1.36732963719332
H           -3.07628525791163       -2.21830235869482        2.12354872332676
H           -2.15147326856479        0.02349545391846        2.03896208301479
H           -2.99569716113038        2.42048404877564       -1.85170158447775
H           -1.60104055835446        3.23459531963381       -1.15467661692276
H           -1.77718224265012        0.22761895606070       -1.60204133468151
H           -1.05206769127413        1.37597318584251       -2.73848929274468
H           -0.68509964712998        1.63300802574706        0.76893054275198
H            0.67173781853215        2.00460628535867       -0.97952075662439
H            2.17880159610123       -0.62599881172774        0.71845331280920
H            2.31895485849969        1.02213105523999        0.06966519478877
H            2.80926579066187        0.08658610357548       -2.18733153063866
H            2.74693111235261       -1.55345906719935       -1.51411782535077
H            4.66944307963751        1.58847091657199       -1.66295131673648
H            6.94864327845407        1.81054205080740       -0.87199289413548
H            8.63425280978494        2.01607031066595        0.69963529464053
H            9.19050411573754        1.27549748272233       -0.82636504098284
H           10.04880812545182        0.93892439933209        0.69481142503126
H            6.83496818873318       -4.62613226410884        1.65452280716178
H            5.21308814655445       -3.98664941096328        1.84560959108613
H            5.80343176820945       -4.49465757637675        0.24533722469646
H            4.43975998185860       -2.29422916481997        0.07252427047989
H           -0.15687567682506       -1.63351470827832       -1.67569422170886
H           -0.95852066868859       -1.26257507099307       -0.12949574045104
H            0.62831952271494       -2.05751621540408       -0.14499323460322
H           -4.63200606396620        2.93725380736809       -0.20698401626157
H           -3.80323433335430        2.91544028110360        2.71818308805303
H           -4.89794052355338        1.75348861598829        1.96131150834435
H           -5.36186420578263        3.45297509762054        2.08435363374699
H           -2.62953937362062        4.68350804947352        1.27647818883840
H           -3.03347956375513        4.80344177790322       -0.44335538961758
H           -4.24649330501331        5.17500812790720        0.77335206490635
H           -0.67716077489762        2.82814356079624        2.79338452270641
