72
 energy: -103.311879731392 gnorm: 0.095152471708 xtb: 6.6.1 (8d0f1dd)
N           -1.50811013953932        2.76064473167240        2.23242427870412
C           -1.57027201357326        2.16590374486929        1.14735714173364
C           -2.75084228295556        2.05376222202966        0.23620439319540
C           -3.31539528797398        0.64429418244997        0.32107298824039
C           -4.30457753962414        0.24584136564781       -0.58006038990552
C           -4.85343017002212       -1.02149087333101       -0.53525151339040
O           -5.81838736723500       -1.48575571678900       -1.36262365208536
C           -6.40239386204095       -0.60498954744617       -2.29304483581333
C           -4.39925800844975       -1.94579629838410        0.44026756832338
O           -4.98798569270587       -3.16360943338657        0.40623015544309
C           -4.65799580186694       -4.10463244078059        1.39874874632138
C           -3.42032511536056       -1.54587140962810        1.32895688114665
C           -2.88465147534048       -0.26298409015147        1.27035721006858
C           -2.18920964560204        2.29996190507043       -1.18712005194983
C           -1.26144724025892        1.17332913815815       -1.65980328618188
C            0.01189533710533        1.10813992334500       -0.88838331237417
N            0.62487423735806       -0.02903950794270       -0.56876016008219
C            2.00586467556379       -0.02929093178768       -0.15218380642501
C            2.93233397483205       -0.53557959945175       -1.27525493011993
C            4.36293391691367       -0.42964407926849       -0.83344108707890
C            5.08010774723012        0.73427149073075       -1.03659618989169
C            6.39252671353215        0.84199974945512       -0.59989087177368
C            7.00646861496523       -0.21192782614507        0.05633517520227
O            8.27580854947348       -0.21598666351930        0.52270721440462
C            9.07775145369736        0.92226533260120        0.31771544308595
C            6.27563080916783       -1.40631991322022        0.27650350580047
O            6.95463192505546       -2.38668153125323        0.92172891021480
C            6.31861219516361       -3.62079472542858        1.14269204766176
C            4.96691944485045       -1.49376360031772       -0.16313020750522
C           -0.04946075578838       -1.30429321723845       -0.61827717944725
C           -3.87476276338944        3.06886977375147        0.58454765461329
C           -4.47994699925833        2.78971966485343        1.96151136183932
C           -3.40941552136772        4.52281878084142        0.51315799549166
H           -4.66170591228247        0.94727409383816       -1.31721640587088
H           -6.85387594657279        0.26133253226437       -1.79923039536780
H           -7.18055998490051       -1.18130319692187       -2.78985871695968
H           -5.67577388375242       -0.26458454164914       -3.03864553808197
H           -4.87596827562625       -3.72413409910687        2.40077336125834
H           -5.28443519217018       -4.97153862151145        1.19751428353857
H           -3.60468284919593       -4.39910006928657        1.34109936080982
H           -3.06763966229198       -2.22099262642032        2.09323213403454
H           -2.14308842428207        0.01989122359842        2.00438598571984
H           -3.01554946150074        2.38203342821683       -1.89102951225827
H           -1.64614501101350        3.24648550119676       -1.20347731865546
H           -1.80257723542665        0.22948136445192       -1.62052564755516
H           -0.99721843458119        1.37329407128805       -2.70351580205300
H           -0.68023051198788        1.66511460861644        0.65468893139917
H            0.64292988242029        1.98845695157588       -0.93138360295127
H            2.11792793032012       -0.66510477568507        0.72879651429726
H            2.30536143582899        0.98366493647840        0.12030295437805
H            2.76907887064191        0.07727720814191       -2.16325569033193
H            2.68427233209942       -1.56858264819551       -1.51424692795044
H            4.62746525040601        1.56745488400652       -1.55323720401406
H            6.93071247273657        1.75705712410237       -0.78567625939739
H            8.66198123969652        1.80162889482189        0.81891653831463
H            9.20850097432512        1.13622108623051       -0.74793417300857
H           10.04408723954129        0.68092349892533        0.75718828876988
H            7.05815553674188       -4.24407600590671        1.64197503711374
H            5.44188512309791       -3.51300571913700        1.79105838693298
H            6.02128055547659       -4.09614957936773        0.20230475781266
H            4.40432656388317       -2.40065927637284       -0.00885205817333
H           -0.20884497349056       -1.62380046212405       -1.65018457686411
H           -1.01486537395787       -1.24616354836864       -0.11072339900214
H            0.56265205804722       -2.05131902773800       -0.11865303045985
H           -4.65978525073499        2.93708917494565       -0.16492307183213
H           -3.73548482206056        2.89818731383919        2.76125090533871
H           -4.90219633947557        1.78175529692967        2.05516740336052
H           -5.26777304242556        3.51096979809090        2.14186525377160
H           -2.60408128859331        4.70151985747288        1.21260301303398
H           -3.07603968420764        4.79510316514182       -0.48409090618186
H           -4.23862247740915        5.17667544641770        0.77237512918255
H           -0.65299109162317        2.79261133964118        2.75885830645234
72
 energy: -103.315097835307 gnorm: 0.034273254000 xtb: 6.6.1 (8d0f1dd)
N           -1.52271489474876        2.79071388250385        2.24833856407276
C           -1.57400002475738        2.15944404422192        1.16854269323700
C           -2.75131087739457        2.05804257701590        0.24658534803610
C           -3.32023739014489        0.64915582397217        0.32706962587830
C           -4.30727817799720        0.24727617204398       -0.57550151419318
C           -4.85326931362647       -1.02132801909175       -0.53324643656220
O           -5.82179332865274       -1.48791883176376       -1.36423694016404
C           -6.40152375704908       -0.60529955036007       -2.29318903534145
C           -4.40025199996233       -1.94418098818327        0.43991099977723
O           -4.99130983639156       -3.16713710304258        0.40479507873809
C           -4.65756693917985       -4.10453220140319        1.39804682954280
C           -3.42419810174988       -1.54326999083662        1.33132673959461
C           -2.89100614871741       -0.25933547799284        1.27522984887058
C           -2.19306685807395        2.29744891896491       -1.18206708520430
C           -1.25753301864029        1.18265360294073       -1.67555535973336
C            0.01349350363580        1.12480972819206       -0.89513641074585
N            0.63573301825332       -0.04436088477716       -0.55944071286843
C            2.01074549497892       -0.04070724921381       -0.15362256360780
C            2.94086802502885       -0.53888973873456       -1.27839514975505
C            4.36897260985441       -0.43356942439907       -0.84241005676488
C            5.08469089440614        0.73211121473809       -1.04052006510951
C            6.39481978482339        0.84139939134949       -0.59882356916081
C            7.00761425347758       -0.21237248376217        0.05778864971518
O            8.28341353702924       -0.21772758532402        0.52576000388349
C            9.07926335576212        0.92235545688388        0.31840822058447
C            6.27799090005516       -1.40523057664933        0.27690139032431
O            6.95858775200368       -2.38860806202093        0.92491447282466
C            6.31889633663419       -3.62028153637208        1.14337726790780
C            4.97307109312598       -1.49518065471157       -0.16816774258448
C           -0.04499964882321       -1.31071013108998       -0.61653890865766
C           -3.88146070997237        3.06886770549283        0.58481654349606
C           -4.48561458517998        2.79574148159356        1.96119923030072
C           -3.41300656741211        4.52165632877534        0.51537179870786
H           -4.65927873334531        0.94623746958133       -1.31666206919119
H           -6.85164183184011        0.26172687579067       -1.79878114384112
H           -7.18044412541946       -1.17966413120708       -2.79191566325777
H           -5.67351830594395       -0.26385815551110       -3.03699205489309
H           -4.87456280310171       -3.72318021072507        2.40091943703329
H           -5.28271537794251       -4.97337759019401        1.19926210280158
H           -3.60351302448018       -4.39706611405782        1.34081931186430
H           -3.06715854284890       -2.22090467544041        2.09123099402285
H           -2.14390645379640        0.02210979696063        2.00167765527390
H           -3.02258346624480        2.38664381639997       -1.88478829872684
H           -1.64614880385536        3.24156722455421       -1.19610274269535
H           -1.79155902929090        0.23481913770044       -1.62608842856293
H           -1.02280858750237        1.38202478357200       -2.73075151010470
H           -0.69015838918065        1.65504109602491        0.68619562884882
H            0.65695034269988        1.99119708346421       -0.96654982053618
H            2.13053595511063       -0.67451262022534        0.73014195161197
H            2.30146777032774        0.97665409649705        0.11672489015277
H            2.76826484841842        0.07635244878149       -2.16294535601251
H            2.68773379529462       -1.57166641376841       -1.51756107717528
H            4.62922346285102        1.56596731361411       -1.55372893236764
H            6.93269316205724        1.75773384254724       -0.78200266120224
H            8.66133229451801        1.80234442305730        0.81833933764687
H            9.20744798312594        1.13661769570692       -0.74787023354108
H           10.04685731018824        0.68426182616978        0.75696405469864
H            7.05637139111157       -4.24633761534453        1.64297197823527
H            5.44089974020110       -3.51166884345694        1.78967615138261
H            6.02058860911631       -4.09420123639407        0.20212686531000
H            4.40714289449572       -2.40013362529200       -0.01022751477912
H           -0.20978411876726       -1.63056309325079       -1.65058599046854
H           -1.01242228321345       -1.24716151545991       -0.11142523808511
H            0.56169100313125       -2.06068386503848       -0.11464996248865
H           -4.66944199097579        2.93580528124485       -0.16473522536856
H           -3.72865746627525        2.90412413921249        2.73780248526761
H           -4.89675618222596        1.78786045300963        2.03158944188717
H           -5.28228139044575        3.50990207135388        2.15087463268201
H           -2.60422500423636        4.69377918215438        1.21737545528339
H           -3.07812777502559        4.78905075419501       -0.48383037886325
H           -4.24011452971857        5.17909338819961        0.77507184809597
H           -0.65443647931012        2.79738886906072        2.76929183103941
72
 energy: -103.315766206697 gnorm: 0.020685232106 xtb: 6.6.1 (8d0f1dd)
N           -1.51597556198642        2.78357970605618        2.23749070078594
C           -1.55932871883073        2.15218514816423        1.15037381368677
C           -2.74672450896507        2.05737965389475        0.23976640408346
C           -3.31178409364121        0.64579157430649        0.31820780298350
C           -4.30323398892334        0.24476442059228       -0.57982925331513
C           -4.84919417153501       -1.02300078400669       -0.53474833659174
O           -5.82382785850782       -1.48972753466051       -1.36522234838215
C           -6.40268486544136       -0.60671952363136       -2.29236366215420
C           -4.39656980597752       -1.94420379215596        0.43692554778397
O           -4.99281113414310       -3.16924972451841        0.40415982526454
C           -4.65892398049864       -4.10456423275691        1.39768374003394
C           -3.41965127356397       -1.54515462653627        1.32784887794308
C           -2.88365533053565       -0.26304675786300        1.26783530964934
C           -2.19400208744002        2.30050848131466       -1.19026932413690
C           -1.25883733045765        1.17875342977105       -1.66862748445624
C            0.00405728123397        1.13561599788344       -0.88173332472090
N            0.63603552362359       -0.04989835862318       -0.54455471405111
C            2.00527162696792       -0.03361902801355       -0.14777353860028
C            2.93653595229400       -0.53289693690383       -1.27240358070950
C            4.36075992088302       -0.42894877329443       -0.83496481123832
C            5.07811563550925        0.73524540860348       -1.03599125042924
C            6.38968727122216        0.84262427559846       -0.59950680709595
C            7.00073631793367       -0.21158200051413        0.05582814291352
O            8.28154150149810       -0.21913166763051        0.52358948389868
C            9.07623700757225        0.92022015806737        0.31744927109143
C            6.27146928694052       -1.40218582470669        0.27725927860967
O            6.95643264975188       -2.38845064235101        0.92294764294557
C            6.31857621539063       -3.61988702245854        1.14255155740190
C            4.96589085906409       -1.49121205780014       -0.16275058041601
C           -0.04662871709893       -1.30831293211922       -0.61768352640278
C           -3.87302355537825        3.06550545158749        0.59044538512081
C           -4.47730455520575        2.79019323572102        1.97029012394895
C           -3.40973846402686        4.52137409271156        0.51401876519735
H           -4.65895433695882        0.94489568833750       -1.31800675990797
H           -6.85317098949776        0.26082863220266       -1.79847558056876
H           -7.18232786020537       -1.18154254475927       -2.78977044220062
H           -5.67666863346293       -0.26503574156962       -3.03816441945499
H           -4.87592745683514       -3.72346423733013        2.40130533085849
H           -5.28554057921191       -4.97251262254025        1.19875221442184
H           -3.60532326888145       -4.39947548068313        1.34136708696509
H           -3.06645250718318       -2.22116847676793        2.09108026138330
H           -2.14163010130066        0.02039153877360        1.99760642400485
H           -3.02128286179449        2.38575527372830       -1.89684598070389
H           -1.64471844865621        3.24398849561515       -1.20658496538122
H           -1.79373577254401        0.22947332945105       -1.61767305265976
H           -1.01081677919299        1.37215850735011       -2.72092690563312
H           -0.68076830789882        1.66743985906279        0.66141589580304
H            0.64667670073065        1.99815866932331       -0.93325759816476
H            2.12613041439161       -0.66530467207599        0.73801434243170
H            2.29485419955968        0.98604197286268        0.12164572824298
H            2.76401520235063        0.08049415518063       -2.15839642206093
H            2.67961240695981       -1.56591831401008       -1.51054053611578
H            4.62286282917914        1.56781324426999       -1.55149489467782
H            6.92933605024066        1.75743504224953       -0.78660230457074
H            8.66031638924350        1.80125559430205        0.81831008774238
H            9.20663834923801        1.13621053078911       -0.74850099636102
H           10.04298053537013        0.68002605394457        0.75669475835297
H            7.05868263126462       -4.24407320452180        1.64096769508896
H            5.44184100334059       -3.51361679050158        1.79085054356992
H            6.01965754131431       -4.09593087137795        0.20219760661192
H            4.39929343644052       -2.39669941056371       -0.00621610386122
H           -0.21167811809333       -1.62270563006197       -1.65513024819991
H           -1.01582253643550       -1.24861579733687       -0.11344965097118
H            0.56122429348455       -2.05830715005124       -0.11870828421918
H           -4.66098199612076        2.93343566734863       -0.16096536082308
H           -3.73122450855547        2.90084256998661        2.74960370070052
H           -4.89657831779481        1.78904644497574        2.04451535851152
H           -5.27254736196505        3.50983741590749        2.14828471122516
H           -2.59987560532145        4.70010400817718        1.21507471226720
H           -3.07670303246746        4.79087393503265       -0.48598515101596
H           -4.23895263899307        5.17627390535398        0.77322068513016
H           -0.63091276320946        2.77400079864502        2.74093288961421
72
 energy: -103.316176313313 gnorm: 0.011829996524 xtb: 6.6.1 (8d0f1dd)
N           -1.53668669058189        2.78157879738980        2.24428769222795
C           -1.56620141126874        2.15803204066723        1.15421850424987
C           -2.75100687458308        2.05733778299880        0.24146636673594
C           -3.31671239457807        0.64667061842246        0.32336391881071
C           -4.30652958136135        0.24681850149187       -0.57648957761250
C           -4.85161400265916       -1.02087166996764       -0.53129570917256
O           -5.82323757596668       -1.48747908607639       -1.36448433121342
C           -6.40062153497484       -0.60488202541583       -2.29273836506329
C           -4.39909342213805       -1.94204882664180        0.44062085750715
O           -4.99207354463289       -3.16790513754388        0.40588770647356
C           -4.65701625404009       -4.10398802510109        1.39785299961002
C           -3.42287822310791       -1.54416055919635        1.33264846951295
C           -2.88885618718062       -0.26152117251650        1.27447028060454
C           -2.19132296402831        2.30094371072631       -1.18446007408705
C           -1.26035934062462        1.17597328440887       -1.66268337183719
C            0.00632848130235        1.12997424327257       -0.88777720372846
N            0.63738140944277       -0.04984732629218       -0.55700510658976
C            2.00726753595468       -0.03449907765574       -0.15951057334343
C            2.94188941070825       -0.53774196443788       -1.28026313335837
C            4.36566793021021       -0.43239385768752       -0.83794798612487
C            5.08351590813885        0.73199591087771       -1.03857001893899
C            6.39456609836172        0.84092049543296       -0.60013946715956
C            7.00492661170898       -0.21269258402061        0.05579655866664
O            8.28421183243567       -0.21741969220111        0.52554572097466
C            9.07858692369528        0.92201610132207        0.31883535918882
C            6.27669761995899       -1.40436341559297        0.27523204246612
O            6.95936627243502       -2.38976062963620        0.92350919521142
C            6.31948872510590       -3.62006052019170        1.14326055880677
C            4.97137784997268       -1.49482207423416       -0.16641754034810
C           -0.04732977325645       -1.30649346807611       -0.61920153403220
C           -3.87628711161801        3.06771524032010        0.58661894201937
C           -4.48187923178321        2.78815474422030        1.96627342753648
C           -3.41227987942963        4.52359080638180        0.51316909375678
H           -4.66217740815438        0.94752151600150       -1.31465754371967
H           -6.85326894457120        0.26234781461495       -1.80014371762074
H           -7.17893884642047       -1.18015687503229       -2.79161920213567
H           -5.67367497708129       -0.26311026168144       -3.03772366012888
H           -4.87519322608270       -3.72474715443136        2.40174313265223
H           -5.28235300562425       -4.97247523729626        1.19752944409728
H           -3.60305838593589       -4.39754479920527        1.34127076834770
H           -3.06936953969391       -2.22072859459759        2.09519872727818
H           -2.14773893387443        0.02181698416163        2.00625216919429
H           -3.01798367700416        2.38509576623111       -1.88997231714433
H           -1.64443457499641        3.24586357452273       -1.19914920371805
H           -1.79955438075665        0.22899646196157       -1.61935365367420
H           -1.00476423575512        1.37460982739898       -2.71054380913742
H           -0.68695820271197        1.66616314924245        0.66974931433939
H            0.65261678684325        1.98860644282074       -0.94246311953391
H            2.12520104969967       -0.66844722004919        0.72497151383022
H            2.30468019500839        0.98165556137467        0.11365307842896
H            2.77343094150978        0.07436669826555       -2.16789644657812
H            2.68728966825835       -1.57119768997504       -1.51910732409962
H            4.62964399276536        1.56449811868562       -1.55537184394872
H            6.93302205149215        1.75688060258720       -0.78441549005455
H            8.66251682008097        1.80324538538267        0.81895589532354
H            9.20988478851157        1.13706227352872       -0.74720506073191
H           10.04563460115019        0.68320071588835        0.75837466968018
H            7.05753296407999       -4.24495836249176        1.64369968932735
H            5.44170492964453       -3.51207401274260        1.79003054367183
H            6.02214968419955       -4.09658179340259        0.20267570698389
H            4.40715224428755       -2.40218774490750       -0.01288119700456
H           -0.21283002731191       -1.62908850132166       -1.65302536348247
H           -1.01436846051619       -1.24459936063049       -0.11125581951151
H            0.56224588280365       -2.05324067332507       -0.11726937698876
H           -4.66186273387160        2.93703763329618       -0.16711550918343
H           -3.73969205452982        2.89942889364122        2.75208077734042
H           -4.90412275958008        1.78669899802705        2.04736316697092
H           -5.27419253252316        3.51084071612855        2.14055625320951
H           -2.60467421123353        4.70105235872926        1.21555600093372
H           -3.07645236285829        4.79581553835218       -0.48463061401129
H           -4.24101501717105        5.17852528011647        0.77225021070412
H           -0.65634046543860        2.78539600713037        2.75220901436039
72
 energy: -103.316282404638 gnorm: 0.010049644343 xtb: 6.6.1 (8d0f1dd)
N           -1.52474748060083        2.78386383684785        2.24424298501909
C           -1.56117151390925        2.15964348900140        1.15709550728204
C           -2.74832271311661        2.05696621400548        0.24396906761939
C           -3.31675067832293        0.64713504246015        0.32386613103187
C           -4.30505332182119        0.24698673063833       -0.57801572616342
C           -4.85028278574893       -1.02115048320868       -0.53323363686693
O           -5.82173173006229       -1.48773340751644       -1.36538043496211
C           -6.40176143433925       -0.60570825840977       -2.29239047037980
C           -4.39768139220808       -1.94271649009688        0.43853734897504
O           -4.99088865448664       -3.16765029735291        0.40475195504192
C           -4.65799793529343       -4.10358551536933        1.39761931144947
C           -3.42003753425758       -1.54528285215021        1.32931083104688
C           -2.88656089187198       -0.26228171071835        1.27223566346681
C           -2.19209359993116        2.29814044700536       -1.18433648944873
C           -1.25971221372423        1.17760763088419       -1.67105841674831
C            0.00808468291097        1.12714907556432       -0.89725925782535
N            0.63484593786372       -0.04638740495370       -0.55949095914099
C            2.00344759759084       -0.03357318161038       -0.15137612316066
C            2.93726683638799       -0.53536618226576       -1.27324453896080
C            4.36317384857633       -0.43050012683055       -0.83523161051216
C            5.08112207435064        0.73377840749515       -1.03661154801587
C            6.39256894500496        0.84246342173605       -0.59853068992370
C            7.00305848314941       -0.21174937231271        0.05676451712954
O            8.28172975196322       -0.21705332129415        0.52486825225176
C            9.07694313836678        0.92151107345530        0.31715764917084
C            6.27472435601395       -1.40339621348314        0.27670057319371
O            6.95679112054248       -2.38868281541653        0.92420008755215
C            6.31754765447061       -3.61955592725450        1.14270021755097
C            4.96874530629976       -1.49316092146790       -0.16408637852658
C           -0.04692946477544       -1.30592612769078       -0.61793903412865
C           -3.87586297340326        3.06727392298152        0.58554260581030
C           -4.47950283350777        2.79078827036362        1.96495132992453
C           -3.41065990672184        4.52160025787616        0.51428825385733
H           -4.65863563268876        0.94680447697750       -1.31807055263581
H           -6.85289693229550        0.26143355629851       -1.79840502388487
H           -7.18144947674166       -1.18061683550305       -2.78978180814726
H           -5.67604820457146       -0.26419496392900       -3.03864061757785
H           -4.87533522241376       -3.72255098641083        2.40081313222313
H           -5.28461450481896       -4.97163887916908        1.19899184176817
H           -3.60456818208980       -4.39877943460762        1.34123847282329
H           -3.06437219015259       -2.22272650757083        2.08977375015410
H           -2.14030762387211        0.01922996969804        2.00004488830111
H           -3.02152103743121        2.38339314299056       -1.88611229392215
H           -1.64709633956501        3.24356906490438       -1.20033683094635
H           -1.79753050358050        0.23128413550671       -1.62760158623447
H           -1.01261000082977        1.37931340175356       -2.72111356473217
H           -0.68587247375499        1.65594550566890        0.67393952803240
H            0.65510728845736        1.98617151354414       -0.95550240942064
H            2.12214847165000       -0.66919712331076        0.73272021079566
H            2.30118906188454        0.98130694161291        0.12346119337925
H            2.76566542769767        0.07846304107921       -2.15912099714048
H            2.68321361726739       -1.56855733889880       -1.51277828075292
H            4.62647092972334        1.56758813555853       -1.55088921030340
H            6.93075778038505        1.75841142031705       -0.78267359543674
H            8.66136315081749        1.80232043479693        0.81802599845972
H            9.20621563957116        1.13644818572838       -0.74910292885045
H           10.04479327273350        0.68249117742312        0.75515208203465
H            7.05613027579127       -4.24542737915103        1.64118569123649
H            5.44041913741411       -3.51261485421160        1.79053822018837
H            6.01920545272725       -4.09419674664062        0.20157399658421
H            4.40327760544948       -2.39882245349564       -0.00676514080663
H           -0.20803501851902       -1.62967017535168       -1.65125680701128
H           -1.01525446310381       -1.24648436166657       -0.11298037221286
H            0.56081938416717       -2.05455235949074       -0.11472639217185
H           -4.66438926813195        2.93530640073483       -0.16434680105441
H           -3.72924346474987        2.90185732922225        2.74592511683132
H           -4.89541307308187        1.78531166304053        2.04248582069767
H           -5.27348605054618        3.50980053563989        2.14786973052983
H           -2.60180324876765        4.69605065843035        1.21514223482864
H           -3.07653909236772        4.79090215021589       -0.48435367167795
H           -4.23794266659957        5.17750302084859        0.77518448845375
H           -0.64513825219601        2.79003652895189        2.75226902100545
72
 energy: -103.316412060743 gnorm: 0.005351887685 xtb: 6.6.1 (8d0f1dd)
N           -1.52456426599633        2.78315887589960        2.24447393087407
C           -1.56232181246809        2.15734311880229        1.15751042415367
C           -2.74953368976388        2.05793170781364        0.24306765824686
C           -3.31701554786458        0.64733487635375        0.32196748271186
C           -4.30588562799237        0.24617302435595       -0.57877109093684
C           -4.85120868582571       -1.02205412582514       -0.53322444645955
O           -5.82320702085083       -1.48882079572595       -1.36536022152690
C           -6.40168540947797       -0.60639285723367       -2.29270715070180
C           -4.39904633773779       -1.94291609656650        0.43892849182818
O           -4.99203534358617       -3.16858040393169        0.40531821578563
C           -4.65806432505062       -4.10445907391590        1.39774790924067
C           -3.42260980417566       -1.54392869899157        1.33050816285493
C           -2.88822917397140       -0.26119274877365        1.27167037279140
C           -2.19277526550532        2.29939636311566       -1.18576430959189
C           -1.25782657852953        1.17848792197479       -1.66725730590119
C            0.00788598289554        1.12947042550319       -0.88919153499365
N            0.63656459385427       -0.04709210967114       -0.55348302498430
C            2.00642640468861       -0.03469909763779       -0.15219247394163
C            2.93874454344327       -0.53580541579912       -1.27644053268757