25
 energy: -42.118433679791 gnorm: 0.002201061088 xtb: 6.6.1 (8d0f1dd)
C            3.08298548771381        0.97041829844937        0.11718741054620
N            2.08630231186149       -0.05160269707630        0.32623237304408
C            2.36438245210424       -1.23103389287616        0.86569914567257
N            1.24827619691591       -1.96474166460745        0.91095116317112
C            0.21560728219345       -1.22325598480068        0.38535619880707
C            0.74353954229025        0.00656449892974        0.02008551866211
C            0.10685304394444        1.27234939698472       -0.50642264243160
O            0.81783830124607        2.16932766076785       -0.96268982876541
N           -1.20135669563153        1.28388411009746       -0.38060191049838
C           -1.96580590638016        2.42692829218637       -0.72596804607578
C           -1.45368586706431       -2.62066309319478        1.22836390436133
O           -1.29496067021128       -3.31769539121770        2.15535710356331
N           -1.07374885014001       -1.79241505503343        0.32025506760035
C           -1.95920437603979       -1.44804113317412       -0.79097744199464
H            3.60527102878170        1.17572442374306        1.05034416152571
H            3.80308175017964        0.63627615270861       -0.62995267783040
H            2.59518842826333        1.87514882129876       -0.24980822091438
H            3.33024208359183       -1.54534870871047        1.21076570107230
H           -1.34747586877246        3.23197204550793       -1.13572100588932
H           -2.72896682634779        2.14473414088778       -1.45573810825186
H           -2.48036051747899        2.78803053667947        0.16910426974224
H           -1.56009377284054       -1.85523811376332       -1.71958883902535
H           -2.00274382844309       -0.35352053074398       -0.85213510962519
H           -2.94787562106301       -1.85817277535909       -0.60434337993912
H            1.17714240543583       -2.90139079609490        1.28541681137493
