72
 energy: -99.311451117009 gnorm: 0.004662508735 xtb: 6.6.1 (8d0f1dd)
N           -2.06588104565066        2.03239147415781        2.24491969069539
C           -1.90578891716311        2.33679011738382        1.02027007658878
C           -2.63820362369977        1.69536747402080       -0.05810635415755
C           -3.32939548004532        0.41859151005216        0.16054761241936
C           -4.39834018943751        0.03077534901852       -0.65837394164500
C           -5.03365791106098       -1.18582767343240       -0.49140631074313
O           -6.07756636833698       -1.63056430673711       -1.22366119528911
C           -6.58067552905975       -0.83150101291386       -2.26754014195422
C           -4.59166591143062       -2.07585727387150        0.52687289978559
O           -5.25959209604068       -3.24262060073657        0.60853899698454
C           -4.91065561249532       -4.15928431203304        1.62045020993790
C           -3.53233870353621       -1.68783527868422        1.33470955660427
C           -2.91253289345660       -0.46261851310382        1.15567039005308
C           -2.60874276726825        2.29727923825987       -1.26960803002828
C           -0.82076175709364        0.83016687955688       -2.64794793617940
C            0.29348647944960        0.94146480658092       -1.90993303460752
N            0.72041643574474        0.08005460666080       -0.94791112410965
C            2.07332180514865        0.18845983077651       -0.47091319011844
C            3.08597590598444       -0.50652130033915       -1.40927762830407
C            4.48882057572437       -0.27378634833706       -0.93439064292351
C            5.13151852142589        0.92619520138081       -1.20580560101997
C            6.41550546916280        1.16668181930016       -0.74536911892944
C            7.08923635468074        0.20796488665548       -0.00067069518474
O            8.33363972099174        0.33196959857856        0.49777688770048
C            9.05688645141883        1.51636226970310        0.25519759966125
C            6.44245232532614       -1.02830328613607        0.27845266890117
O            7.17140049511860       -1.90678516427118        0.99441766124962
C            6.62915608557738       -3.17134595094642        1.29183939768305
C            5.15364681044653       -1.24191635163275       -0.18722354057284
C            0.03829296653293       -1.17412985605889       -0.75447119266803
C           -5.02500298305982        3.00997537038979        1.05238066968626
C           -4.99977607897887        2.31631061828789        2.32798189508967
C           -4.64629314001917        4.42271477653357        0.92046192530682
H           -4.74651797274086        0.70335835755607       -1.42467028002020
H           -6.96885319968921        0.12187563889931       -1.89473347012926
H           -7.39686825536855       -1.40315617910415       -2.70471859258826
H           -5.82092518930644       -0.64408663088283       -3.03267579669989
H           -5.02988534126692       -3.72052481243245        2.61545462626245
H           -5.59911120190170       -4.99450741589199        1.50902270594743
H           -3.88381029041615       -4.51711680687070        1.49878055709888
H           -3.17758714240078       -2.34175171015074        2.11461811030501
H           -2.09469835958644       -0.19022799035874        1.80096172116529
H           -3.16028958821561        1.92584136329643       -2.11165559413474
H           -2.08118893219461        3.22347588433311       -1.41595819106354
H           -1.46999836843370       -0.02376484300597       -2.59781521660026
H           -1.03969700035153        1.56802728226788       -3.39518475757248
H           -1.24362884263805        3.14323912416706        0.69160420985502
H            0.92502867351613        1.81162158052209       -2.03073894604719
H            2.13669098505815       -0.25680252247929        0.52532305299361
H            2.33736601745564        1.24564934504925       -0.38711888625871
H            2.95885694959849       -0.09632000346965       -2.41328762757129
H            2.86887371319347       -1.57463706876893       -1.44321040047040
H            4.63277597987072        1.68241238770534       -1.79272980749131
H            6.88882602540104        2.10696290754066       -0.97651979806400
H            8.55330069264939        2.38845320777105        0.68370582192905
H            9.21640220535497        1.67591749861254       -0.81554717910448
H           10.01798217759725        1.37746711017397        0.74654998321459
H            7.40338269571880       -3.69837432853105        1.84613912732604
H            5.73268141815634       -3.08688749601511        1.91419541053692
H            6.39181547172168       -3.73004875890907        0.38130725264000
H            4.65459244866533       -2.17606291978633        0.01745788778600
H            0.11404526760973       -1.81855987465673       -1.63578277299301
H           -1.01760135287490       -0.99312097005013       -0.54665592433268
H            0.47304648828000       -1.69153420248913        0.09770845494798
H           -5.38001564762258        2.49847665249347        0.17311223140884
H           -3.95499359016776        1.98530035492806        2.52885890251508
H           -5.62736638235314        1.43023217613673        2.33487329477426
H           -5.25526399595983        2.98091216039477        3.15303444132678
H           -4.08883374543826        4.77033426325217        1.78657143808588
H           -4.07016891435202        4.59612170119847        0.01246502920884
H           -5.54612459308852        5.04135170510995        0.83330608499813
H           -1.53260910138982        2.57397475687909        2.91733927949794
