25
 energy: -41.926522917811 gnorm: 0.005297696540 xtb: 6.6.1 (8d0f1dd)
C            3.23759594778575        1.03205119512942       -0.61074688529878
N            2.29399952765276        0.16832423935144        0.00894195051739
C            2.45969637359910       -0.93905953596607        0.90838567557687
N            1.54196761728146       -2.00939041544176        0.50670810531807
C            0.97386211640169       -0.89331466072512        1.18040076988985
C            0.94526804634388        0.21005714949279        0.16284192648633
C            0.04490533977263        1.12177442446431       -0.39832459667279
O            0.24673029354464        2.03500594300348       -1.16034692532046
N           -1.38698530560786        0.92238189988402        0.06592077846220
C           -1.98072486429365        2.03521928929540        0.78979846193957
C           -2.07989862585744       -0.06424423652707       -0.32799282540877
O           -3.29974541321548       -0.52044200924291       -0.25721337262509
N           -2.20023407255496       -1.14887873517550       -1.10334757844940
C           -1.77571090769703       -2.46889283031110       -0.75385858742660
H            3.84475316824907        1.54616106135595        0.14087995124810
H            3.90813822512714        0.44698308786439       -1.24525113353950
H            2.70549534319332        1.76932667289527       -1.21050173987679
H            3.34962448970929       -1.09836763111643        1.48582105375307
H           -1.73386137642687        2.95478065463234        0.25568794365523
H           -3.06230716583375        1.91475333358058        0.84683294374841
H           -1.55478872767014        2.07656909406471        1.79401252909882
H           -1.75419295536836       -2.65103145047709        0.32320348228672
H           -0.77139567974503       -2.57941856708269       -1.16519328555701
H           -2.44447436180177       -3.17519295612349       -1.24317544610133
H            1.65271448151155       -2.86691647522537        1.03768842219686
