      -----------------------------------------------------------      
     |                   =====================                   |     
     |                           x T B                           |     
     |                   =====================                   |     
     |                         S. Grimme                         |     
     |          Mulliken Center for Theoretical Chemistry        |     
     |                    University of Bonn                     |     
      -----------------------------------------------------------      

   * xtb version 6.6.1 (8d0f1dd) compiled by 'conda@1efc2f54142f' on 2023-08-01

   xtb is free software: you can redistribute it and/or modify it under
   the terms of the GNU Lesser General Public License as published by
   the Free Software Foundation, either version 3 of the License, or
   (at your option) any later version.
   
   xtb is distributed in the hope that it will be useful,
   but WITHOUT ANY WARRANTY; without even the implied warranty of
   MERCHANTABILITY or FITNESS FOR A PARTICULAR PURPOSE.  See the
   GNU Lesser General Public License for more details.
   
   Cite this work as:
   * C. Bannwarth, E. Caldeweyher, S. Ehlert, A. Hansen, P. Pracht,
     J. Seibert, S. Spicher, S. Grimme, WIREs Comput. Mol. Sci., 2020, 11,
     e01493. DOI: 10.1002/wcms.1493
   
   for GFN2-xTB:
   * C. Bannwarth, S. Ehlert and S. Grimme., J. Chem. Theory Comput., 2019,
     15, 1652-1671. DOI: 10.1021/acs.jctc.8b01176
   for GFN1-xTB:
   * S. Grimme, C. Bannwarth, P. Shushkov, J. Chem. Theory Comput., 2017,
     13, 1989-2009. DOI: 10.1021/acs.jctc.7b00118
   for GFN0-xTB:
   * P. Pracht, E. Caldeweyher, S. Ehlert, S. Grimme, ChemRxiv, 2019, preprint.
     DOI: 10.26434/chemrxiv.8326202.v1
   for GFN-FF:
   * S. Spicher and S. Grimme, Angew. Chem. Int. Ed., 2020, 59, 15665-15673.
     DOI: 10.1002/anie.202004239
   
   for ALPB and GBSA implicit solvation:
   * S. Ehlert, M. Stahn, S. Spicher, S. Grimme, J. Chem. Theory Comput.,
     2021, 17, 4250-4261. DOI: 10.1021/acs.jctc.1c00471
   
   for DFT-D4:
   * E. Caldeweyher, C. Bannwarth and S. Grimme, J. Chem. Phys., 2017,
     147, 034112. DOI: 10.1063/1.4993215
   * E. Caldeweyher, S. Ehlert, A. Hansen, H. Neugebauer, S. Spicher,
     C. Bannwarth and S. Grimme, J. Chem. Phys., 2019, 150, 154122.
     DOI: 10.1063/1.5090222
   * E. Caldeweyher, J.-M. Mewes, S. Ehlert and S. Grimme, Phys. Chem. Chem. Phys.
     2020, 22, 8499-8512. DOI: 10.1039/D0CP00502A
   
   for sTDA-xTB:
   * S. Grimme and C. Bannwarth, J. Chem. Phys., 2016, 145, 054103.
     DOI: 10.1063/1.4959605
   
   in the mass-spec context:
   * V. Asgeirsson, C. Bauer and S. Grimme, Chem. Sci., 2017, 8, 4879.
     DOI: 10.1039/c7sc00601b
   * J. Koopman and S. Grimme, ACS Omega 2019, 4, 12, 15120-15133.
     DOI: 10.1021/acsomega.9b02011
   
   for metadynamics refer to:
   * S. Grimme, J. Chem. Theory Comput., 2019, 155, 2847-2862
     DOI: 10.1021/acs.jctc.9b00143
   
   for SPH calculations refer to:
   * S. Spicher and S. Grimme, J. Chem. Theory Comput., 2021, 17, 1701-1714
     DOI: 10.1021/acs.jctc.0c01306
   
   with help from (in alphabetical order)
   P. Atkinson, C. Bannwarth, F. Bohle, G. Brandenburg, E. Caldeweyher
   M. Checinski, S. Dohm, S. Ehlert, S. Ehrlich, I. Gerasimov, C. Hölzer
   A. Katbashev, J. Koopman, C. Lavigne, S. Lehtola, F. März, M. Müller,
   F. Musil, H. Neugebauer, J. Pisarek, C. Plett, P. Pracht, F. Pultar,
   J. Seibert, P. Shushkov, S. Spicher, M. Stahn, M. Steiner, T. Strunk,
   J. Stückrath, T. Rose, and J. Unsleber
   
 * started run on 2024/06/05 at 19:59:12.244     

           -------------------------------------------------
          |                Calculation Setup                |
           -------------------------------------------------

          program call               : xtb struc.xyz --opt loose --input .xc1 --gfn2
          hostname                   : n-62-31-11
          coordinate file            : struc.xyz
          omp threads                :                     1

   ID    Z sym.   atoms
    1    6 C      1, 3, 5-7, 10, 11, 14
    2    7 N      2, 4, 9, 13
    3    8 O      8, 12
    4    1 H      15-25
constraining bond 6 10 to    6.0000000 Å, actual value:    3.7045483 Å

           -------------------------------------------------
          |                 G F N 2 - x T B                 |
           -------------------------------------------------

        Reference                      10.1021/acs.jctc.8b01176
      * Hamiltonian:
        H0-scaling (s, p, d)           1.850000    2.230000    2.230000
        zeta-weighting                 0.500000
      * Dispersion:
        s8                             2.700000
        a1                             0.520000
        a2                             5.000000
        s9                             5.000000
      * Repulsion:
        kExp                           1.500000    1.000000
        rExp                           1.000000
      * Coulomb:
        alpha                          2.000000
        third order                    shell-resolved
        anisotropic                    true
        a3                             3.000000
        a5                             4.000000
        cn-shift                       1.200000
        cn-exp                         4.000000
        max-rad                        5.000000


          ...................................................
          :                      SETUP                      :
          :.................................................:
          :  # basis functions                  67          :
          :  # atomic orbitals                  67          :
          :  # shells                           39          :
          :  # electrons                        74          :
          :  max. iterations                   250          :
          :  Hamiltonian                  GFN2-xTB          :
          :  restarted?                      false          :
          :  GBSA solvation                  false          :
          :  PC potential                    false          :
          :  electronic temp.         5000.0000000     K    :
          :  accuracy                    1.0000000          :
          :  -> integral cutoff          0.2500000E+02      :
          :  -> integral neglect         0.1000000E-07      :
          :  -> SCF convergence          0.1000000E-05 Eh   :
          :  -> wf. convergence          0.1000000E-03 e    :
          :  Broyden damping             0.4000000          :
          ...................................................

 iter      E             dE          RMSdq      gap      omega  full diag
   1    -42.5894031 -0.425894E+02  0.445E+00    3.52       0.0  T
   2    -42.7683054 -0.178902E+00  0.251E+00    3.36       1.0  T
   3    -42.7759211 -0.761567E-02  0.147E+00    3.35       1.0  T
   4    -42.7728404  0.308066E-02  0.553E-01    3.33       1.0  T
   5    -42.7789548 -0.611444E-02  0.112E-01    3.35       1.0  T
   6    -42.7790473 -0.924914E-04  0.614E-02    3.33       1.0  T
   7    -42.7790721 -0.247928E-04  0.258E-02    3.34       1.0  T
   8    -42.7790772 -0.508996E-05  0.938E-03    3.34       2.1  T
   9    -42.7790779 -0.669422E-06  0.448E-03    3.34       4.5  T
  10    -42.7790780 -0.821510E-07  0.115E-03    3.34      17.4  T
  11    -42.7790780 -0.322663E-08  0.553E-04    3.34      36.2  T
  12    -42.7790780 -0.287051E-08  0.180E-04    3.34     111.1  T

   *** convergence criteria satisfied after 12 iterations ***

         #    Occupation            Energy/Eh            Energy/eV
      -------------------------------------------------------------
         1        2.0000           -0.9185990             -24.9964
       ...           ...                  ...                  ...
        31        1.9996           -0.6230278             -16.9534
        32        1.9995           -0.6194601             -16.8564
        33        1.9979           -0.5974976             -16.2587
        34        1.9932           -0.5789629             -15.7544
        35        1.9817           -0.5631863             -15.3251
        36        1.9779           -0.5602245             -15.2445
        37        1.9748           -0.5581234             -15.1873 (HOMO)
        38        0.0652           -0.4353579             -11.8467 (LUMO)
        39        0.0099           -0.4050467             -11.0219
        40        0.0013           -0.3732218             -10.1559
        41        0.0000           -0.2886859              -7.8555
        42                         -0.2065804              -5.6213
       ...                                ...                  ...
        67                          0.5625656              15.3082
      -------------------------------------------------------------
                  HL-Gap            0.1227656 Eh            3.3406 eV
             Fermi-level           -0.4890455 Eh          -13.3076 eV

 SCC (total)                   0 d,  0 h,  0 min,  0.037 sec
 SCC setup                      ...        0 min,  0.000 sec (  0.738%)
 Dispersion                     ...        0 min,  0.000 sec (  0.832%)
 classical contributions        ...        0 min,  0.000 sec (  0.247%)
 integral evaluation            ...        0 min,  0.005 sec ( 13.707%)
 iterations                     ...        0 min,  0.017 sec ( 46.763%)
 molecular gradient             ...        0 min,  0.014 sec ( 37.274%)
 printout                       ...        0 min,  0.000 sec (  0.409%)

         :::::::::::::::::::::::::::::::::::::::::::::::::::::
         ::                     SUMMARY                     ::
         :::::::::::::::::::::::::::::::::::::::::::::::::::::
         :: total energy             -23.431570302812 Eh    ::
         :: gradient norm             12.266134900768 Eh/a0 ::
         :: HOMO-LUMO gap              3.340621582928 eV    ::
         ::.................................................::
         :: SCC energy               -42.779077977399 Eh    ::
         :: -> isotropic ES            0.141123876439 Eh    ::
         :: -> anisotropic ES         -0.005230418907 Eh    ::
         :: -> anisotropic XC          0.011966818540 Eh    ::
         :: -> dispersion             -0.022657731803 Eh    ::
         :: repulsion energy           0.531105277918 Eh    ::
         :: add. restraining          18.816288237659 Eh    ::
         :: total charge               1.000000000002 e     ::
         :::::::::::::::::::::::::::::::::::::::::::::::::::::

      ----------------------------------------------------------- 
     |                   =====================                   |
     |                        A N C O P T                        |
     |                   =====================                   |
     |               Approximate Normal Coordinate               |
     |                Rational Function Optimizer                |
      ----------------------------------------------------------- 

          ...................................................
          :                      SETUP                      :
          :.................................................:
          :   optimization level             loose          :
          :   max. optcycles                   200          :
          :   ANC micro-cycles                  20          :
          :   degrees of freedom                69          :
          :.................................................:
          :   RF solver                   davidson          :
          :   write xtbopt.log                true          :
          :   linear?                        false          :
          :   energy convergence         0.5000000E-04 Eh   :
          :   grad. convergence          0.4000000E-02 Eh/α :
          :   maxmium RF displ.          1.0000000          :
          :   Hlow (freq-cutoff)         0.1000000E-01      :
          :   Hmax (freq-cutoff)         5.0000000          :
          :   S6 in model hess.         20.0000000          :
          ...................................................

generating ANC from model Hessian ...
Using Lindh-Hessian (1995)
 Shifting diagonal of input Hessian by    1.9120215655556574     
 Lowest  eigenvalues of input Hessian
    0.010000    0.362427    0.000000    0.000000    0.000000    0.000000
    0.000000    0.000000    1.914835    1.917532    1.921750    1.922803
    1.923704    1.925035    1.927219    1.930659    1.934312    1.941197
 Highest eigenvalues
    3.982451    4.137917    4.186988    4.273699    4.436041    7.108040


........................................................................
.............................. CYCLE    1 ..............................
........................................................................

 iter      E             dE          RMSdq      gap      omega  full diag
   1    -42.7790780 -0.427791E+02  0.626E-05    3.34       0.0  T
   2    -42.7790780 -0.124416E-10  0.329E-05    3.34     607.4  T
   3    -42.7790780  0.127898E-12  0.193E-05    3.34    1034.2  T
     SCC iter.                  ...        0 min,  0.005 sec
     gradient                   ...        0 min,  0.013 sec
 * total energy  :   -23.4315703 Eh     change       -0.6650680E-10 Eh
   gradient norm :    12.2661347 Eh/α   predicted     0.0000000E+00 (-100.00%)
   displ. norm   :     0.8191110 α      lambda       -0.9910674E+01
   maximum displ.:     0.8012681 α      in ANC's #69, #60, #48, ...

........................................................................
.............................. CYCLE    2 ..............................
........................................................................

 iter      E             dE          RMSdq      gap      omega  full diag
   1    -42.6871581 -0.426872E+02  0.173E+00    3.34       0.0  T
   2    -42.7037495 -0.165914E-01  0.997E-01    3.39       1.0  T
   3    -42.7083118 -0.456234E-02  0.581E-01    3.32       1.0  T
   4    -42.7092947 -0.982932E-03  0.737E-02    3.35       1.0  T
   5    -42.7093571 -0.623252E-04  0.244E-02    3.34       1.0  T
   6    -42.7093622 -0.516282E-05  0.137E-02    3.34       1.5  T
   7    -42.7093630 -0.761652E-06  0.463E-03    3.34       4.3  T
   8    -42.7093632 -0.168300E-06  0.202E-03    3.34       9.9  T
   9    -42.7093632 -0.658073E-07  0.814E-04    3.34      24.6  T
  10    -42.7093632 -0.176988E-08  0.292E-04    3.34      68.6  T
     SCC iter.                  ...        0 min,  0.014 sec
     gradient                   ...        0 min,  0.013 sec
 * total energy  :   -31.9485004 Eh     change       -0.8516930E+01 Eh
   gradient norm :     8.5197726 Eh/α   predicted    -0.8391723E+01 (  -1.47%)
   displ. norm   :     0.7750950 α      lambda       -0.6572910E+01
   maximum displ.:     0.7395639 α      in ANC's #69, #61, #60, ...

........................................................................
.............................. CYCLE    3 ..............................
........................................................................

 iter      E             dE          RMSdq      gap      omega  full diag
   1    -42.4330011 -0.424330E+02  0.162E+00    1.96       0.0  T
   2    -42.4377328 -0.473169E-02  0.170E+00    2.21       1.0  T
   3    -42.4976527 -0.599200E-01  0.620E-01    2.22       1.0  T
   4    -42.4911415  0.651120E-02  0.694E-01    2.28       1.0  T
   5    -42.4987813 -0.763979E-02  0.144E-01    2.21       1.0  T
   6    -42.4993533 -0.572007E-03  0.663E-02    2.29       1.0  T
   7    -42.4994556 -0.102248E-03  0.227E-02    2.28       1.0  T
   8    -42.4994616 -0.601494E-05  0.122E-02    2.27       1.6  T
   9    -42.4994632 -0.162503E-05  0.292E-03    2.27       6.9  T
  10    -42.4994633 -0.121453E-06  0.865E-04    2.27      23.1  T
  11    -42.4994633 -0.427533E-08  0.521E-04    2.27      38.4  T
     SCC iter.                  ...        0 min,  0.015 sec
     gradient                   ...        0 min,  0.013 sec
 * total energy  :   -37.2199763 Eh     change       -0.5271476E+01 Eh
   gradient norm :     5.2114143 Eh/α   predicted    -0.5267449E+01 (  -0.08%)
   displ. norm   :     0.7695798 α      lambda       -0.3892763E+01
   maximum displ.:     0.6012821 α      in ANC's #69, #61, #2, ...

........................................................................
.............................. CYCLE    4 ..............................
........................................................................

 iter      E             dE          RMSdq      gap      omega  full diag
   1    -42.1548046 -0.421548E+02  0.175E+00    1.18       0.0  T
   2    -40.9263015  0.122850E+01  0.464E+00    0.57       1.0  T
   3    -42.2726632 -0.134636E+01  0.842E-01    0.87       1.0  T
   4    -42.2360185  0.366446E-01  0.120E+00    0.40       1.0  T
   5    -42.2471827 -0.111642E-01  0.967E-01    0.54       1.0  T
   6    -42.2805284 -0.333457E-01  0.379E-01    0.71       1.0  T
   7    -42.2833982 -0.286980E-02  0.229E-01    0.80       1.0  T
   8    -42.2835495 -0.151304E-03  0.149E-01    0.82       1.0  T
   9    -42.2836843 -0.134759E-03  0.626E-02    0.82       1.0  T
  10    -42.2837130 -0.286835E-04  0.213E-02    0.84       1.0  T
  11    -42.2837140 -0.981223E-06  0.402E-03    0.84       5.0  T
  12    -42.2837144 -0.444480E-06  0.343E-03    0.84       5.8  T
  13    -42.2837145 -0.981516E-07  0.704E-04    0.84      28.4  T
  14    -42.2837145 -0.821536E-08  0.283E-04    0.84      70.8  T
     SCC iter.                  ...        0 min,  0.018 sec
     gradient                   ...        0 min,  0.013 sec
 * total energy  :   -40.2274872 Eh     change       -0.3007511E+01 Eh
   gradient norm :     2.8620683 Eh/α   predicted    -0.3099179E+01 (   3.05%)
   displ. norm   :     0.5941311 α      lambda       -0.1671861E+01
   maximum displ.:     0.5074451 α      in ANC's #69, #61, #2, ...

........................................................................
.............................. CYCLE    5 ..............................
........................................................................

 iter      E             dE          RMSdq      gap      omega  full diag
   1    -42.1234811 -0.421235E+02  0.140E+00    0.21       0.0  T
   2    -42.0769736  0.465075E-01  0.126E+00    0.67       1.0  T
   3    -42.1029357 -0.259621E-01  0.108E+00    0.48       1.0  T
   4    -42.0266598  0.762759E-01  0.147E+00    0.30       1.0  T
   5    -42.1403023 -0.113643E+00  0.260E-01    0.39       1.0  T
   6    -42.1421452 -0.184286E-02  0.839E-02    0.37       1.0  T
   7    -42.1421311  0.141015E-04  0.690E-02    0.36       1.0  T
   8    -42.1421670 -0.359582E-04  0.500E-02    0.36       1.0  T
   9    -42.1422948 -0.127812E-03  0.886E-03    0.38       2.3  T
  10    -42.1422939  0.950925E-06  0.756E-03    0.39       2.6  T
  11    -42.1422954 -0.152629E-05  0.378E-03    0.39       5.3  T
  12    -42.1422959 -0.533113E-06  0.581E-04    0.38      34.4  T
  13    -42.1422959 -0.743545E-08  0.303E-04    0.38      65.9  T
     SCC iter.                  ...        0 min,  0.017 sec
     gradient                   ...        0 min,  0.013 sec
 * total energy  :   -41.3218830 Eh     change       -0.1094396E+01 Eh
   gradient norm :     0.8821871 Eh/α   predicted    -0.1131166E+01 (   3.36%)
   displ. norm   :     0.3495096 α      lambda       -0.2787855E+00
   maximum displ.:     0.1864192 α      in ANC's #69, #2, #61, ...

........................................................................
.............................. CYCLE    6 ..............................
........................................................................

 iter      E             dE          RMSdq      gap      omega  full diag
   1    -42.0584280 -0.420584E+02  0.116E+00    0.17       0.0  T
   2    -41.6133098  0.445118E+00  0.321E+00    1.56       1.0  T
   3    -42.1021142 -0.488804E+00  0.734E-01    0.50       1.0  T
   4    -42.0807966  0.213175E-01  0.825E-01    0.68       1.0  T
   5    -42.1138839 -0.330873E-01  0.263E-01    0.27       1.0  T
   6    -42.1160396 -0.215564E-02  0.758E-02    0.34       1.0  T
   7    -42.1161695 -0.129933E-03  0.481E-02    0.34       1.0  T
   8    -42.1162531 -0.835503E-04  0.178E-02    0.36       1.1  T
   9    -42.1162485  0.458607E-05  0.164E-02    0.35       1.2  T
  10    -42.1162510 -0.254028E-05  0.115E-02    0.35       1.7  T
  11    -42.1162561 -0.507875E-05  0.442E-03    0.36       4.5  T
  12    -42.1162571 -0.947899E-06  0.108E-03    0.36      18.5  T
  13    -42.1162571 -0.412891E-08  0.431E-04    0.36      46.4  T
  14    -42.1162571 -0.426729E-08  0.188E-04    0.36     106.4  T
     SCC iter.                  ...        0 min,  0.018 sec
     gradient                   ...        0 min,  0.013 sec
 * total energy  :   -41.4876991 Eh     change       -0.1658161E+00 Eh
   gradient norm :     0.3412272 Eh/α   predicted    -0.1564255E+00 (  -5.66%)
   displ. norm   :     0.3517365 α      lambda       -0.6889571E-01
   maximum displ.:     0.2856377 α      in ANC's #1, #39, #20, ...

........................................................................
.............................. CYCLE    7 ..............................
........................................................................

 iter      E             dE          RMSdq      gap      omega  full diag
   1    -42.1192478 -0.421192E+02  0.698E-01    0.07       0.0  T
   2    -41.9120772  0.207171E+00  0.214E+00    1.52       1.0  T
   3    -42.1326825 -0.220605E+00  0.503E-01    0.40       1.0  T
   4    -42.1166361  0.160464E-01  0.657E-01    0.63       1.0  T
   5    -42.1374500 -0.208139E-01  0.177E-01    0.29       1.0  T
   6    -42.1387265 -0.127650E-02  0.412E-02    0.34       1.0  T
   7    -42.1387914 -0.649214E-04  0.202E-02    0.35       1.0  T
   8    -42.1387934 -0.197930E-05  0.940E-03    0.35       2.1  T
   9    -42.1387943 -0.947392E-06  0.508E-03    0.35       3.9  T
  10    -42.1387949 -0.542712E-06  0.244E-03    0.35       8.2  T
  11    -42.1387951 -0.199262E-06  0.126E-03    0.35      15.9  T
  12    -42.1387951 -0.423123E-07  0.369E-04    0.35      54.2  T
  13    -42.1387951 -0.355426E-08  0.204E-04    0.35      98.2  T
     SCC iter.                  ...        0 min,  0.017 sec
     gradient                   ...        0 min,  0.013 sec
 * total energy  :   -41.5470318 Eh     change       -0.5933274E-01 Eh
   gradient norm :     0.3245623 Eh/α   predicted    -0.3870965E-01 ( -34.76%)
   displ. norm   :     0.7010296 α      lambda       -0.1163039E+00
   maximum displ.:     0.5823615 α      in ANC's #1, #20, #39, ...

........................................................................
.............................. CYCLE    8 ..............................
........................................................................

 iter      E             dE          RMSdq      gap      omega  full diag
   1    -42.0524021 -0.420524E+02  0.163E+00    0.19       0.0  T
   2    -41.4165552  0.635847E+00  0.399E+00    2.30       1.0  T
   3    -42.1164837 -0.699929E+00  0.130E+00    0.86       1.0  T
   4    -42.1629980 -0.465143E-01  0.678E-01    0.53       1.0  T
   5    -42.1234374  0.395606E-01  0.832E-01    0.08       1.0  T
   6    -42.1703870 -0.469496E-01  0.220E-01    0.24       1.0  T
   7    -42.1721212 -0.173425E-02  0.145E-01    0.28       1.0  T
   8    -42.1731964 -0.107513E-02  0.712E-02    0.32       1.0  T
   9    -42.1734612 -0.264838E-03  0.273E-02    0.34       1.0  T
  10    -42.1734893 -0.281085E-04  0.163E-02    0.34       1.2  T
  11    -42.1735041 -0.148068E-04  0.586E-03    0.35       3.4  T
  12    -42.1735034  0.749392E-06  0.583E-03    0.35       3.4  T
  13    -42.1735054 -0.204387E-05  0.881E-04    0.35      22.7  T
  14    -42.1735054 -0.225926E-07  0.331E-04    0.35      60.4  T
  15    -42.1735054  0.158010E-07  0.550E-04    0.35      36.4  T
     SCC iter.                  ...        0 min,  0.020 sec
     gradient                   ...        0 min,  0.013 sec
 * total energy  :   -41.6254996 Eh     change       -0.7846774E-01 Eh
   gradient norm :     0.4161210 Eh/α   predicted    -0.8673008E-01 (  10.53%)
   displ. norm   :     0.6389204 α      lambda       -0.1053724E+00
   maximum displ.:     0.3476620 α      in ANC's #1, #20, #19, ...

........................................................................
.............................. CYCLE    9 ..............................
........................................................................

 iter      E             dE          RMSdq      gap      omega  full diag
   1    -42.2448514 -0.422449E+02  0.960E-01    0.32       0.0  T
   2    -42.1088128  0.136039E+00  0.158E+00    0.49       1.0  T
   3    -42.1786087 -0.697959E-01  0.129E+00    0.83       1.0  T
   4    -42.2516723 -0.730637E-01  0.439E-01    0.28       1.0  T
   5    -42.2556761 -0.400380E-02  0.165E-01    0.18       1.0  T
   6    -42.2562353 -0.559185E-03  0.490E-02    0.20       1.0  T
   7    -42.2562525 -0.171781E-04  0.260E-02    0.21       1.0  T
   8    -42.2562582 -0.569584E-05  0.112E-02    0.21       1.8  T
   9    -42.2562591 -0.918744E-06  0.723E-03    0.21       2.8  T
  10    -42.2562601 -0.100682E-05  0.166E-03    0.21      12.0  T
  11    -42.2562601  0.455326E-07  0.149E-03    0.21      13.4  T
  12    -42.2562601 -0.174044E-07  0.113E-03    0.21      17.8  T
  13    -42.2562601 -0.611007E-07  0.192E-04    0.21     104.2  T
  14    -42.2562601 -0.161331E-08  0.504E-05    0.21     396.9  T
     SCC iter.                  ...        0 min,  0.018 sec
     gradient                   ...        0 min,  0.013 sec
 * total energy  :   -41.6788613 Eh     change       -0.5336175E-01 Eh
   gradient norm :     0.2900944 Eh/α   predicted    -0.7419604E-01 (  39.04%)
   displ. norm   :     0.4989983 α      lambda       -0.5092838E-01
   maximum displ.:     0.3960667 α      in ANC's #1, #20, #18, ...

........................................................................
.............................. CYCLE   10 ..............................
........................................................................

 iter      E             dE          RMSdq      gap      omega  full diag
   1    -42.1554888 -0.421555E+02  0.150E+00    0.17       0.0  T
   2    -41.5760056  0.579483E+00  0.361E+00    2.00       1.0  T
   3    -42.2267769 -0.650771E+00  0.925E-01    0.32       1.0  T
   4    -42.1947489  0.320280E-01  0.116E+00    0.74       1.0  T
   5    -42.2414124 -0.466634E-01  0.388E-01    0.06       1.0  T
   6    -42.2524964 -0.110841E-01  0.762E-02    0.22       1.0  T
   7    -42.2516718  0.824584E-03  0.128E-01    0.18       1.0  T
   8    -42.2526315 -0.959668E-03  0.423E-02    0.22       1.0  T
   9    -42.2527265 -0.949405E-04  0.627E-03    0.24       3.2  T
  10    -42.2527260  0.505583E-06  0.457E-03    0.24       4.4  T
  11    -42.2527270 -0.101905E-05  0.140E-03    0.24      14.3  T
  12    -42.2527270 -0.557506E-07  0.567E-04    0.24      35.3  T
  13    -42.2527270 -0.361101E-08  0.409E-04    0.24      48.9  T
     SCC iter.                  ...        0 min,  0.017 sec
     gradient                   ...        0 min,  0.013 sec
 * total energy  :   -41.7165777 Eh     change       -0.3771635E-01 Eh
   gradient norm :     0.2514935 Eh/α   predicted    -0.3180481E-01 ( -15.67%)
   displ. norm   :     0.4172840 α      lambda       -0.5649224E-01
   maximum displ.:     0.1904699 α      in ANC's #20, #18, #19, ...

........................................................................
.............................. CYCLE   11 ..............................
........................................................................

 iter      E             dE          RMSdq      gap      omega  full diag
   1    -42.2514734 -0.422515E+02  0.877E-01    0.14       0.0  T
   2    -42.1314440  0.120029E+00  0.158E+00    0.83       1.0  T
   3    -42.1495001 -0.180561E-01  0.136E+00    0.40       1.0  T
   4    -42.2483084 -0.988084E-01  0.675E-01    0.46       1.0  T
   5    -42.2633899 -0.150815E-01  0.164E-01    0.28       1.0  T
   6    -42.2641007 -0.710842E-03  0.613E-02    0.20       1.0  T
   7    -42.2642209 -0.120151E-03  0.318E-02    0.21       1.0  T
   8    -42.2642559 -0.350535E-04  0.925E-03    0.23       2.2  T
   9    -42.2642571 -0.118949E-05  0.467E-03    0.23       4.3  T
  10    -42.2642579 -0.747564E-06  0.138E-03    0.23      14.5  T
  11    -42.2642579 -0.143424E-07  0.434E-04    0.23      46.1  T
  12    -42.2642579 -0.144453E-08  0.203E-04    0.23      98.4  T
     SCC iter.                  ...        0 min,  0.016 sec
     gradient                   ...        0 min,  0.013 sec
 * total energy  :   -41.7603446 Eh     change       -0.4376689E-01 Eh
   gradient norm :     0.2055544 Eh/α   predicted    -0.3316449E-01 ( -24.22%)
   displ. norm   :     0.4408094 α      lambda       -0.5363813E-01
   maximum displ.:     0.2058998 α      in ANC's #20, #18, #19, ...

........................................................................
.............................. CYCLE   12 ..............................
........................................................................

 iter      E             dE          RMSdq      gap      omega  full diag
   1    -42.2729893 -0.422730E+02  0.757E-01    0.19       0.0  T
   2    -42.2503805  0.226088E-01  0.936E-01    0.27       1.0  T
   3    -42.2578326 -0.745206E-02  0.689E-01    0.08       1.0  T
   4    -42.2389418  0.188908E-01  0.911E-01    0.60       1.0  T
   5    -42.2784783 -0.395365E-01  0.914E-02    0.24       1.0  T
   6    -42.2787648 -0.286549E-03  0.333E-02    0.22       1.0  T
   7    -42.2787952 -0.303593E-04  0.159E-02    0.21       1.3  T
   8    -42.2787976 -0.240974E-05  0.898E-03    0.21       2.2  T
   9    -42.2787989 -0.125794E-05  0.357E-03    0.21       5.6  T
  10    -42.2787991 -0.291756E-06  0.130E-03    0.21      15.3  T
  11    -42.2787992 -0.584731E-07  0.513E-04    0.21      39.0  T
  12    -42.2787992 -0.958651E-08  0.190E-04    0.21     105.1  T
     SCC iter.                  ...        0 min,  0.016 sec
     gradient                   ...        0 min,  0.013 sec
 * total energy  :   -41.7992611 Eh     change       -0.3891654E-01 Eh
   gradient norm :     0.2016408 Eh/α   predicted    -0.3203036E-01 ( -17.69%)
   displ. norm   :     0.4403108 α      lambda       -0.4816883E-01
   maximum displ.:     0.2059535 α      in ANC's #1, #18, #20, ...

........................................................................
.............................. CYCLE   13 ..............................
........................................................................

 iter      E             dE          RMSdq      gap      omega  full diag
   1    -42.2725693 -0.422726E+02  0.933E-01    0.06       0.0  T
   2    -42.1445686  0.128001E+00  0.179E+00    0.74       1.0  T
   3    -42.2060769 -0.615083E-01  0.126E+00    0.33       1.0  T
   4    -42.2794737 -0.733967E-01  0.523E-01    0.31       1.0  T
   5    -42.2872426 -0.776891E-02  0.103E-01    0.19       1.0  T
   6    -42.2874214 -0.178817E-03  0.389E-02    0.16       1.0  T
   7    -42.2874266 -0.517670E-05  0.274E-02    0.16       1.0  T
   8    -42.2874408 -0.142774E-04  0.122E-02    0.16       1.6  T
   9    -42.2874431 -0.227114E-05  0.397E-03    0.17       5.0  T
  10    -42.2874431  0.420745E-07  0.303E-03    0.17       6.6  T
  11    -42.2874434 -0.339708E-06  0.101E-03    0.17      19.8  T
  12    -42.2874434 -0.374628E-07  0.280E-04    0.17      71.4  T
  13    -42.2874434 -0.176421E-09  0.172E-04    0.17     116.2  T
     SCC iter.                  ...        0 min,  0.017 sec
     gradient                   ...        0 min,  0.012 sec
 * total energy  :   -41.8348320 Eh     change       -0.3557093E-01 Eh
   gradient norm :     0.2345133 Eh/α   predicted    -0.2875373E-01 ( -19.17%)
   displ. norm   :     0.4226038 α      lambda       -0.4945157E-01
   maximum displ.:     0.1752842 α      in ANC's #2, #18, #57, ...

........................................................................
.............................. CYCLE   14 ..............................
........................................................................

 iter      E             dE          RMSdq      gap      omega  full diag
   1    -42.3239959 -0.423240E+02  0.654E-01    0.25       0.0  T
   2    -42.1878728  0.136123E+00  0.180E+00    0.43       1.0  T
   3    -42.3300643 -0.142192E+00  0.406E-01    0.16       1.0  T
   4    -42.3151461  0.149182E-01  0.683E-01    0.19       1.0  T
   5    -42.3326192 -0.174731E-01  0.106E-01    0.08       1.0  T
   6    -42.3328544 -0.235146E-03  0.301E-02    0.11       1.0  T
   7    -42.3328676 -0.131868E-04  0.184E-02    0.11       1.1  T
   8    -42.3328733 -0.571122E-05  0.911E-03    0.10       2.2  T
   9    -42.3328751 -0.180944E-05  0.158E-03    0.10      12.6  T
  10    -42.3328751 -0.342461E-07  0.527E-04    0.10      37.9  T
  11    -42.3328751 -0.142427E-08  0.318E-04    0.10      62.9  T
     SCC iter.                  ...        0 min,  0.015 sec
     gradient                   ...        0 min,  0.013 sec
 * total energy  :   -41.8619589 Eh     change       -0.2712687E-01 Eh
   gradient norm :     0.2159241 Eh/α   predicted    -0.2914175E-01 (   7.43%)
   displ. norm   :     0.1634314 α      lambda       -0.2141480E-01
   maximum displ.:     0.1119985 α      in ANC's #1, #39, #46, ...

........................................................................
.............................. CYCLE   15 ..............................
........................................................................

 iter      E             dE          RMSdq      gap      omega  full diag
   1    -42.3530699 -0.423531E+02  0.330E-01    0.06       0.0  T
   2    -42.2696942  0.833756E-01  0.133E+00    0.72       1.0  T
   3    -42.3561055 -0.864113E-01  0.150E-01    0.06       1.0  T
   4    -42.3561995 -0.940029E-04  0.122E-01    0.09       1.0  T
   5    -42.3564422 -0.242678E-03  0.525E-02    0.08       1.0  T
   6    -42.3565089 -0.666357E-04  0.109E-02    0.09       1.8  T
   7    -42.3565101 -0.124370E-05  0.777E-03    0.09       2.6  T
   8    -42.3565108 -0.671060E-06  0.431E-03    0.09       4.6  T
   9    -42.3565111 -0.375171E-06  0.127E-03    0.09      15.7  T
  10    -42.3565112 -0.374939E-07  0.413E-04    0.09      48.4  T
  11    -42.3565112  0.855657E-09  0.296E-04    0.09      67.5  T
     SCC iter.                  ...        0 min,  0.015 sec
     gradient                   ...        0 min,  0.013 sec
 * total energy  :   -41.8784312 Eh     change       -0.1647232E-01 Eh
   gradient norm :     0.1622523 Eh/α   predicted    -0.1099359E-01 ( -33.26%)
   displ. norm   :     0.2451808 α      lambda       -0.3529119E-01
   maximum displ.:     0.0717522 α      in ANC's #62, #42, #2, ...

........................................................................
.............................. CYCLE   16 ..............................
........................................................................

 iter      E             dE          RMSdq      gap      omega  full diag
   1    -42.4221952 -0.424222E+02  0.531E-01    0.10       0.0  T
   2    -42.3329529  0.892423E-01  0.140E+00    0.71       1.0  T
   3    -42.4118544 -0.789016E-01  0.614E-01    0.23       1.0  T
   4    -42.4258111 -0.139566E-01  0.238E-01    0.05       1.0  T
   5    -42.4264857 -0.674683E-03  0.150E-01    0.05       1.0  T
   6    -42.4270700 -0.584219E-03  0.276E-02    0.06       1.0  T
   7    -42.4270872 -0.172096E-04  0.152E-02    0.06       1.3  T
   8    -42.4270916 -0.441746E-05  0.771E-03    0.06       2.6  T
   9    -42.4270928 -0.125176E-05  0.187E-03    0.06      10.7  T
  10    -42.4270929 -0.439081E-07  0.887E-04    0.06      22.5  T
  11    -42.4270929 -0.211052E-07  0.243E-04    0.06      82.3  T
     SCC iter.                  ...        0 min,  0.015 sec
     gradient                   ...        0 min,  0.013 sec
 * total energy  :   -41.8974804 Eh     change       -0.1904920E-01 Eh
   gradient norm :     0.1682462 Eh/α   predicted    -0.1870682E-01 (  -1.80%)
   displ. norm   :     0.2048810 α      lambda       -0.1233489E-01
   maximum displ.:     0.0949038 α      in ANC's #18, #1, #44, ...

........................................................................
.............................. CYCLE   17 ..............................
........................................................................

 iter      E             dE          RMSdq      gap      omega  full diag
   1    -42.4412424 -0.424412E+02  0.395E-01    0.15       0.0  T
   2    -42.3454610  0.957814E-01  0.146E+00    0.70       1.0  T
   3    -42.4424004 -0.969394E-01  0.290E-01    0.11       1.0  T
   4    -42.4451288 -0.272840E-02  0.141E-01    0.05       1.0  T
   5    -42.4453854 -0.256619E-03  0.598E-02    0.05       1.0  T
   6    -42.4454558 -0.704055E-04  0.212E-02    0.05       1.0  T
   7    -42.4454674 -0.116499E-04  0.818E-03    0.05       2.4  T
   8    -42.4454676 -0.133664E-06  0.517E-03    0.05       3.9  T
   9    -42.4454682 -0.655997E-06  0.147E-03    0.05      13.6  T
  10    -42.4454683 -0.519442E-07  0.479E-04    0.05      41.7  T
  11    -42.4454683 -0.431763E-08  0.178E-04    0.05     112.6  T
     SCC iter.                  ...        0 min,  0.015 sec
     gradient                   ...        0 min,  0.013 sec
 * total energy  :   -41.9077112 Eh     change       -0.1023074E-01 Eh
   gradient norm :     0.1469030 Eh/α   predicted    -0.6426482E-02 ( -37.18%)
   displ. norm   :     0.4113913 α      lambda       -0.2666267E-01
   maximum displ.:     0.2038195 α      in ANC's #18, #19, #44, ...

........................................................................
.............................. CYCLE   18 ..............................
........................................................................

 iter      E             dE          RMSdq      gap      omega  full diag
   1    -42.4628160 -0.424628E+02  0.708E-01    0.35       0.0  T
   2    -42.2265915  0.236224E+00  0.234E+00    1.07       1.0  T
   3    -42.4609549 -0.234363E+00  0.596E-01    0.34       1.0  T
   4    -42.4736929 -0.127380E-01  0.219E-01    0.15       1.0  T
   5    -42.4741889 -0.495972E-03  0.111E-01    0.12       1.0  T
   6    -42.4744277 -0.238842E-03  0.435E-02    0.11       1.0  T
   7    -42.4744777 -0.499930E-04  0.172E-02    0.11       1.2  T
   8    -42.4744838 -0.610058E-05  0.539E-03    0.11       3.7  T
   9    -42.4744839 -0.810086E-07  0.215E-03    0.11       9.3  T
  10    -42.4744840 -0.753450E-07  0.684E-04    0.11      29.2  T
  11    -42.4744840 -0.649474E-08  0.309E-04    0.11      64.8  T
     SCC iter.                  ...        0 min,  0.015 sec
     gradient                   ...        0 min,  0.013 sec
 * total energy  :   -41.9273812 Eh     change       -0.1967003E-01 Eh
   gradient norm :     0.1266499 Eh/α   predicted    -0.1558770E-01 ( -20.75%)
   displ. norm   :     0.4624347 α      lambda       -0.2111852E-01
   maximum displ.:     0.2488441 α      in ANC's #18, #19, #20, ...

........................................................................
.............................. CYCLE   19 ..............................
........................................................................

 iter      E             dE          RMSdq      gap      omega  full diag
   1    -42.4776960 -0.424777E+02  0.761E-01    0.54       0.0  T
   2    -42.1475363  0.330160E+00  0.280E+00    1.15       1.0  T
   3    -42.4857708 -0.338235E+00  0.469E-01    0.44       1.0  T
   4    -42.4922387 -0.646783E-02  0.110E-01    0.27       1.0  T
   5    -42.4924004 -0.161761E-03  0.529E-02    0.26       1.0  T
   6    -42.4924738 -0.733957E-04  0.195E-02    0.26       1.0  T
   7    -42.4924758 -0.201057E-05  0.141E-02    0.26       1.4  T
   8    -42.4924797 -0.388010E-05  0.499E-03    0.26       4.0  T
   9    -42.4924800 -0.308039E-06  0.129E-03    0.26      15.5  T
  10    -42.4924800 -0.264457E-07  0.619E-04    0.26      32.3  T
  11    -42.4924801 -0.766217E-08  0.229E-04    0.26      87.3  T
     SCC iter.                  ...        0 min,  0.015 sec
     gradient                   ...        0 min,  0.013 sec
 * total energy  :   -41.9437241 Eh     change       -0.1634293E-01 Eh
   gradient norm :     0.1481451 Eh/α   predicted    -0.1281740E-01 ( -21.57%)
   displ. norm   :     0.4568590 α      lambda       -0.2056450E-01
   maximum displ.:     0.2462271 α      in ANC's #18, #19, #20, ...

........................................................................
.............................. CYCLE   20 ..............................
........................................................................

 iter      E             dE          RMSdq      gap      omega  full diag
   1    -42.4917281 -0.424917E+02  0.757E-01    0.71       0.0  T
   2    -42.1368071  0.354921E+00  0.292E+00    1.01       1.0  T
   3    -42.4990510 -0.362244E+00  0.507E-01    0.63       1.0  T
   4    -42.5050051 -0.595407E-02  0.254E-01    0.49       1.0  T
   5    -42.5068458 -0.184066E-02  0.627E-02    0.43       1.0  T
   6    -42.5069471 -0.101363E-03  0.251E-02    0.42       1.0  T
   7    -42.5069578 -0.106780E-04  0.128E-02    0.42       1.6  T
   8    -42.5069599 -0.206613E-05  0.596E-03    0.42       3.4  T
   9    -42.5069608 -0.921486E-06  0.107E-03    0.42      18.6  T
  10    -42.5069608 -0.589786E-08  0.539E-04    0.42      37.1  T
  11    -42.5069608 -0.231011E-08  0.304E-04    0.42      65.8  T
     SCC iter.                  ...        0 min,  0.015 sec
     gradient                   ...        0 min,  0.013 sec
 * total energy  :   -41.9595593 Eh     change       -0.1583512E-01 Eh
   gradient norm :     0.1607435 Eh/α   predicted    -0.1242844E-01 ( -21.51%)
   displ. norm   :     0.3812799 α      lambda       -0.2126124E-01
   maximum displ.:     0.2003667 α      in ANC's #18, #19, #20, ...
 * RMSD in coord.:     1.0805762 α      energy gain  -0.1852799E+02 Eh

generating ANC from model Hessian ...
Using Lindh-Hessian (1995)
 Shifting diagonal of input Hessian by    1.0414396826559114E-002
 Lowest  eigenvalues of input Hessian
    0.010000    0.010108    0.000000    0.000000    0.000000    0.000000
    0.000000    0.000000    0.010604    0.011010    0.011191    0.011389
    0.012219    0.013608    0.014161    0.015460    0.017852    0.020167
 Highest eigenvalues
    1.874002    2.045396    2.057898    2.467824    3.142775    4.307781


........................................................................
.............................. CYCLE   21 ..............................
........................................................................

 iter      E             dE          RMSdq      gap      omega  full diag
   1    -42.5128240 -0.425128E+02  0.610E-01    0.76       0.0  T
   2    -42.3003039  0.212520E+00  0.225E+00    0.49       1.0  T
   3    -42.5130178 -0.212714E+00  0.500E-01    0.76       1.0  T
   4    -42.5192672 -0.624941E-02  0.237E-01    0.63       1.0  T
   5    -42.5207393 -0.147213E-02  0.783E-02    0.57       1.0  T
   6    -42.5209092 -0.169923E-03  0.275E-02    0.56       1.0  T
   7    -42.5209237 -0.144687E-04  0.168E-02    0.56       1.2  T
   8    -42.5209296 -0.594854E-05  0.759E-03    0.55       2.6  T
   9    -42.5209314 -0.178873E-05  0.123E-03    0.55      16.3  T
  10    -42.5209315 -0.218889E-07  0.475E-04    0.55      42.1  T
  11    -42.5209315 -0.249806E-08  0.200E-04    0.55      99.8  T
     SCC iter.                  ...        0 min,  0.015 sec
     gradient                   ...        0 min,  0.013 sec
 * total energy  :   -41.9753663 Eh     change       -0.1580699E-01 Eh
   gradient norm :     0.1455573 Eh/α   predicted     0.0000000E+00 (-100.00%)
   displ. norm   :     0.5828185 α      lambda       -0.5255519E-01
   maximum displ.:     0.3417033 α      in ANC's #22, #9, #27, ...

........................................................................
.............................. CYCLE   22 ..............................
........................................................................

 iter      E             dE          RMSdq      gap      omega  full diag
   1    -42.5552456 -0.425552E+02  0.657E-01    0.79       0.0  T
   2    -42.4390595  0.116186E+00  0.171E+00    0.13       1.0  T
   3    -42.5525987 -0.113539E+00  0.535E-01    0.86       1.0  T
   4    -42.5586799 -0.608116E-02  0.272E-01    0.62       1.0  T
   5    -42.5605630 -0.188311E-02  0.473E-02    0.65       1.0  T
   6    -42.5606098 -0.467719E-04  0.258E-02    0.64       1.0  T
   7    -42.5606220 -0.121959E-04  0.949E-03    0.64       2.1  T
   8    -42.5606227 -0.736142E-06  0.312E-03    0.64       6.4  T
   9    -42.5606227 -0.428768E-07  0.118E-03    0.64      17.0  T
  10    -42.5606228 -0.278256E-07  0.530E-04    0.64      37.7  T
  11    -42.5606228 -0.265539E-08  0.209E-04    0.64      95.5  T
     SCC iter.                  ...        0 min,  0.015 sec
     gradient                   ...        0 min,  0.013 sec
 * total energy  :   -42.0155635 Eh     change       -0.4019724E-01 Eh
   gradient norm :     0.0799515 Eh/α   predicted    -0.3520352E-01 ( -12.42%)
   displ. norm   :     0.7359670 α      lambda       -0.3899067E-01
   maximum displ.:     0.3659327 α      in ANC's #22, #10, #8, ...

........................................................................
.............................. CYCLE   23 ..............................
........................................................................

 iter      E             dE          RMSdq      gap      omega  full diag
   1    -42.5949507 -0.425950E+02  0.623E-01    0.78       0.0  T
   2    -42.5620811  0.328696E-01  0.980E-01    0.27       1.0  T
   3    -42.5802445 -0.181633E-01  0.695E-01    1.03       1.0  T
   4    -42.5955912 -0.153468E-01  0.248E-01    0.64       1.0  T
   5    -42.5972479 -0.165669E-02  0.646E-02    0.69       1.0  T
   6    -42.5973590 -0.111062E-03  0.159E-02    0.69       1.3  T
   7    -42.5973618 -0.283416E-05  0.922E-03    0.69       2.2  T
   8    -42.5973624 -0.632885E-06  0.457E-03    0.69       4.4  T
   9    -42.5973631 -0.611849E-06  0.100E-03    0.69      19.9  T
  10    -42.5973631 -0.148030E-07  0.484E-04    0.69      41.3  T
  11    -42.5973631 -0.379421E-08  0.123E-04    0.69     162.2  T
     SCC iter.                  ...        0 min,  0.015 sec
     gradient                   ...        0 min,  0.013 sec
 * total energy  :   -42.0364395 Eh     change       -0.2087606E-01 Eh
   gradient norm :     0.0873158 Eh/α   predicted    -0.3005564E-01 (  43.97%)
   displ. norm   :     0.7079736 α      lambda       -0.2497935E-01
   maximum displ.:     0.4941824 α      in ANC's #9, #11, #10, ...

........................................................................
.............................. CYCLE   24 ..............................
........................................................................

 iter      E             dE          RMSdq      gap      omega  full diag
   1    -42.5839637 -0.425840E+02  0.796E-01    0.97       0.0  T
   2    -42.4268595  0.157104E+00  0.198E+00    0.15       1.0  T
   3    -42.5711003 -0.144241E+00  0.827E-01    1.17       1.0  T
   4    -42.5897077 -0.186074E-01  0.324E-01    0.89       1.0  T
   5    -42.5923259 -0.261817E-02  0.821E-02    0.77       1.0  T
   6    -42.5925031 -0.177173E-03  0.275E-02    0.77       1.0  T
   7    -42.5925134 -0.103287E-04  0.143E-02    0.77       1.4  T
   8    -42.5925156 -0.220451E-05  0.900E-03    0.77       2.2  T
   9    -42.5925177 -0.209615E-05  0.259E-03    0.77       7.7  T
  10    -42.5925178 -0.136178E-06  0.124E-03    0.77      16.1  T
  11    -42.5925179 -0.477075E-07  0.187E-04    0.77     106.8  T
  12    -42.5925179 -0.162466E-09  0.749E-05    0.77     266.9  T
     SCC iter.                  ...        0 min,  0.016 sec
     gradient                   ...        0 min,  0.013 sec
 * total energy  :   -42.0481048 Eh     change       -0.1166521E-01 Eh
   gradient norm :     0.1103911 Eh/α   predicted    -0.1875003E-01 (  60.73%)
   displ. norm   :     0.4719765 α      lambda       -0.1664667E-01
   maximum displ.:     0.2574762 α      in ANC's #10, #8, #7, ...

........................................................................
.............................. CYCLE   25 ..............................
........................................................................

 iter      E             dE          RMSdq      gap      omega  full diag
   1    -42.6188047 -0.426188E+02  0.330E-01    0.79       0.0  T
   2    -42.6187095  0.952159E-04  0.252E-01    0.71       1.0  T
   3    -42.6145588  0.415070E-02  0.385E-01    0.97       1.0  T
   4    -42.6191432 -0.458441E-02  0.162E-01    0.71       1.0  T
   5    -42.6198168 -0.673538E-03  0.717E-02    0.80       1.0  T
   6    -42.6199937 -0.176885E-03  0.142E-02    0.79       1.4  T
   7    -42.6199990 -0.533382E-05  0.532E-03    0.78       3.8  T
   8    -42.6199996 -0.568964E-06  0.192E-03    0.78      10.4  T
   9    -42.6199996 -0.273207E-07  0.595E-04    0.78      33.6  T
  10    -42.6199996 -0.573995E-08  0.248E-04    0.78      80.7  T
     SCC iter.                  ...        0 min,  0.014 sec
     gradient                   ...        0 min,  0.013 sec
 * total energy  :   -42.0590105 Eh     change       -0.1090575E-01 Eh
   gradient norm :     0.0470782 Eh/α   predicted    -0.1017742E-01 (  -6.68%)
   displ. norm   :     0.5614809 α      lambda       -0.9597629E-02
   maximum displ.:     0.2769072 α      in ANC's #8, #10, #13, ...

........................................................................
.............................. CYCLE   26 ..............................
........................................................................

 iter      E             dE          RMSdq      gap      omega  full diag
   1    -42.6288495 -0.426288E+02  0.325E-01    0.86       0.0  T
   2    -42.6271421  0.170740E-02  0.272E-01    0.71       1.0  T
   3    -42.6174626  0.967945E-02  0.546E-01    1.11       1.0  T
   4    -42.6289769 -0.115143E-01  0.884E-02    0.80       1.0  T
   5    -42.6291757 -0.198782E-03  0.286E-02    0.82       1.0  T
   6    -42.6291988 -0.230855E-04  0.670E-03    0.82       3.0  T
   7    -42.6291992 -0.415985E-06  0.371E-03    0.82       5.4  T
   8    -42.6291993 -0.691411E-07  0.161E-03    0.82      12.4  T
   9    -42.6291993 -0.359620E-07  0.608E-04    0.82      32.9  T
  10    -42.6291993 -0.511219E-08  0.257E-04    0.82      77.9  T
     SCC iter.                  ...        0 min,  0.014 sec
     gradient                   ...        0 min,  0.013 sec
 * total energy  :   -42.0665944 Eh     change       -0.7583921E-02 Eh
   gradient norm :     0.0492474 Eh/α   predicted    -0.6311678E-02 ( -16.78%)
   displ. norm   :     0.6222841 α      lambda       -0.9583452E-02
   maximum displ.:     0.3196354 α      in ANC's #10, #13, #8, ...

........................................................................
.............................. CYCLE   27 ..............................
........................................................................

 iter      E             dE          RMSdq      gap      omega  full diag
   1    -42.6289952 -0.426290E+02  0.499E-01    0.87       0.0  T
   2    -42.6292915 -0.296283E-03  0.313E-01    0.92       1.0  T
   3    -42.6195025  0.978901E-02  0.531E-01    0.60       1.0  T
   4    -42.6270458 -0.754333E-02  0.337E-01    1.01       1.0  T
   5    -42.6307497 -0.370385E-02  0.571E-02    0.85       1.0  T
   6    -42.6308208 -0.711633E-04  0.133E-02    0.86       1.5  T
   7    -42.6308237 -0.292214E-05  0.663E-03    0.85       3.0  T
   8    -42.6308239 -0.140470E-06  0.263E-03    0.85       7.6  T
   9    -42.6308240 -0.113767E-06  0.850E-04    0.85      23.5  T
  10    -42.6308240 -0.296936E-08  0.429E-04    0.85      46.6  T
     SCC iter.                  ...        0 min,  0.014 sec
     gradient                   ...        0 min,  0.013 sec
 * total energy  :   -42.0753124 Eh     change       -0.8717941E-02 Eh
   gradient norm :     0.0628227 Eh/α   predicted    -0.6647246E-02 ( -23.75%)
   displ. norm   :     0.8134659 α      lambda       -0.1663297E-01
   maximum displ.:     0.4073640 α      in ANC's #10, #13, #9, ...

........................................................................
.............................. CYCLE   28 ..............................
........................................................................

 iter      E             dE          RMSdq      gap      omega  full diag
   1    -42.6119420 -0.426119E+02  0.968E-01    1.06       0.0  T
   2    -42.6110462  0.895807E-03  0.778E-01    0.64       1.0  T
   3    -42.5932972  0.177490E-01  0.964E-01    1.45       1.0  T
   4    -42.6206232 -0.273260E-01  0.383E-01    0.76       1.0  T
   5    -42.6240150 -0.339184E-02  0.139E-01    0.95       1.0  T
   6    -42.6245721 -0.557057E-03  0.209E-02    0.90       1.0  T
   7    -42.6245752 -0.315088E-05  0.111E-02    0.90       1.8  T
   8    -42.6245755 -0.263116E-06  0.486E-03    0.91       4.1  T
   9    -42.6245760 -0.481651E-06  0.156E-03    0.90      12.8  T
  10    -42.6245760 -0.944819E-08  0.921E-04    0.90      21.7  T
  11    -42.6245760 -0.128387E-07  0.269E-04    0.90      74.2  T
     SCC iter.                  ...        0 min,  0.015 sec
     gradient                   ...        0 min,  0.013 sec
 * total energy  :   -42.0917559 Eh     change       -0.1644353E-01 Eh
   gradient norm :     0.0971461 Eh/α   predicted    -0.1381964E-01 ( -15.96%)
   displ. norm   :     0.6875958 α      lambda       -0.2298667E-01
   maximum displ.:     0.2955050 α      in ANC's #13, #10, #59, ...

........................................................................
.............................. CYCLE   29 ..............................
........................................................................

 iter      E             dE          RMSdq      gap      omega  full diag
   1    -42.6166047 -0.426166E+02  0.852E-01    1.24       0.0  T
   2    -42.5533104  0.632943E-01  0.148E+00    0.40       1.0  T
   3    -42.6066354 -0.533250E-01  0.817E-01    1.45       1.0  T
   4    -42.6261757 -0.195402E-01  0.271E-01    1.02       1.0  T
   5    -42.6265883 -0.412621E-03  0.156E-01    1.06       1.0  T
   6    -42.6272982 -0.709871E-03  0.291E-02    1.03       1.0  T
   7    -42.6273063 -0.809655E-05  0.154E-02    1.03       1.3  T
   8    -42.6273092 -0.293812E-05  0.585E-03    1.03       3.4  T
   9    -42.6273095 -0.342813E-06  0.349E-03    1.03       5.7  T
  10    -42.6273098 -0.306779E-06  0.136E-03    1.03      14.7  T
  11    -42.6273099 -0.175351E-07  0.750E-04    1.03      26.7  T
  12    -42.6273099 -0.149848E-07  0.203E-04    1.03      98.3  T
     SCC iter.                  ...        0 min,  0.016 sec
     gradient                   ...        0 min,  0.013 sec
 * total energy  :   -42.0836716 Eh     change        0.8084320E-02 Eh
   gradient norm :     0.1877006 Eh/α   predicted    -0.1692711E-01 (-309.38%)
   displ. norm   :     0.4297423 α      lambda       -0.4860552E-01
   maximum displ.:     0.2366060 α      in ANC's #13, #10, #40, ...

........................................................................
.............................. CYCLE   30 ..............................
........................................................................

 iter      E             dE          RMSdq      gap      omega  full diag
   1    -42.6373012 -0.426373E+02  0.483E-01    0.98       0.0  T
   2    -42.6397535 -0.245233E-02  0.341E-01    1.02       1.0  T
   3    -42.6408606 -0.110714E-02  0.173E-01    0.98       1.0  T
   4    -42.6385888  0.227187E-02  0.257E-01    1.13       1.0  T
   5    -42.6405113 -0.192248E-02  0.110E-01    0.95       1.0  T
   6    -42.6409592 -0.447933E-03  0.125E-02    1.01       1.6  T
   7    -42.6409605 -0.129612E-05  0.702E-03    1.01       2.8  T
   8    -42.6409612 -0.690915E-06  0.212E-03    1.00       9.4  T
   9    -42.6409612 -0.660046E-07  0.700E-04    1.00      28.6  T
  10    -42.6409612 -0.284678E-08  0.424E-04    1.00      47.1  T
     SCC iter.                  ...        0 min,  0.013 sec
     gradient                   ...        0 min,  0.013 sec
 * total energy  :   -42.1029430 Eh     change       -0.1927142E-01 Eh
   gradient norm :     0.0865065 Eh/α   predicted    -0.2879114E-01 (  49.40%)
   displ. norm   :     0.5162040 α      lambda       -0.1477977E-01
   maximum displ.:     0.2670856 α      in ANC's #10, #13, #8, ...

........................................................................
.............................. CYCLE   31 ..............................
........................................................................

 iter      E             dE          RMSdq      gap      omega  full diag
   1    -42.6203214 -0.426203E+02  0.646E-01    0.67       0.0  T
   2    -42.5754360  0.448854E-01  0.119E+00    1.58       1.0  T
   3    -42.6245777 -0.491417E-01  0.378E-01    0.74       1.0  T
   4    -42.6260777 -0.150006E-02  0.195E-01    0.90       1.0  T
   5    -42.6268129 -0.735119E-03  0.578E-02    0.85       1.0  T
   6    -42.6269008 -0.879335E-04  0.150E-02    0.86       1.3  T
   7    -42.6269008 -0.565578E-07  0.985E-03    0.86       2.0  T
   8    -42.6269027 -0.182348E-05  0.266E-03    0.86       7.5  T
   9    -42.6269027 -0.713574E-07  0.118E-03    0.86      16.9  T
  10    -42.6269027 -0.610750E-08  0.797E-04    0.86      25.1  T
  11    -42.6269028 -0.121730E-07  0.233E-04    0.86      85.7  T
     SCC iter.                  ...        0 min,  0.015 sec
     gradient                   ...        0 min,  0.013 sec
 * total energy  :   -42.0930826 Eh     change        0.9860417E-02 Eh
   gradient norm :     0.1546199 Eh/α   predicted    -0.9359124E-02 (-194.92%)
   displ. norm   :     0.3132445 α      lambda       -0.2698519E-01
   maximum displ.:     0.1392730 α      in ANC's #13, #10, #59, ...

........................................................................
.............................. CYCLE   32 ..............................
........................................................................

 iter      E             dE          RMSdq      gap      omega  full diag
   1    -42.6346968 -0.426347E+02  0.467E-01    1.17       0.0  T
   2    -42.5798373  0.548595E-01  0.128E+00    0.39       1.0  T
   3    -42.6384185 -0.585813E-01  0.267E-01    1.07       1.0  T
   4    -42.6392886 -0.870103E-03  0.124E-01    0.99       1.0  T
   5    -42.6394180 -0.129371E-03  0.537E-02    0.98       1.0  T
   6    -42.6394871 -0.691180E-04  0.151E-02    0.98       1.3  T
   7    -42.6394914 -0.427515E-05  0.629E-03    0.98       3.2  T
   8    -42.6394918 -0.408014E-06  0.280E-03    0.99       7.2  T
   9    -42.6394919 -0.152477E-06  0.118E-03    0.99      17.0  T
  10    -42.6394920 -0.279758E-07  0.484E-04    0.99      41.4  T
  11    -42.6394920 -0.261593E-08  0.225E-04    0.99      88.7  T
     SCC iter.                  ...        0 min,  0.015 sec
     gradient                   ...        0 min,  0.012 sec
 * total energy  :   -42.1093880 Eh     change       -0.1630541E-01 Eh
   gradient norm :     0.0504630 Eh/α   predicted    -0.1481633E-01 (  -9.13%)
   displ. norm   :     0.4086739 α      lambda       -0.6385488E-02
   maximum displ.:     0.1689701 α      in ANC's #8, #11, #15, ...

........................................................................
.............................. CYCLE   33 ..............................
........................................................................

 iter      E             dE          RMSdq      gap      omega  full diag
   1    -42.6491193 -0.426491E+02  0.276E-01    1.08       0.0  T
   2    -42.6467645  0.235474E-02  0.310E-01    0.90       1.0  T
   3    -42.6465680  0.196577E-03  0.298E-01    1.19       1.0  T
   4    -42.6493037 -0.273577E-02  0.773E-02    1.04       1.0  T
   5    -42.6494522 -0.148469E-03  0.168E-02    1.04       1.2  T
   6    -42.6494567 -0.447814E-05  0.746E-03    1.03       2.7  T
   7    -42.6494568 -0.112104E-06  0.334E-03    1.03       6.0  T
   8    -42.6494570 -0.266857E-06  0.102E-03    1.03      19.7  T
   9    -42.6494571 -0.113623E-07  0.520E-04    1.03      38.4  T
  10    -42.6494571 -0.581771E-09  0.228E-04    1.03      87.9  T
     SCC iter.                  ...        0 min,  0.013 sec
     gradient                   ...        0 min,  0.013 sec
 * total energy  :   -42.1126465 Eh     change       -0.3258514E-02 Eh
   gradient norm :     0.0405820 Eh/α   predicted    -0.3725963E-02 (  14.35%)
   displ. norm   :     0.3118410 α      lambda       -0.4455615E-02
   maximum displ.:     0.1299582 α      in ANC's #10, #13, #11, ...

........................................................................
.............................. CYCLE   34 ..............................
........................................................................

 iter      E             dE          RMSdq      gap      omega  full diag
   1    -42.6484600 -0.426485E+02  0.220E-01    1.10       0.0  T
   2    -42.6461508  0.230922E-02  0.279E-01    0.92       1.0  T
   3    -42.6468774 -0.726538E-03  0.251E-01    1.18       1.0  T
   4    -42.6486622 -0.178479E-02  0.704E-02    1.07       1.0  T
   5    -42.6487680 -0.105869E-03  0.182E-02    1.06       1.1  T
   6    -42.6487770 -0.897017E-05  0.604E-03    1.06       3.3  T
   7    -42.6487776 -0.622816E-06  0.226E-03    1.06       8.8  T
   8    -42.6487777 -0.456268E-07  0.699E-04    1.06      28.6  T
   9    -42.6487777 -0.837415E-08  0.290E-04    1.06      69.0  T
     SCC iter.                  ...        0 min,  0.012 sec
     gradient                   ...        0 min,  0.013 sec
 * total energy  :   -42.1153677 Eh     change       -0.2721186E-02 Eh
   gradient norm :     0.0309489 Eh/α   predicted    -0.2444448E-02 ( -10.17%)
   displ. norm   :     0.3347047 α      lambda       -0.2982006E-02
   maximum displ.:     0.1504521 α      in ANC's #11, #8, #13, ...

........................................................................
.............................. CYCLE   35 ..............................
........................................................................

 iter      E             dE          RMSdq      gap      omega  full diag
   1    -42.6466801 -0.426467E+02  0.209E-01    1.04       0.0  T
   2    -42.6466707  0.933048E-05  0.124E-01    1.06       1.0  T
   3    -42.6458080  0.862768E-03  0.177E-01    0.97       1.0  T
   4    -42.6459099 -0.101965E-03  0.156E-01    1.13       1.0  T
   5    -42.6467843 -0.874351E-03  0.789E-03    1.05       2.5  T
   6    -42.6467858 -0.152528E-05  0.341E-03    1.05       5.9  T
   7    -42.6467859 -0.892149E-07  0.143E-03    1.05      14.0  T
   8    -42.6467859 -0.159579E-07  0.695E-04    1.05      28.8  T
   9    -42.6467859 -0.123757E-07  0.215E-04    1.05      93.1  T
     SCC iter.                  ...        0 min,  0.012 sec
     gradient                   ...        0 min,  0.013 sec
 * total energy  :   -42.1171914 Eh     change       -0.1823744E-02 Eh
   gradient norm :     0.0172323 Eh/α   predicted    -0.1658036E-02 (  -9.09%)
   displ. norm   :     0.2494100 α      lambda       -0.1523168E-02
   maximum displ.:     0.1335920 α      in ANC's #10, #11, #2, ...

........................................................................
.............................. CYCLE   36 ..............................
........................................................................

 iter      E             dE          RMSdq      gap      omega  full diag
   1    -42.6486846 -0.426487E+02  0.183E-01    1.00       0.0  T
   2    -42.6481749  0.509721E-03  0.168E-01    1.09       1.0  T
   3    -42.6467204  0.145447E-02  0.243E-01    0.90       1.0  T
   4    -42.6486789 -0.195847E-02  0.489E-02    1.03       1.0  T
   5    -42.6487649 -0.860160E-04  0.809E-03    1.02       2.5  T
   6    -42.6487656 -0.763329E-06  0.417E-03    1.03       4.8  T
   7    -42.6487659 -0.264375E-06  0.170E-03    1.02      11.8  T
   8    -42.6487659 -0.222569E-07  0.676E-04    1.02      29.6  T
   9    -42.6487659 -0.115343E-07  0.258E-04    1.02      77.5  T
     SCC iter.                  ...        0 min,  0.012 sec
     gradient                   ...        0 min,  0.013 sec
 * total energy  :   -42.1177375 Eh     change       -0.5460396E-03 Eh
   gradient norm :     0.0159805 Eh/α   predicted    -0.8089579E-03 (  48.15%)
   displ. norm   :     0.1111472 α      lambda       -0.5782210E-03
   maximum displ.:     0.0584546 α      in ANC's #5, #7, #11, ...

........................................................................
.............................. CYCLE   37 ..............................
........................................................................

 iter      E             dE          RMSdq      gap      omega  full diag
   1    -42.6482645 -0.426483E+02  0.853E-02    1.03       0.0  T
   2    -42.6482701 -0.561268E-05  0.598E-02    1.03       1.0  T
   3    -42.6482545  0.156259E-04  0.443E-02    1.02       1.0  T
   4    -42.6480787  0.175773E-03  0.744E-02    1.07       1.0  T
   5    -42.6482944 -0.215686E-03  0.731E-03    1.03       2.7  T
   6    -42.6482956 -0.117150E-05  0.255E-03    1.03       7.9  T
   7    -42.6482957 -0.113676E-06  0.825E-04    1.03      24.2  T
   8    -42.6482957 -0.809437E-08  0.246E-04    1.03      81.3  T
     SCC iter.                  ...        0 min,  0.011 sec
     gradient                   ...        0 min,  0.013 sec
 * total energy  :   -42.1180099 Eh     change       -0.2724160E-03 Eh
   gradient norm :     0.0140882 Eh/α   predicted    -0.2926888E-03 (   7.44%)
   displ. norm   :     0.1028935 α      lambda       -0.3503660E-03
   maximum displ.:     0.0602485 α      in ANC's #2, #9, #15, ...

........................................................................
.............................. CYCLE   38 ..............................
........................................................................

 iter      E             dE          RMSdq      gap      omega  full diag
   1    -42.6499101 -0.426499E+02  0.636E-02    1.03       0.0  T
   2    -42.6499129 -0.275448E-05  0.377E-02    1.03       1.0  T
   3    -42.6498445  0.683585E-04  0.451E-02    1.05       1.0  T
   4    -42.6498671 -0.225660E-04  0.363E-02    1.01       1.0  T
   5    -42.6499152 -0.481077E-04  0.326E-03    1.03       6.1  T
   6    -42.6499155 -0.243712E-06  0.107E-03    1.03      18.6  T
   7    -42.6499155 -0.136767E-07  0.559E-04    1.03      35.8  T
   8    -42.6499155 -0.405309E-08  0.181E-04    1.03     110.7  T
     SCC iter.                  ...        0 min,  0.011 sec
     gradient                   ...        0 min,  0.013 sec
 * total energy  :   -42.1181722 Eh     change       -0.1623022E-03 Eh
   gradient norm :     0.0093592 Eh/α   predicted    -0.1770379E-03 (   9.08%)
   displ. norm   :     0.0915594 α      lambda       -0.1775232E-03
   maximum displ.:     0.0577415 α      in ANC's #2, #7, #8, ...

........................................................................
.............................. CYCLE   39 ..............................
........................................................................

 iter      E             dE          RMSdq      gap      omega  full diag
   1    -42.6503264 -0.426503E+02  0.591E-02    1.03       0.0  T
   2    -42.6503203  0.610094E-05  0.384E-02    1.03       1.0  T
   3    -42.6501341  0.186196E-03  0.745E-02    1.07       1.0  T
   4    -42.6502966 -0.162536E-03  0.301E-02    1.02       1.0  T
   5    -42.6503308 -0.341730E-04  0.177E-03    1.03      11.3  T
   6    -42.6503309 -0.400336E-07  0.720E-04    1.03      27.8  T
   7    -42.6503309 -0.714073E-08  0.221E-04    1.03      90.6  T
     SCC iter.                  ...        0 min,  0.010 sec
     gradient                   ...        0 min,  0.012 sec
 * total energy  :   -42.1182989 Eh     change       -0.1267171E-03 Eh
   gradient norm :     0.0063701 Eh/α   predicted    -0.8950976E-04 ( -29.36%)
   displ. norm   :     0.1846118 α      lambda       -0.2423968E-03
   maximum displ.:     0.1032007 α      in ANC's #2, #1, #7, ...

........................................................................
.............................. CYCLE   40 ..............................
........................................................................

 iter      E             dE          RMSdq      gap      omega  full diag
   1    -42.6497031 -0.426497E+02  0.109E-01    1.02       0.0  T
   2    -42.6496914  0.117333E-04  0.677E-02    1.04       1.0  T
   3    -42.6486820  0.100932E-02  0.163E-01    0.94       1.0  T
   4    -42.6497049 -0.102286E-02  0.104E-02    1.03       1.9  T
   5    -42.6497076 -0.271401E-05  0.336E-03    1.03       6.0  T
   6    -42.6497078 -0.238008E-06  0.159E-03    1.03      12.5  T
   7    -42.6497079 -0.360938E-07  0.485E-04    1.03      41.2  T
   8    -42.6497079 -0.334433E-08  0.132E-04    1.03     151.5  T
     SCC iter.                  ...        0 min,  0.011 sec
     gradient                   ...        0 min,  0.012 sec
 * total energy  :   -42.1184204 Eh     change       -0.1214596E-03 Eh
   gradient norm :     0.0056609 Eh/α   predicted    -0.1253337E-03 (   3.19%)
   displ. norm   :     0.1042369 α      lambda       -0.8872710E-04
   maximum displ.:     0.0543509 α      in ANC's #1, #2, #7, ...

........................................................................
.............................. CYCLE   41 ..............................
........................................................................

 iter      E             dE          RMSdq      gap      omega  full diag
   1    -42.6496993 -0.426497E+02  0.605E-02    1.03       0.0  T
   2    -42.6496902  0.901808E-05  0.390E-02    1.02       1.0  T
   3    -42.6493661  0.324110E-03  0.955E-02    1.08       1.0  T
   4    -42.6496953 -0.329199E-03  0.131E-02    1.03       1.5  T
   5    -42.6497015 -0.621232E-05  0.144E-03    1.03      13.9  T
   6    -42.6497016 -0.387015E-07  0.614E-04    1.03      32.6  T
   7    -42.6497016  0.285631E-09  0.310E-04    1.03      64.5  T
     SCC iter.                  ...        0 min,  0.010 sec
     gradient                   ...        0 min,  0.013 sec
 * total energy  :   -42.1184717 Eh     change       -0.5137127E-04 Eh
   gradient norm :     0.0059689 Eh/α   predicted    -0.4485043E-04 ( -12.69%)
   displ. norm   :     0.1219225 α      lambda       -0.8677240E-04
   maximum displ.:     0.0815081 α      in ANC's #1, #2, #6, ...

........................................................................
.............................. CYCLE   42 ..............................
........................................................................

 iter      E             dE          RMSdq      gap      omega  full diag
   1    -42.6502008 -0.426502E+02  0.815E-02    1.03       0.0  T
   2    -42.6502000  0.772028E-06  0.473E-02    1.03       1.0  T
   3    -42.6500494  0.150605E-03  0.646E-02    1.06       1.0  T
   4    -42.6501970 -0.147593E-03  0.113E-02    1.02       1.8  T
   5    -42.6502020 -0.502401E-05  0.183E-03    1.03      10.9  T
   6    -42.6502021 -0.881813E-07  0.640E-04    1.03      31.3  T
   7    -42.6502021 -0.501790E-08  0.253E-04    1.03      78.9  T
     SCC iter.                  ...        0 min,  0.010 sec
     gradient                   ...        0 min,  0.013 sec
 * total energy  :   -42.1185371 Eh     change       -0.6530637E-04 Eh
   gradient norm :     0.0049685 Eh/α   predicted    -0.4403497E-04 ( -32.57%)
   displ. norm   :     0.2625180 α      lambda       -0.1473089E-03
   maximum displ.:     0.2049830 α      in ANC's #1, #2, #6, ...
 * RMSD in coord.:     0.7497211 α      energy gain  -0.1589778E+00 Eh

generating ANC from model Hessian ...
Using Lindh-Hessian (1995)
 Shifting diagonal of input Hessian by    9.8915385115459584E-003
 Lowest  eigenvalues of input Hessian
    0.000000    0.000000    0.000000    0.000000    0.000000    0.000000
    0.010000    0.010027    0.010081    0.010318    0.010449    0.010476
    0.012913    0.015933    0.019733    0.020726    0.021147    0.027103
 Highest eigenvalues
    2.120941    2.220517    2.285833    2.358646    2.559141    4.869873


........................................................................
.............................. CYCLE   43 ..............................
........................................................................

 iter      E             dE          RMSdq      gap      omega  full diag
   1    -42.6501761 -0.426502E+02  0.172E-01    1.04       0.0  T
   2    -42.6500762  0.998703E-04  0.109E-01    1.00       1.0  T
   3    -42.6471463  0.292994E-02  0.290E-01    1.19       1.0  T
   4    -42.6501823 -0.303597E-02  0.107E-02    1.03       1.9  T
   5    -42.6501860 -0.373947E-05  0.350E-03    1.03       5.7  T
   6    -42.6501863 -0.308785E-06  0.143E-03    1.03      13.9  T
   7    -42.6501864 -0.360106E-07  0.490E-04    1.03      40.8  T
   8    -42.6501864 -0.478091E-08  0.158E-04    1.03     126.8  T
     SCC iter.                  ...        0 min,  0.011 sec
     gradient                   ...        0 min,  0.013 sec
 * total energy  :   -42.1186422 Eh     change       -0.1051236E-03 Eh
   gradient norm :     0.0062653 Eh/α   predicted     0.0000000E+00 (-100.00%)
   displ. norm   :     0.0599484 α      lambda       -0.1484952E-04
   maximum displ.:     0.0358143 α      in ANC's #1, #2, #5, ...

........................................................................
.............................. CYCLE   44 ..............................
........................................................................

 iter      E             dE          RMSdq      gap      omega  full diag
   1    -42.6502939 -0.426503E+02  0.452E-02    1.03       0.0  T
   2    -42.6502849  0.900571E-05  0.307E-02    1.02       1.0  T
   3    -42.6500858  0.199156E-03  0.759E-02    1.07       1.0  T
   4    -42.6502940 -0.208227E-03  0.702E-03    1.03       2.8  T
   5    -42.6502954 -0.138585E-05  0.142E-03    1.03      14.0  T
   6    -42.6502954 -0.323970E-07  0.699E-04    1.03      28.6  T
   7    -42.6502954 -0.385204E-08  0.277E-04    1.03      72.3  T
     SCC iter.                  ...        0 min,  0.010 sec
     gradient                   ...        0 min,  0.013 sec
 * total energy  :   -42.1187046 Eh     change       -0.6239662E-04 Eh
   gradient norm :     0.0024475 Eh/α   predicted    -0.4201870E-04 ( -32.66%)
   displ. norm   :     0.1728042 α      lambda       -0.1456784E-03
   maximum displ.:     0.0972687 α      in ANC's #3, #2, #1, ...

........................................................................
.............................. CYCLE   45 ..............................
........................................................................

 iter      E             dE          RMSdq      gap      omega  full diag
   1    -42.6503194 -0.426503E+02  0.132E-01    1.04       0.0  T
   2    -42.6501742  0.145178E-03  0.964E-02    1.00       1.0  T
   3    -42.6486624  0.151188E-02  0.218E-01    1.15       1.0  T
   4    -42.6503296 -0.166727E-02  0.109E-02    1.03       1.8  T
   5    -42.6503327 -0.307313E-05  0.284E-03    1.03       7.0  T
   6    -42.6503329 -0.161405E-06  0.123E-03    1.03      16.2  T
   7    -42.6503329  0.539202E-09  0.672E-04    1.03      29.8  T
   8    -42.6503329 -0.839552E-08  0.143E-04    1.03     139.6  T
     SCC iter.                  ...        0 min,  0.011 sec
     gradient                   ...        0 min,  0.013 sec
 * total energy  :   -42.1187806 Eh     change       -0.7607072E-04 Eh
   gradient norm :     0.0055662 Eh/α   predicted    -0.7501484E-04 (  -1.39%)
   displ. norm   :     0.1710331 α      lambda       -0.1045434E-03
   maximum displ.:     0.1047077 α      in ANC's #1, #2, #5, ...

........................................................................
.............................. CYCLE   46 ..............................
........................................................................

 iter      E             dE          RMSdq      gap      omega  full diag
   1    -42.6500677 -0.426501E+02  0.138E-01    1.04       0.0  T
   2    -42.6499273  0.140394E-03  0.964E-02    1.00       1.0  T
   3    -42.6481723  0.175497E-02  0.234E-01    1.15       1.0  T
   4    -42.6500776 -0.190527E-02  0.719E-03    1.03       2.8  T
   5    -42.6500788 -0.116795E-05  0.277E-03    1.03       7.2  T
   6    -42.6500790 -0.190295E-06  0.904E-04    1.03      22.1  T
   7    -42.6500790  0.154467E-08  0.506E-04    1.03      39.5  T
     SCC iter.                  ...        0 min,  0.010 sec
     gradient                   ...        0 min,  0.013 sec
 * total energy  :   -42.1188667 Eh     change       -0.8603807E-04 Eh
   gradient norm :     0.0064438 Eh/α   predicted    -0.5382080E-04 ( -37.45%)
   displ. norm   :     0.2655402 α      lambda       -0.1590531E-03
   maximum displ.:     0.1585549 α      in ANC's #1, #2, #5, ...

........................................................................
.............................. CYCLE   47 ..............................
........................................................................

 iter      E             dE          RMSdq      gap      omega  full diag
   1    -42.6494379 -0.426494E+02  0.225E-01    1.05       0.0  T
   2    -42.6490764  0.361427E-03  0.154E-01    0.98       1.0  T
   3    -42.6445234  0.455306E-02  0.380E-01    1.24       1.0  T
   4    -42.6494629 -0.493952E-02  0.107E-02    1.04       1.9  T
   5    -42.6494649 -0.201389E-05  0.602E-03    1.04       3.3  T
   6    -42.6494660 -0.107672E-05  0.192E-03    1.03      10.4  T
   7    -42.6494660 -0.493879E-07  0.878E-04    1.03      22.8  T
   8    -42.6494661 -0.280397E-07  0.173E-04    1.03     115.9  T
     SCC iter.                  ...        0 min,  0.011 sec
     gradient                   ...        0 min,  0.013 sec
 * total energy  :   -42.1189992 Eh     change       -0.1325273E-03 Eh
   gradient norm :     0.0057493 Eh/α   predicted    -0.8513713E-04 ( -35.76%)
   displ. norm   :     0.4470450 α      lambda       -0.2286320E-03
   maximum displ.:     0.2717144 α      in ANC's #1, #2, #5, ...

........................................................................
.............................. CYCLE   48 ..............................
........................................................................

 iter      E             dE          RMSdq      gap      omega  full diag
   1    -42.6479982 -0.426480E+02  0.339E-01    1.06       0.0  T
   2    -42.6468906  0.110761E-02  0.243E-01    0.95       1.0  T
   3    -42.6380783  0.881226E-02  0.552E-01    1.33       1.0  T
   4    -42.6480602 -0.998187E-02  0.275E-02    1.05       1.0  T
   5    -42.6480763 -0.160919E-04  0.140E-02    1.04       1.4  T
   6    -42.6480819 -0.562760E-05  0.515E-03    1.04       3.9  T
   7    -42.6480826 -0.646892E-06  0.140E-03    1.04      14.3  T
   8    -42.6480826 -0.737338E-07  0.236E-04    1.04      84.8  T
   9    -42.6480826 -0.904684E-09  0.116E-04    1.04     173.1  T
     SCC iter.                  ...        0 min,  0.012 sec
     gradient                   ...        0 min,  0.013 sec
 * total energy  :   -42.1191599 Eh     change       -0.1606962E-03 Eh
   gradient norm :     0.0116777 Eh/α   predicted    -0.1371624E-03 ( -14.64%)
   displ. norm   :     0.3373306 α      lambda       -0.2147476E-03
[...]
C           -4.24337520416218        1.54902526602020       -0.04963183805835
C           -1.33908635100378        0.74047732478437       -0.01567279288875
O           -2.66321987894237        0.72699380966968       -0.03411217167961
N           -0.76518003410916       -0.58676233391378       -0.01806467009148
C           -1.58386082852819       -1.78509830041286       -0.04463050922835
H            4.62198837260631        0.12444879919243        0.97630343735872
H            4.66715003874887        0.12511194129404       -0.79617144336025
H            3.85491869251728        1.44921961782072        0.07031988378025
H            3.38578248901737       -2.38623714060693        0.03475356456684
H           -4.02552226098147        2.60242614071966        0.03649552726668
H           -4.59652491078336        1.20721560871486       -1.00902594605446
H           -4.66816393702833        1.07434347575172        0.81949198579358
H           -1.43107826392377       -2.37851538077008        0.85893843301613
H           -1.36204708752440       -2.38520348540816       -0.92899812929753
H           -2.62462491921069       -1.47385380270508       -0.08612481487207
H            0.89233545324428       -2.83999785778821       -0.00664183455481

 Bond Distances (Angstroems)
 ---------------------------
C1-N2=1.4382         C1-H15=1.0904        C1-H16=1.0901        C1-H17=1.0896        N2-C1=1.4382         N2-C3=1.3312         
N2-C6=1.3507         C3-N2=1.3312         C3-N4=1.3534         C3-H18=1.0715        N4-C3=1.3534         N4-C5=1.3701         
N4-H25=1.0098        C5-N4=1.3701         C5-C6=1.4078         C5-N13=1.3756        C6-N2=1.3507         C6-C5=1.4078         
C6-C7=1.5350         C7-C6=1.5350         C7-O8=1.2024         C7-N9=1.3962         O8-C7=1.2024         N9-C7=1.3962         
N9-C11=1.2934        C10-O12=1.7813       C10-H19=1.0791       C10-H20=1.0780       C10-H21=1.0776       C11-N9=1.2934        
C11-O12=1.3243       C11-N13=1.4460       O12-C10=1.7813       O12-C11=1.3243       N13-C5=1.3756        N13-C11=1.4460       
N13-C14=1.4515       C14-N13=1.4515       C14-H22=1.0918       C14-H23=1.0915       C14-H24=1.0871       H15-C1=1.0904        
H16-C1=1.0901        H17-C1=1.0896        H18-C3=1.0715        H19-C10=1.0791       H20-C10=1.0780       H21-C10=1.0776       
H22-C14=1.0918       H23-C14=1.0915       H24-C14=1.0871       H25-N4=1.0098        
 C  H  Rav=1.0847 sigma=0.0070  Rmin=1.0715  Rmax=1.0918    10
 C  C  Rav=1.4714 sigma=0.0636  Rmin=1.4078  Rmax=1.5350     2
 N  H  Rav=1.0098 sigma=0.0000  Rmin=1.0098  Rmax=1.0098     1
 N  C  Rav=1.3806 sigma=0.0497  Rmin=1.2934  Rmax=1.4515    10
 O  C  Rav=1.4360 sigma=0.2491  Rmin=1.2024  Rmax=1.7813     3

 selected bond angles (degree)
 --------------------
H15-C1-N2=110.43               H16-C1-N2=110.47               H16-C1-H15=108.80              H17-C1-N2=108.38               
H17-C1-H15=109.37              H17-C1-H16=109.38              C3-N2-C1=127.97                C6-N2-C1=124.33                
C6-N2-C3=107.70                N4-C3-N2=109.95                H18-C3-N2=125.38               H18-C3-N4=124.67               
C5-N4-C3=108.54                H25-N4-C3=124.46               H25-N4-C5=127.00               C6-C5-N4=104.97                
N13-C5-N4=125.66               N13-C5-C6=129.36               C5-C6-N2=108.84                C7-C6-N2=141.88                
C7-C6-C5=109.28                O8-C7-C6=121.63                N9-C7-C6=117.08                N9-C7-O8=121.29                
C11-N9-C7=131.39               H19-C10-O12=105.71             H20-C10-O12= 98.75             H20-C10-H19=116.53             
H21-C10-O12= 98.01             H21-C10-H19=116.44             H21-C10-H20=116.68             

 selected dihedral angles (degree)
 ---------------------------------
C3-N2-C1-H15=299.32           C3-N2-C1-H16= 59.72           C3-N2-C1-H17=179.54           C6-N2-C1-H15=118.84           
C6-N2-C1-H16=239.25           C6-N2-C1-H17=359.06           N4-C3-N2-C1=179.68            N4-C3-N2-C6=  0.10            
H18-C3-N2-C1=359.62           H18-C3-N2-C6=180.04           C5-N4-C3-N2=359.94            C5-N4-C3-H18=180.00           
H25-N4-C3-N2=180.04           H25-N4-C3-H18=  0.10          C6-C5-N4-C3=  0.00            C6-C5-N4-H25=179.90           
N13-C5-N4-C3=179.73           N13-C5-N4-H25=359.63          C5-C6-N2-C1=180.30            C5-C6-N2-C3=359.91            
C7-C6-N2-C1=  1.50            C7-C6-N2-C3=181.10            N2-C6-C5-N4=  0.05            N2-C6-C5-N13=180.34           
C7-C6-C5-N4=179.27            C7-C6-C5-N13=359.56           O8-C7-C6-N2=359.85            O8-C7-C6-C5=181.04            
N9-C7-C6-N2=179.71            N9-C7-C6-C5=  0.91            C11-N9-C7-C6=359.14           C11-N9-C7-O8=179.01           
           -------------------------------------------------
          |                Final Singlepoint                |
           -------------------------------------------------

          ...................................................
          :                      SETUP                      :
          :.................................................:
          :  # basis functions                  67          :
          :  # atomic orbitals                  67          :
          :  # shells                           39          :
          :  # electrons                        74          :
          :  max. iterations                   250          :
          :  Hamiltonian                  GFN2-xTB          :
          :  restarted?                      false          :
          :  GBSA solvation                  false          :
          :  PC potential                    false          :
          :  electronic temp.         5000.0000000     K    :
          :  accuracy                    1.0000000          :
          :  -> integral cutoff          0.2500000E+02      :
          :  -> integral neglect         0.1000000E-07      :
          :  -> SCF convergence          0.1000000E-05 Eh   :
          :  -> wf. convergence          0.1000000E-03 e    :
          :  Broyden damping             0.4000000          :
          ...................................................

 iter      E             dE          RMSdq      gap      omega  full diag
   1    -42.6335883 -0.426336E+02  0.965E-05    2.77       0.0  T
   2    -42.6335883 -0.531770E-10  0.672E-05    2.77     297.6  T
   3    -42.6335883 -0.854286E-10  0.357E-05    2.77     560.4  T

   *** convergence criteria satisfied after 3 iterations ***

         #    Occupation            Energy/Eh            Energy/eV
      -------------------------------------------------------------
         1        2.0000           -0.8968834             -24.4054
       ...           ...                  ...                  ...
        31        1.9997           -0.6098586             -16.5951
        32        1.9996           -0.6058402             -16.4858
        33        1.9993           -0.5955015             -16.2044
        34        1.9932           -0.5595650             -15.2265
        35        1.9785           -0.5412845             -14.7291
        36        1.9716           -0.5368121             -14.6074
        37        1.9240           -0.5208550             -14.1732 (HOMO)
        38        0.0782           -0.4189777             -11.4010 (LUMO)
        39        0.0440           -0.4095875             -11.1454
        40        0.0078           -0.3818354             -10.3903
        41        0.0046           -0.3734553             -10.1622
        42        0.0000           -0.2714765              -7.3873
       ...           ...                  ...                  ...
        67                          0.5482007              14.9173
      -------------------------------------------------------------
                  HL-Gap            0.1018773 Eh            2.7722 eV
             Fermi-level           -0.4696800 Eh          -12.7806 eV

 SCC (total)                   0 d,  0 h,  0 min,  0.023 sec
 SCC setup                      ...        0 min,  0.000 sec (  0.868%)
 Dispersion                     ...        0 min,  0.000 sec (  0.802%)
 classical contributions        ...        0 min,  0.000 sec (  0.319%)
 integral evaluation            ...        0 min,  0.004 sec ( 19.540%)
 iterations                     ...        0 min,  0.005 sec ( 20.333%)
 molecular gradient             ...        0 min,  0.013 sec ( 57.581%)
 printout                       ...        0 min,  0.000 sec (  0.510%)

         :::::::::::::::::::::::::::::::::::::::::::::::::::::
         ::                     SUMMARY                     ::
         :::::::::::::::::::::::::::::::::::::::::::::::::::::
         :: total energy             -42.138878706760 Eh    ::
         :: gradient norm              0.001969128361 Eh/a0 ::
         :: HOMO-LUMO gap              2.772221772313 eV    ::
         ::.................................................::
         :: SCC energy               -42.633588337311 Eh    ::
         :: -> isotropic ES            0.138427531189 Eh    ::
         :: -> anisotropic ES         -0.008131441912 Eh    ::
         :: -> anisotropic XC          0.018070420011 Eh    ::
         :: -> dispersion             -0.021330770371 Eh    ::
         :: repulsion energy           0.493541058493 Eh    ::
         :: add. restraining           0.001150300862 Eh    ::
         :: total charge               1.000000000000 e     ::
         :::::::::::::::::::::::::::::::::::::::::::::::::::::

           -------------------------------------------------
          |                Property Printout                |
           -------------------------------------------------

    * Orbital Energies and Occupations

         #    Occupation            Energy/Eh            Energy/eV
      -------------------------------------------------------------
         1        2.0000           -0.8968834             -24.4054
       ...           ...                  ...                  ...
        25        2.0000           -0.6592831             -17.9400
        26        2.0000           -0.6427630             -17.4905
        27        1.9999           -0.6357632             -17.3000
        28        1.9999           -0.6319572             -17.1964
        29        1.9999           -0.6274517             -17.0738
        30        1.9999           -0.6215602             -16.9135
        31        1.9997           -0.6098586             -16.5951
        32        1.9996           -0.6058402             -16.4858
        33        1.9993           -0.5955015             -16.2044
        34        1.9932           -0.5595650             -15.2265
        35        1.9785           -0.5412845             -14.7291
        36        1.9716           -0.5368121             -14.6074
        37        1.9240           -0.5208550             -14.1732 (HOMO)
        38        0.0782           -0.4189777             -11.4010 (LUMO)
        39        0.0440           -0.4095875             -11.1454
        40        0.0078           -0.3818354             -10.3903
        41        0.0046           -0.3734553             -10.1622
        42        0.0000           -0.2714765              -7.3873
        43                         -0.1895092              -5.1568
        44                         -0.1808258              -4.9205
        45                         -0.1698944              -4.6231
        46                         -0.0973647              -2.6494
        47                         -0.0645074              -1.7553
        48                         -0.0419818              -1.1424
       ...                                ...                  ...
        67                          0.5482007              14.9173
      -------------------------------------------------------------
                  HL-Gap            0.1018773 Eh            2.7722 eV
             Fermi-level           -0.4696800 Eh          -12.7806 eV

     #   Z          covCN         q      C6AA      α(0)
     1   6 C        3.693    -0.089    22.391     6.771
     2   7 N        2.819     0.094    19.610     6.577
     3   6 C        3.067     0.045    26.918     8.507
     4   7 N        2.797    -0.064    22.482     7.042
     5   6 C        3.015     0.108    25.602     8.300
     6   6 C        3.133    -0.024    28.391     8.722
     7   6 C        2.764     0.295    22.005     7.682
     8   8 O        0.858    -0.325    20.232     6.031
     9   7 N        1.835    -0.270    27.869     7.823
    10   6 C        3.319     0.005    25.791     8.088
    11   6 C        2.693     0.321    21.544     7.597
    12   8 O        1.397    -0.321    19.660     5.971
    13   7 N        2.739    -0.065    22.491     7.044
    14   6 C        3.694    -0.068    21.989     6.709
    15   1 H        0.924     0.105     1.741     2.063
    16   1 H        0.925     0.105     1.741     2.063
    17   1 H        0.925     0.131     1.525     1.931
    18   1 H        0.926     0.118     1.627     1.995
    19   1 H        0.926     0.137     1.480     1.903
    20   1 H        0.926     0.139     1.468     1.895
    21   1 H        0.926     0.139     1.466     1.894
    22   1 H        0.924     0.075     2.034     2.231
    23   1 H        0.924     0.074     2.042     2.234
    24   1 H        0.925     0.112     1.681     2.028
    25   1 H        0.860     0.223     0.997     1.564

 Mol. C6AA /au·bohr⁶  :       6609.766591
 Mol. C8AA /au·bohr⁸  :     152015.866221
 Mol. α(0) /au        :        124.663311


Wiberg/Mayer (AO) data.
largest (>0.10) Wiberg bond orders for each atom

 ---------------------------------------------------------------------------
     #   Z sym  total        # sym  WBO       # sym  WBO       # sym  WBO
 ---------------------------------------------------------------------------
     1   6 C    3.920 --     2 N    0.985    17 H    0.967    16 H    0.961
                            15 H    0.961
     2   7 N    3.700 --     3 C    1.371     6 C    1.206     1 C    0.985
     3   6 C    3.863 --     2 N    1.371     4 N    1.279    18 H    0.954
     4   7 N    3.586 --     3 C    1.279     5 C    1.189    25 H    0.919
     5   6 C    3.938 --     6 C    1.369    13 N    1.191     4 N    1.189
     6   6 C    3.891 --     5 C    1.369     2 N    1.206     7 C    0.969
     7   6 C    3.941 --     8 O    1.752     9 N    1.133     6 C    0.969
     8   8 O    2.062 --     7 C    1.752     9 N    0.108
     9   7 N    3.049 --    11 C    1.520     7 C    1.133    12 O    0.134
                             8 O    0.108
    10   6 C    3.704 --    19 H    0.979    20 H    0.975    21 H    0.975
                            12 O    0.715
    11   6 C    3.925 --     9 N    1.520    12 O    1.256    13 N    1.021
    12   8 O    2.228 --    11 C    1.256    10 C    0.715     9 N    0.134
    13   7 N    3.521 --     5 C    1.191    11 C    1.021    14 C    0.982
    14   6 C    3.940 --    13 N    0.982    23 H    0.971    22 H    0.971
                            24 H    0.967
    15   1 H    0.987 --     1 C    0.961
    16   1 H    0.987 --     1 C    0.961
    17   1 H    0.983 --     1 C    0.967
    18   1 H    0.985 --     3 C    0.954
    19   1 H    0.981 --    10 C    0.979
    20   1 H    0.980 --    10 C    0.975
    21   1 H    0.980 --    10 C    0.975
    22   1 H    0.991 --    14 C    0.971
    23   1 H    0.991 --    14 C    0.971
    24   1 H    0.987 --    14 C    0.967
    25   1 H    0.950 --     4 N    0.919
 ---------------------------------------------------------------------------

Topologies differ in total number of bonds
Writing topology from bond orders to xtbtopo.mol

molecular dipole:
                 x           y           z       tot (Debye)
 q only:        0.279      -2.471       0.007
   full:        0.349      -3.183       0.007       8.140
molecular quadrupole (traceless):
                xx          xy          yy          xz          yz          zz
 q only:       45.492     -19.403     -17.242       1.114      -0.057     -28.250
  q+dip:       42.862     -22.672     -17.709       1.033      -0.099     -25.153
   full:       42.233     -22.503     -18.702       1.001      -0.094     -23.531

           -------------------------------------------------
          |                Geometry Summary                 |
           -------------------------------------------------

      molecular mass/u    :      195.1988581
   center of mass at/Å    :        0.2743065       0.1986022       0.0035598
  moments of inertia/u·Å² :        0.3842389E+03   0.1044014E+04   0.1418433E+04
rotational constants/cm⁻¹ :        0.4387279E-01   0.1614695E-01   0.1188469E-01

 * 22 selected distances

     #   Z          #   Z                                           value/Å
     1   6 C        2   7 N                                       1.4381653
     2   7 N        3   6 C                                       1.3311793
     3   6 C        4   7 N                                       1.3533923
     4   7 N        5   6 C                                       1.3701338
     2   7 N        6   6 C                                       1.3507133
     5   6 C        6   6 C                                       1.4077798
     7   6 C        8   8 O                                       1.2024360
     9   7 N       11   6 C                                       1.2934018
    11   6 C       12   8 O                                       1.3243307
     5   6 C       13   7 N                                       1.3755865
    13   7 N       14   6 C                                       1.4515349 (max)
     1   6 C       15   1 H                                       1.0904076
     1   6 C       16   1 H                                       1.0901458
     1   6 C       17   1 H                                       1.0895781
     3   6 C       18   1 H                                       1.0714817
    10   6 C       19   1 H                                       1.0791346
    10   6 C       20   1 H                                       1.0779545
    10   6 C       21   1 H                                       1.0775642
    14   6 C       22   1 H                                       1.0917524
    14   6 C       23   1 H                                       1.0915282
    14   6 C       24   1 H                                       1.0870994
     4   7 N       25   1 H                                       1.0097509 (min)

 * 5 distinct bonds (by element types)

   Z      Z             #   av. dist./Å        max./Å        min./Å
   1 H    6 C          10     1.0846646     1.0917524     1.0714817
   6 C    6 C           1     1.4077798     1.4077798     1.4077798
   1 H    7 N           1     1.0097509     1.0097509     1.0097509
   6 C    7 N           8     1.3705134     1.4515349     1.2934018
   6 C    8 O           2     1.2633833     1.3243307     1.2024360


optimized geometry written to: xtbopt.xyz


           -------------------------------------------------
          | TOTAL ENERGY              -42.138878706760 Eh   |
          | GRADIENT NORM               0.001969128361 Eh/α |
          | HOMO-LUMO GAP               2.772221772313 eV   |
           -------------------------------------------------

------------------------------------------------------------------------
 * finished run on 2024/06/05 at 19:59:14.744     
------------------------------------------------------------------------
 total:
 * wall-time:     0 d,  0 h,  0 min,  2.500 sec
 *  cpu-time:     0 d,  0 h,  0 min,  2.477 sec
 * ratio c/w:     0.991 speedup
 SCF:
 * wall-time:     0 d,  0 h,  0 min,  0.037 sec
 *  cpu-time:     0 d,  0 h,  0 min,  0.037 sec
 * ratio c/w:     1.000 speedup
 ANC optimizer:
 * wall-time:     0 d,  0 h,  0 min,  2.433 sec
 *  cpu-time:     0 d,  0 h,  0 min,  2.428 sec
 * ratio c/w:     0.998 speedup

