72
 energy: -99.229620583155 gnorm: 0.493479603994 xtb: 6.6.1 (8d0f1dd)
N           -1.89034594127055        2.79526617216165        2.23726643545281
C           -1.80868167131773        2.07350305405366        1.21830094064833
C           -2.95137309176561        1.81073718187308        0.27253200415894
C           -3.35490147268007        0.34807183047076        0.34218526853045
C           -4.27686344812300       -0.15619455741909       -0.57571981424857
C           -4.75595928552151       -1.45904330715007       -0.48245645259451
O           -5.66631414722201       -2.02910513259836       -1.29915633607620
C           -6.28768028257224       -1.23883629967243       -2.29081138502354
C           -4.25790249995884       -2.26946784330496        0.54741042182474
O           -4.79675517062014       -3.59366812490742        0.65916402330412
C           -5.69375569300528       -3.73922428498863        1.87245889886105
C           -3.32946676783281       -1.79392799498016        1.45527311593345
C           -2.87893494359761       -0.48855288356620        1.34888997223412
C           -2.42541258755621        2.17041930424394       -1.14121869691656
C           -1.43564962095948        1.15721335267789       -1.74618751326016
C           -0.09687813672770        1.18042103213155       -1.11176337569411
N            0.60077882571259        0.10330120947986       -0.73462686285431
C            1.98254199074974        0.22504150238029       -0.33710840974929
C            2.95013082366212       -0.20500012212587       -1.45670462573618
C            4.37016575021040       -0.03782317486021       -0.99327451738319
C            5.04488122473400        1.15363439729824       -1.19377476541501
C            6.34402378253583        1.31931585779440       -0.73693397022654
C            6.99157308499170        0.29478027428091       -0.06375540999909
O            8.24851287012604        0.34426745509132        0.42292845582665
C            9.00520741685610        1.51864228986725        0.24371201333232
C            6.30631405796369       -0.93105341141037        0.14933439931340
O            7.01159221534683       -1.87592248004333        0.80944429818480
C            6.42630278760005       -3.13421708849769        1.03771435642433
C            5.00937265913370       -1.07386032913540       -0.31463274835559
C            0.04777155642278       -1.22612332192526       -0.80584187569165
C           -4.22344463458107        2.65714997140596        0.58965074701329
C           -4.82672511145542        2.28078637360131        1.94143397387946
C           -3.97113563706922        4.16142197433086        0.54094056664172
H           -4.65170766468361        0.48235461683710       -1.35733873007117
H           -6.79630361278233       -0.37723208270109       -1.85129516783486
H           -7.02174526918828       -1.88905151124754       -2.76195557987726
H           -5.56750271240056       -0.90234367023156       -3.04185011947664
H           -6.46413737211494       -2.98103426749794        1.81967576675213
H           -6.06823322645831       -4.75788013609594        1.84598198647625
H           -4.23769321603060       -4.13137665151478        0.75372091403441
H           -2.99087060113768       -2.42876121369687        2.25915609030748
H           -2.18586391009337       -0.11307949552811        2.08380259215913
H           -3.27359644578265        2.26068976823202       -1.81976010006555
H           -1.94143477518021        3.14626916171699       -1.09037336247387
H           -1.87183131355030        0.16005569031231       -1.72593805750369
H           -1.30774190974633        1.44221178949271       -2.79904172686080
H           -0.87458900094770        1.59295446234959        0.87458016209599
H            0.42117665253856        2.12567079500831       -1.07150560748558
H            2.15630222876076       -0.39541475041131        0.54711070000956
H            2.19059790752877        1.26293068870176       -0.07041002028497
H            2.76724636555989        0.41412992572070       -2.33639330817740
H            2.76199912559672       -1.24642920817109       -1.72135889024089
H            4.56562743092606        1.96436302948904       -1.72132416931081
H            6.84625444381509        2.25568309785550       -0.91611447449973
H            8.53449471524994        2.37778129124427        0.73161783666344
H            9.15818082905129        1.73918189179092       -0.81710965008202
H            9.96694820566425        1.32028122256741        0.71289530333271
H            7.18348977129241       -3.71880564645859        1.55676500282912
H            5.53584525535086       -3.05523507544576        1.67035330824403
H            6.16558614483822       -3.63315834225220        0.09882321423143
H            4.48273120398398       -2.00353915044901       -0.16429398844284
H           -0.07164858051851       -1.55331795640415       -1.84194490010675
H           -0.92553017270953       -1.25945584802052       -0.31048820925081
H            0.71658821868946       -1.91769791679087       -0.29929759157379
H           -4.95853238976922        2.41447411839550       -0.18651476167893
H           -4.13378504597947        2.52820862574376        2.73843041453924
H           -5.05916639568519        1.21969093987835        1.99148515279668
H           -5.74662126666649        2.83826548108326        2.09565978935797
H           -3.21241936582399        4.44007931441890        1.26479121783187
H           -3.66402082394125        4.48989206441514       -0.44813536776437
H           -4.89038693838055        4.68269835757243        0.79407820460788
H           -1.04217979448378        2.92813323603145        2.78010783705107
72
 energy: -99.277114495900 gnorm: 0.021013734769 xtb: 6.6.1 (8d0f1dd)
N           -1.89014585493726        2.79513907441805        2.23749235424689
C           -1.80852562194359        2.07379650402806        1.21836750906525
C           -2.95111580418021        1.81148053655060        0.27266964526465
C           -3.35450584554857        0.34918717704136        0.34215655778236
C           -4.27615759834654       -0.15241085087331       -0.57749157724386
C           -4.75815379885708       -1.45211239962457       -0.48425989639969
O           -5.66697352662365       -2.02606864889158       -1.29959805833544
C           -6.28835028562891       -1.23805484873824       -2.29206623205012
C           -4.26788783684923       -2.25712374888636        0.54868106159659
O           -4.84170202972062       -3.55728136150171        0.65265164926789
C           -5.70225809859070       -3.73188385987399        1.87710331023332
C           -3.33132335310338       -1.79250401259858        1.45429280456360
C           -2.87819276224187       -0.48805179329681        1.34830237576113
C           -2.42531627633360        2.17052694458624       -1.14128707685534
C           -1.43560451370513        1.15710201406886       -1.74607497945819
C           -0.09697246848934        1.18027269721689       -1.11160859917161
N            0.60081509171392        0.10326920313981       -0.73468908990076
C            1.98254270612501        0.22500826753189       -0.33709724202846
C            2.95011064336915       -0.20499462170824       -1.45670537698105
C            4.37015844168964       -0.03780880737562       -0.99330363991800
C            5.04485297560476        1.15366806397450       -1.19378989606356
C            6.34398068690009        1.31932571132760       -0.73693589340317
C            6.99158377226663        0.29480564950198       -0.06379615703498
O            8.24842437885285        0.34432941409112        0.42301129937093
C            9.00519445043764        1.51866500868889        0.24367033463178
C            6.30632498324558       -0.93106923721346        0.14930906312185
O            7.01159679364815       -1.87590476392501        0.80937885570393
C            6.42628110055126       -3.13421943833841        1.03766549961533
C            5.00937951429250       -1.07382875510146       -0.31467715506893
C            0.04786537255518       -1.22621371879493       -0.80576201392169
C           -4.22339501979958        2.65737586769051        0.58976254195015
C           -4.82664298676673        2.28097539200831        1.94155180767926
C           -3.97107215570470        4.16160938588742        0.54095327112099
H           -4.65091942080582        0.48549001571789       -1.35861563813051
H           -6.79695303326082       -0.37669124616477       -1.85203497526124
H           -7.02182379852487       -1.88936272002786       -2.76243226268600
H           -5.56750896764381       -0.90190390178556       -3.04252292237463
H           -6.47326623469286       -2.97916897651180        1.82530840206123
H           -6.06890638794449       -4.75196827544975        1.84500315781101
H           -4.16011296557525       -4.21773047460045        0.75974859822185
H           -2.99332891067047       -2.42928658218037        2.25748495572351
H           -2.18546616211983       -0.11325399527763        2.08372997851728
H           -3.27354104256481        2.26051161818937       -1.81974949486411
H           -1.94147035846698        3.14635938002412       -1.09060754552925
H           -1.87189929260609        0.15995046025151       -1.72564295346586
H           -1.30774177412034        1.44185042216944       -2.79902580746662
H           -0.87458777808298        1.59308295994840        0.87469528824110
H            0.42104245916859        2.12556867225273       -1.07128958264602
H            2.15633194852948       -0.39541513029284        0.54710663680074
H            2.19057556984535        1.26287929375769       -0.07040607387750
H            2.76721313776207        0.41414885962245       -2.33636403679984
H            2.76199650927815       -1.24640716440081       -1.72140358050016
H            4.56557796910470        1.96439320988844       -1.72131650140758
H            6.84620922123108        2.25571263908333       -0.91607961668299
H            8.53453963837079        2.37780576902060        0.73162474902458
H            9.15806362531696        1.73919434981166       -0.81717793314640
H            9.96696505661729        1.32028565969612        0.71278145184885
H            7.18345169016568       -3.71880741102261        1.55670833905621
H            5.53582817784517       -3.05519522395836        1.67029232043933
H            6.16557319581583       -3.63312794299148        0.09876234020883
H            4.48274551047020       -2.00352459280117       -0.16436960248699
H           -0.07177207481187       -1.55340876455736       -1.84185893363906
H           -0.92536419910216       -1.25963148201105       -0.31021611087012
H            0.71683772955404       -1.91777005185189       -0.29938883787215
H           -4.95856564805379        2.41459655857291       -0.18630931576894
H           -4.13368116353491        2.52831953815373        2.73851517929552
H           -5.05922897868431        1.21987535179778        1.99161480936817
H           -5.74649662769905        2.83858564792179        2.09583619592510
H           -3.21242801935781        4.44017511729004        1.26493266195378
H           -3.66372274122123        4.48995238312262       -0.44817387268974
H           -4.89040435135395        4.68298396207037        0.79388817213004
H           -1.04206098505808        2.92806554501052        2.78034014699464
72
 energy: -99.277466567500 gnorm: 0.012462486633 xtb: 6.6.1 (8d0f1dd)
N           -1.88991689934425        2.79463157544775        2.23849325480027
C           -1.80863783172485        2.07402841665157        1.21875624787523
C           -2.95138768328228        1.81190072570520        0.27312815375488
C           -3.35637064242668        0.34956982748265        0.34189026730006
C           -4.27732446844377       -0.15125771234110       -0.57879430113666
C           -4.75930565093464       -1.45270477843466       -0.48598511975021
O           -5.66721413595232       -2.02519859175569       -1.30360388211737
C           -6.28846777418861       -1.23615615015614       -2.29573019644755
C           -4.26962681226021       -2.26190469773061        0.54788444778028
O           -4.83646019693169       -3.56763827691516        0.65039813470353
C           -5.70114557477461       -3.72857828647147        1.87366928609569
C           -3.33846528061015       -1.79252847396915        1.45587631460559
C           -2.88251874833737       -0.48855443176096        1.34816226915518
C           -2.42533804722813        2.17031354693404       -1.14100783231895
C           -1.43598966942450        1.15591970613853       -1.74482317146088
C           -0.09743711763316        1.17935888718366       -1.11036006448929
N            0.60098792629351        0.10246103272528       -0.73394732083399
C            1.98278179602023        0.22465069243784       -0.33689488205006
C            2.95002686190578       -0.20491777970351       -1.45689425568913
C            4.37010302324055       -0.03759807185417       -0.99365948801255
C            5.04459760393998        1.15400296798796       -1.19386059388880
C            6.34367971592437        1.31969743081877       -0.73687840463232
C            6.99138900603164        0.29518450221439       -0.06387752101603
O            8.24821527780585        0.34479241002025        0.42301670369050
C            9.00499838052019        1.51906650670375        0.24324323355071
C            6.30631008486633       -0.93081149244376        0.14894712165744
O            7.01163832640233       -1.87570317075458        0.80893306852351
C            6.42618238535064       -3.13397680671175        1.03710290632523
C            5.00944319298348       -1.07362290621983       -0.31517056221724
C            0.04853071018441       -1.22723092429452       -0.80475175960575
C           -4.22284472986813        2.65890707774780        0.59040154126980
C           -4.82588419642041        2.28327801106491        1.94253847376102
C           -3.97006279680878        4.16307006232395        0.54102243135685
H           -4.64896140365822        0.48811925300177       -1.36099766803519
H           -6.79889524389400       -0.37537874705522       -1.85624293888132
H           -7.02072599093005       -1.88797965829978       -2.76738366735651
H           -5.56755531708031       -0.89861753458739       -3.04560559063217
H           -6.47904005700210       -2.97920157824772        1.83112009187404
H           -6.06633245394700       -4.74775353829464        1.85314840199855
H           -4.14550788396761       -4.22908929796564        0.76450685911567
H           -2.99977345723824       -2.43014259506498        2.25759802568090
H           -2.18685187056324       -0.11519139938283        2.08166040705293
H           -3.27350817365095        2.25968507012380       -1.81955945103673
H           -1.94134878170274        3.14613403715258       -1.09143819915896
H           -1.87255120449985        0.15888236891990       -1.72324895050615
H           -1.30822282085084        1.43937382989348       -2.79816105782966
H           -0.87489944241891        1.59314935318798        0.87490726719883
H            0.42030495262890        2.12478654338888       -1.07000085838289
H            2.15710832451575       -0.39567914235544        0.54725929701303
H            2.19056176588079        1.26256847661477       -0.07026387391175
H            2.76675364950879        0.41441911909832       -2.33632356600920
H            2.76195903639302       -1.24628375456797       -1.72181944874960
H            4.56522568182111        1.96476159994420       -1.72124872258269
H            6.84581722926317        2.25617860284519       -0.91579004217703
H            8.53472857480472        2.37826419384552        0.73147071371519
H            9.15722295050193        1.73955689188807       -0.81771291034516
H            9.96703290302344        1.32059727761126        0.71177102861823
H            7.18324732613856       -3.71867215101121        1.55616187046642
H            5.53569043223815       -3.05484485852236        1.66966796108879
H            6.16547210458081       -3.63276968742927        0.09813586910689
H            4.48291487094183       -2.00342466446108       -0.16509714487961
H           -0.07245606075941       -1.55423208558532       -1.84078503788280
H           -0.92400352683398       -1.26118159945428       -0.30780557648804
H            0.71864729530071       -1.91858543327243       -0.29958020266501
H           -4.95827594544829        2.41610508609141       -0.18538630847593
H           -4.13237689012827        2.52989868234429        2.73925685180150
H           -5.05948364663380        1.22238558934988        1.99272860734579
H           -5.74513055693815        2.84181784247529        2.09728042019635
H           -3.21201052267552        4.44162806484369        1.26562536851691
H           -3.66147181440595        4.49052575426316       -0.44804594033520
H           -4.88941318411361        4.68519506003457        0.79260366339918
H           -1.04186128607487        2.92668372306576        2.78163479419049
72
 energy: -99.277622437106 gnorm: 0.003063817737 xtb: 6.6.1 (8d0f1dd)
N           -1.88999082922537        2.79214989112605        2.23994158136077
C           -1.80949625314119        2.07211288419501        1.21968975962891
C           -2.95256884908866        1.81184601324394        0.27379272914403
C           -3.36037505176322        0.34982947243573        0.34243811146997
C           -4.28047542002634       -0.15127797746771       -0.57931614314022
C           -4.76180165993124       -1.45372892952993       -0.48781840312910
O           -5.66806568813059       -2.02425878049678       -1.30897371032157
C           -6.28805554870957       -1.23395261810534       -2.30124285344788
C           -4.27185943346094       -2.26630844124515        0.54597875042567
O           -4.83113745214245       -3.57774664128159        0.65050940172903
C           -5.69806464255457       -3.72486056045832        1.87189867297981
C           -3.34462611629046       -1.79282588821820        1.45530077663354
C           -2.88852228895402       -0.48878923118663        1.34869908139896
C           -2.42581424801156        2.16909410002105       -1.14048372223541
C           -1.43670911631669        1.15346140505165       -1.74260015699722
C           -0.09827388132974        1.17769242710555       -1.10805093686037
N            0.60122777573412        0.10102999981569       -0.73250545829246
C            1.98318369194181        0.22404540653599       -0.33646888107121
C            2.94988741174716       -0.20473077264750       -1.45720077262369
C            4.37003318022421       -0.03723150267688       -0.99434542359398
C            5.04418578210763        1.15459789393247       -1.19406277938612
C            6.34318835438742        1.32038930399945       -0.73686472938249
C            6.99107673658964        0.29584486076181       -0.06413311982285
O            8.24788076272307        0.34562152604364        0.42292022535304
C            9.00468305300330        1.51977583391413        0.24240557336734
C            6.30630124561895       -0.93036552642250        0.14822528034838
O            7.01171836625742       -1.87538667345274        0.80804140246369
C            6.42603635593725       -3.13359491016631        1.03600268287323
C            5.00957408196869       -1.07330700227963       -0.31613409616297
C            0.04952468225924       -1.22898753529911       -0.80285744691761
C           -4.22255207462807        2.66100395629892        0.59132606256086
C           -4.82506739317632        2.28719118756867        1.94421483850994
C           -3.96767363907329        4.16486115269049        0.54094883479986
H           -4.64958953337993        0.48904321776628       -1.36224086891898
H           -6.80069582947458       -0.37415246781416       -1.86217152045804
H           -7.01852184161431       -1.88600840144538       -2.77557724501235
H           -5.56616013527594       -0.89423944831263       -3.04929375500739
H           -6.47790898915804       -2.97730711173749        1.82279661800808
H           -6.06387085227915       -4.74305211014394        1.86453686902617
H           -4.12764843927359       -4.23901688144684        0.77389081784956
H           -3.00805634309812       -2.43036193453235        2.25789101723988
H           -2.19281446824202       -0.11621737104490        2.08263453522548
H           -3.27366918312868        2.25819700160047       -1.81945040296090
H           -1.94133841741546        3.14471355592266       -1.09200517707651
H           -1.87362940872231        0.15658901361237       -1.71897114537272
H           -1.30895869224660        1.43469189092341       -2.79658095092463
H           -0.87571675397157        1.59192055173893        0.87487883861652
H            0.41904322677569        2.12335137540020       -1.06783965004343
H            2.15857678938805       -0.39622057409930        0.54752334149817
H            2.19050839772725        1.26205876393037       -0.06988857144221
H            2.76600892681029        0.41498838429596       -2.33622197983967
H            2.76198546464591       -1.24601675594038       -1.72258091851005
H            4.56460428770027        1.96545460149542       -1.72110812229839
H            6.84508751038976        2.25710051173144       -0.91526527120642
H            8.53508623033590        2.37904383602590        0.73116654208909
H            9.15577663706636        1.74024862768066       -0.81871964846042
H            9.96718504882197        1.32112379797114        0.70988729362517
H            7.18291322577397       -3.71849308198365        1.55508894568104
H            5.53546662453782       -3.05433369026733        1.66845444850285
H            6.16534322779963       -3.63221575101110        0.09693678519733
H            4.48321570616525       -2.00327915744783       -0.16646665640156
H           -0.07390544504880       -1.55545550174388       -1.83878901843969
H           -0.92177892592939       -1.26399142560421       -0.30347253293218
H            0.72156787457910       -1.92014024117913       -0.29993590521649
H           -4.95900026118305        2.41881688176826       -0.18368874568599
H           -4.13018263488863        2.53262056995491        2.74011239949682
H           -5.06081332605422        1.22678960482695        1.99498329420560
H           -5.74294886719183        2.84779016973814        2.09975321813563
H           -3.21064254816681        4.44325459001672        1.26670442635537
H           -3.65690458712399        4.49117511408889       -0.44785054437846
H           -4.88687636425434        4.68841165383710        0.79026065156056
H           -1.04159362894087        2.92406339011957        2.78260829920839
