25
 energy: 0.000000000000 xtb: 6.6.1 (8d0f1dd)
C            3.23720163006194        1.16630919979326        0.08434469647475
N            2.29877817382611        0.07527477071623        0.03981603040599
C            2.58028210190900       -1.21425402444508        0.03006176031096
N            1.43813958087363       -1.93419271955128        0.00098261760884
C            0.39035688448383       -1.05887472636071       -0.00790371836672
C            0.93510056364412        0.21347819449412        0.01709077491437
C            0.09450143893243        1.40504303904423       -0.00410947031874
O            0.49712751527797        2.54126714362870       -0.00342325688240
N           -1.25076640035757        1.06271879480407       -0.03085478223738
C           -2.21907211982101        2.15522099834493       -0.05001256985998
C           -1.81739487048744       -0.20012725993278       -0.04692818574614
O           -2.99983886758376       -0.37846417018721       -0.07008878229737
N           -0.92618586207120       -1.30210215599479       -0.03682761578324
C           -1.46982264913417       -2.64643102187190       -0.06029820460571
H            3.71247264356769        1.21471455160235        1.06488849150277
H            4.00791497605742        1.03430808813993       -0.67357694370751
H            2.69910007168542        2.09770118228144       -0.09130154882931
H            3.56654120610678       -1.63682992603973        0.04233140067262
H           -1.67107961066214        3.09322851271934       -0.02552706933167
H           -2.82428953597071        2.09428624779827       -0.95318082946668
H           -2.87644029173232        2.07745725625962        0.81450067533302
H           -1.17061996399332       -3.19584890659852        0.83242232437030
H           -1.14560257411436       -3.17511610292205       -0.95688275822323
H           -2.55549792440841       -2.55659984320617       -0.07459039797972
H            1.38130855184625       -2.94313852034425       -0.01389874181052
25
 energy: -4.632542437340 xtb: 6.6.1 (8d0f1dd)
C            3.24086847348276        1.22233724516511        0.07841085695139
N            2.31791124080095        0.11260737285721        0.02455067361601
C            2.59876742924873       -1.22285539879861        0.03291828879331
N            1.43207572922972       -1.95109321275027        0.00820305743852
C            0.39350023886888       -1.07828154568461       -0.00546099979358
C            0.93437867440028        0.20256033401887        0.01497191119414
C            0.11307586183342        1.36951432759213        0.00212281590332
O            0.51986770871872        2.53044101930428        0.00594856715276
N           -1.24790662080596        1.03092944568577       -0.02722986613920
C           -2.19089836300593        2.13856839023062       -0.04738991091932
C           -1.82280842404442       -0.21441854729118       -0.04788918496940
O           -3.02120533955314       -0.38424059503362       -0.07563755181250
N           -0.94257464103157       -1.32254240493949       -0.03610877112004
C           -1.51045163367957       -2.65580982065097       -0.06497038187567
H            3.70459467187598        1.28001524907975        1.06890453126454
H            4.00572409195038        1.09734516931254       -0.69723988941384
H            2.71271951822017        2.16330155631469       -0.08795200300898
H            3.57345623623150       -1.64195213939632        0.05518402129170
H           -1.61174533855077        3.05939544785235       -0.01975165744948
H           -2.79123149588100        2.09367405625396       -0.95505241017750
H           -2.84956442724927        2.07555815972454        0.81749038912118
H           -1.22573020094472       -3.22006900870766        0.82491566021412
H           -1.19877792941321       -3.19258648706150       -0.96298684316504
H           -2.59542794768468       -2.54468782937942       -0.07990705176346
H            1.37359715491895       -2.95868218152616        0.00098964481433
25
 energy: 2.928536179545 xtb: 6.6.1 (8d0f1dd)
C            3.24059298315570        1.32571382373785        0.06377014749325
N            2.34993700964784        0.17207627700061       -0.01409290448828
C            2.62117323910963       -1.22482736816674        0.03954938704939
N            1.43101641417315       -1.97442734578612        0.02547549521277
C            0.39779593258332       -1.12091879301349        0.00151395879268
C            0.93497065007247        0.17206880744827        0.00928313528342
C            0.14702785291630        1.29687723670076        0.01442300718861
O            0.55180796724463        2.48005794023313        0.02875263804621
N           -1.23852618245774        0.97328570280743       -0.01913201371993
C           -2.13027155784425        2.11170611417023       -0.04129145800535
C           -1.82271341986055       -0.24455576134066       -0.04943771600654
O           -3.03608866539492       -0.39546916746320       -0.08808746878286
N           -0.96689912832417       -1.36498106706565       -0.03266417173870
C           -1.59360380836925       -2.67566912042785       -0.07524843811525
H            3.68221561580810        1.40933479280885        1.06944260519736
H            3.99779770986590        1.23063804924303       -0.73910001402465
H            2.72795726505782        2.28530907346946       -0.08511195686574
H            3.58123432543491       -1.63734306305927        0.08584486268193
H           -1.48931877263452        2.99670554089989       -0.00639255731608
H           -2.72014662527579        2.09798174357145       -0.95709700096099
H           -2.79230437749840        2.07659554297431        0.82236734326234
H           -1.34884511343923       -3.27391538870967        0.80819689213917
H           -1.31722251014131       -3.23004102526692       -0.97741425692764
H           -2.67697333829766       -2.51311417115810       -0.09173256072639
H            1.38160120240427       -2.98405977143562        0.03521694147856
25
 energy: 23.911959153084 xtb: 6.6.1 (8d0f1dd)
C            3.24303943396682        1.43667621770641        0.04616343184186
N            2.38723112480906        0.23016346648795       -0.06196577788336
C            2.64010621163865       -1.22044814950547        0.04451621863390
N            1.44049445119931       -2.00031994570708        0.04514593330604
C            0.40229557670259       -1.17248036705570        0.00842727832755
C            0.94346567567900        0.13172085600905       -0.00000590801494
C            0.17639102327255        1.22896324826136        0.02975540257434
O            0.57669552162996        2.42374970058821        0.05885629910936
N           -1.22738210290194        0.91785427244440       -0.00799632731245
C           -2.06695683270273        2.08473807773421       -0.03399093912803
C           -1.81975260608771       -0.27940616049497       -0.05151940616807
O           -3.04330769964129       -0.40922722016353       -0.10263427618689
N           -0.98785275263609       -1.41514811399158       -0.02795894983003
C           -1.68951624331036       -2.69848545520660       -0.08712715593159
H            3.65932561732457        1.54724835021161        1.06613517940864
H            3.99294452217398        1.37466480614292       -0.78161395299165
H            2.75265372227455        2.41997058590908       -0.08737016592862
H            3.59050732808708       -1.62687971582858        0.12689917046979
H           -1.36636669026043        2.93077106505818        0.00973179379883
H           -2.64194278977721        2.10014826552061       -0.95892300223049
H           -2.73214759587258        2.07536067168069        0.82661465157471
H           -1.49684939140079       -3.33460169808655        0.78821682857942
H           -1.45974147098812       -3.27062313741819       -0.99507420214201
H           -2.76911019123041       -2.47093138314261       -0.10469540780482
H            1.40799082598779       -3.01444963498188        0.07744718007579
25
 energy: 53.196110190571 xtb: 6.6.1 (8d0f1dd)
C            3.24727377589032        1.55157220980327        0.03037955204629
N            2.42895629745096        0.28434338985930       -0.11497542747480
C            2.65079853812146       -1.21235765836035        0.04360815766344
N            1.45622336590380       -2.03154366838601        0.06202400869948
C            0.40317841528208       -1.23071617384739        0.01125374927073
C            0.96035317231277        0.08083100762562       -0.01514318582024
C            0.19879870408020        1.17091314650972        0.04811470234631
O            0.59871287255627        2.36164371962056        0.09396403444340
N           -1.21414110041841        0.87011697379071        0.00646160557761
C           -2.00336409281925        2.06263200506866       -0.02655852993395
C           -1.81657401072830       -0.31509035738671       -0.05414271388222
O           -3.04486270914245       -0.41873255775980       -0.11694739155602
N           -1.00798398254896       -1.47072699629040       -0.02400752018493
C           -1.78776329660213       -2.72515294892824       -0.09806427505850
H            3.63211231228620        1.68486643778532        1.06438121229357
H            3.98654608607730        1.51586524789988       -0.82198021663462
H            2.78156432368773        2.56004581994896       -0.09396941380173
H            3.59575789713132       -1.61205261730242        0.17699404490114
H           -1.25404724620083        2.86968703005949        0.02555431305911
H           -2.56034015261914        2.10322275713990       -0.96020571752053
H           -2.67091369530577        2.07774838846306        0.82946635418377
H           -1.64886052106503       -3.39224830268529        0.76798316737622
H           -1.60686673008951       -3.31034308957677       -1.01132846110104
H           -2.85936834060647       -2.43361491629419       -0.11490100990370
H            1.44702478530206       -3.05188024458495        0.11907285715847
25
 energy: 81.605577676575 xtb: 6.6.1 (8d0f1dd)
C            3.25265426749354        1.65487918500926        0.02211591305871
N            2.46799424304093        0.32312486203169       -0.16573917357676
C            2.63695418241761       -1.19763023697993        0.03238900138632
N            1.47304939118989       -2.06443685249011        0.07192649384838
C            0.39183867508101       -1.28599468495542        0.00652944860921
C            0.98410365399447        0.02318399966022       -0.03764191002582
C            0.21024120293860        1.13161236306557        0.06534879640491
O            0.62359211030989        2.28806578099162        0.13096713502930
N           -1.19529310387535        0.84176524503876        0.02340181963701
C           -1.94809748820354        2.05207983230691       -0.02049275749782
C           -1.81576533416350       -0.34497997262144       -0.05677555624500
O           -3.03764349769707       -0.41390766492079       -0.12820005236251
N           -1.02701144435760       -1.52317119470372       -0.02326935082649
C           -1.86659245949371       -2.75399872676778       -0.10456822473857
H            3.60071255998130        1.79560188276157        1.06646974357386
H            3.97566331195301        1.62328805264152       -0.85095693580616
H            2.80963612145785        2.68552826046937       -0.10530528322971
H            3.58229180037889       -1.58867530897394        0.23271718036689
H           -1.17899756451939        2.82835361688623        0.03707333091280
H           -2.48775880077208        2.10779013043458       -0.95940524024590
H           -2.61661870783470        2.08782255756309        0.82978935089605
H           -1.76776186224409       -3.42945527755352        0.75213190520948
H           -1.72301964792470       -3.33868513713442       -1.02015563093231
H           -2.92362092395983       -2.42160278428521       -0.11798920124897
H            1.49166398274482       -3.09152932530223        0.14667309395032
25
 energy: 105.319682056511 xtb: 6.6.1 (8d0f1dd)
C            3.24659444807639        1.73415136866409        0.01403587928267
N            2.48647387133885        0.34269235429071       -0.20285531863030
C            2.61321691274148       -1.17775238409911        0.02052144678375
N            1.48678609274636       -2.09013697366604        0.07881854419359
C            0.37637915717446       -1.32437158528889       -0.00326075709345
C            0.99414501172846       -0.02062136393530       -0.06215913532069
C            0.22268786343989        1.09132548713917        0.06838542862518
O            0.66793986080238        2.21627097462801        0.17727230416827
N           -1.16611208692725        0.81732135853207        0.03577276727662
C           -1.90195345842547        2.04474320435517       -0.01483108050459
C           -1.81477221409077       -0.36903216722528       -0.05773124620801
O           -3.03033864727136       -0.40246911507094       -0.13786299730492
N           -1.04019568686907       -1.56105236246616       -0.02724102002485
C           -1.91757063629440       -2.77639375477851       -0.10705830687674
H            3.56160152020749        1.87376231706521        1.06618381026262
H            3.96306773037366        1.69043841770964       -0.86421253025752
H            2.81972643446066        2.77751744117013       -0.12574006501858
H            3.55476655052200       -1.54793599039328        0.28720870439947
H           -1.12600738395190        2.80710443734453        0.04715050995040
H           -2.43130860208419        2.11291499932104       -0.95839138188402
H           -2.57412686647272        2.10130855022367        0.83157290543582
H           -1.84555172575604       -3.45449131978573        0.74534533972252
H           -1.80195254891936       -3.35932322042095       -1.02507864689785
H           -2.96251131316877       -2.41733859812093       -0.11578208370700
H            1.53123038455545       -3.11960347302044        0.15697082577487
25
 energy: 115.603654045628 xtb: 6.6.1 (8d0f1dd)
C            3.24703398901275        1.77043724231832        0.00665020536885
N            2.49341133198860        0.34031709645843       -0.23191597991951
C            2.59023407948838       -1.16428980521529        0.00995381437879
N            1.48828514729494       -2.10135394498642        0.08220831796263
C            0.36511048868905       -1.33960935857325       -0.01473811543403
C            0.99643709312621       -0.04322997913039       -0.08796358954819
C            0.22170665351920        1.07327424528723        0.07239401129322
O            0.69062553663812        2.18463342725329        0.22634859764346
N           -1.15022642964339        0.80807769570562        0.04065311449449
C           -1.88445986197594        2.04074609947402       -0.01346315087601
C           -1.81457012226801       -0.37857562696176       -0.05992389811815
O           -3.02477608337619       -0.39302563198745       -0.14441362326199
N           -1.04506084958846       -1.57322609537889       -0.03250913727983
C           -1.93189309513077       -2.78389030760262       -0.10487835599611
H            3.53637639832999        1.89757751780474        1.06543722030028
H            3.96439984664337        1.70489235393581       -0.86680616184694
H            2.83437655342590        2.82126314388050       -0.14181987999221
H            3.52513984678526       -1.51667380681638        0.32803516403286
H           -1.10598333061622        2.80190636369439        0.05216712850934
H           -2.40848833108321        2.11006382577442       -0.95970040810606
H           -2.55767308868684        2.10301610934792        0.83052197060474
H           -1.86442695807917       -3.45913758082689        0.74766809941215
H           -1.82454035609670       -3.36600291312647       -1.02238395230892
H           -2.97168790251272       -2.41819880536384       -0.11054756419188
H            1.54286411205210       -3.12996266279319        0.15606006902628
25
 energy: 120.539810033210 xtb: 6.6.1 (8d0f1dd)
C            3.25030872483768        1.79233234941447        0.00132179285063
N            2.49739156620647        0.32980780387498       -0.25814707025214
C            2.57704475884498       -1.15754575516861        0.00464456222741
N            1.48438982356911       -2.10680950153205        0.08890255280058
C            0.35951612822945       -1.34499041641051       -0.02295802872255
C            0.99465567427103       -0.05413523343536       -0.11230914150121
C            0.22213471692298        1.05912682824097        0.07627553205448
O            0.70852350725050        2.16490126236830        0.25865205784500
N           -1.14099719318195        0.80348349852376        0.04229060990270
C           -1.87834826410896        2.03755741353428       -0.01237060095658
C           -1.81400035639251       -0.38124854902384       -0.05986543363178
O           -3.02372782858118       -0.38572818764182       -0.14777294838487
N           -1.04716928369626       -1.57400925078206       -0.03605092249229
C           -1.93469646829665       -2.78412160267880       -0.10392354753824
H            3.52233728966667        1.90379894342626        1.06489530823726
H            3.96897351056276        1.70890034508550       -0.86915586377448
H            2.84751848344170        2.84599818434353       -0.14846179166771
H            3.50202331495990       -1.49602164815659        0.35920699891491
H           -1.10203539586066        2.80376057366062        0.05434493711030
H           -2.40193025012789        2.10362574972232       -0.95910293641602
H           -2.55251689759389        2.10000421119116        0.83060169961204
H           -1.86392524069807       -3.46047671445479        0.75001963874356
H           -1.82849133002962       -3.36798431509927       -1.02107772492091
H           -2.97469936454653       -2.41725260125715       -0.10832899050162
H            1.53993504228719       -3.13394478557343        0.15540320660877
25
 energy: 124.114407838512 xtb: 6.6.1 (8d0f1dd)
C            3.25978851575301        1.81619602077903        0.00082423227278
N            2.50274478693946        0.31016580314562       -0.29176422059233
C            2.56518495667333       -1.15480791342612        0.00089122044955
N            1.47486701822269       -2.11213047038579        0.09829042045769
C            0.35396808779344       -1.34777834646268       -0.03448731547082
C            0.99069126729673       -0.06226482101986       -0.14721494964813
C            0.22145581274662        1.04817775337137        0.07899567327821
O            0.71827329772817        2.14802370924864        0.27545110385012
N           -1.13627334658220        0.80232199337748        0.04372654386640
C           -1.87683149687930        2.03616793694649       -0.00929854065840
C           -1.81454464974360       -0.38057616741189       -0.05908386833555
O           -3.02436186219755       -0.37911229183739       -0.14499725012062
N           -1.05050387025155       -1.56989347457100       -0.04093084619943
C           -1.93241616680582       -2.78218656007078       -0.10391165985385
H            3.51601705684060        1.90175396027574        1.06801938507691
H            3.97464975333479        1.70823952674675       -0.87089762980395
H            2.86956606156608        2.87201807208904       -0.14717973627099
H            3.47680190310163       -1.48092946790482        0.39772555508421
H           -1.10353819089780        2.80885510278944        0.05608442592165
H           -2.40332569053573        2.09719846730237       -0.95506969202741
H           -2.55133751989356        2.09620453324312        0.83369269537439
H           -1.84991200467584       -3.45655092199828        0.75182460162425
H           -1.82063227579968       -3.36724735577405       -1.01970803964509
H           -2.97470713049962       -2.42414533557104       -0.10673949735275
H            1.52659035470195       -3.13867115070956        0.15279128487040
25
 energy: 130.661650949611 xtb: 6.6.1 (8d0f1dd)
C            3.27657091102974        1.87056871194528        0.00807959429504
N            2.51267605662502        0.27206885610415       -0.34260410280754
C            2.55460585339799       -1.15818783122942        0.00113147519318
N            1.45715480475622       -2.12509936626191        0.11878083286504
C            0.34662341003716       -1.35676506753171       -0.05307535628975
C            0.98169126152205       -0.07797380609792       -0.20872621344341
C            0.22956111254816        1.02908976925755        0.06950253477602
O            0.73961252857173        2.12315888674608        0.28735398794980
N           -1.12965672568681        0.79945429904181        0.04306564712227
C           -1.87195711679122        2.03350691512393       -0.00194244723053
C           -1.81504050580625       -0.37914020011976       -0.05870394303324
O           -3.02775088933625       -0.37177910601633       -0.13583933018731
N           -1.05830166712674       -1.56579487916927       -0.04868854434163
C           -1.93374896405202       -2.78121019676054       -0.10464194726034
H            3.51371429547541        1.91105640767496        1.07809735475636
H            3.97558628563740        1.72046588104207       -0.87435024068849
H            2.90463819100050        2.92709658553076       -0.13496033189554
H            3.44157509600303       -1.46604118649696        0.44930995170505
H           -1.10375059100156        2.81497311151905        0.05812219688626
H           -2.40705182076369        2.08950981821588       -0.94456050157279
H           -2.54560276469974        2.08997428002664        0.84293180189601
H           -1.83520961164975       -3.45480564792351        0.75486545093327
H           -1.81365554955639       -3.37041817232495       -1.01887633526044
H           -2.98171955277095       -2.43229550276768       -0.10546215622734
H            1.50165062057321       -3.15238395735633        0.14822451800728
25
 energy: 139.148305104584 xtb: 6.6.1 (8d0f1dd)
C            3.33308194575354        2.04444462944682        0.03996697190016
N            2.54148574713288        0.13322207074789       -0.48677823180814
C            2.53081974599471       -1.17581751456233        0.00475563862530
N            1.39915781777464       -2.16471742472776        0.18845740171968
C            0.32705584342271       -1.38128840551435       -0.10210689482087
C            0.94803563113615       -0.12263306209061       -0.39129995615537
C            0.25680228581542        0.97550805894273        0.04244125764331
O            0.79952087000484        2.05625558074489        0.30801310665612
N           -1.11346387727939        0.79476154884751        0.04184388829687
C           -1.86283458773115        2.02743449827432        0.01784465113998
C           -1.81580246211675       -0.37068847575606       -0.05398353641271
O           -3.03937683860131       -0.35374132968980       -0.10631070638510
N           -1.08072860408826       -1.54697870839905       -0.06671175820040
C           -1.93064870922673       -2.77454266641108       -0.10635791058956
H            3.52082339139637        1.93511928696302        1.11210182809868
H            3.96934706755765        1.74673770665640       -0.88526566730142
H            3.00593214204193        3.08896158684327       -0.09033522129209
H            3.33834073390121       -1.42659865651271        0.57962119716258
H           -1.11186729037611        2.83810292394847        0.06042837675936
H           -2.42484011210869        2.06818720894206       -0.91665432433450
H           -2.53766839241781        2.07252881648855        0.86701462252059
H           -1.78141628775761       -3.44822653437272        0.76622631569406
H           -1.77890229856339       -3.37604034158162       -1.01636798180896
H           -2.99914429590335       -2.45643462011355       -0.10368268129057
H            1.41850520217469       -3.19452757494236        0.12417351033028
25
 energy: 131.920134483878 xtb: 6.6.1 (8d0f1dd)
C            3.35235523034231        2.08279952047956        0.08238663434249
N            2.52977871227661        0.01502117976776       -0.42675614594821
C            2.58909956418213       -1.20953372351863        0.02547950782667
N            1.37729662910775       -2.16065439625468        0.20797043597521
C            0.34851180515023       -1.36669378487359       -0.07606488974940
C            0.90425197637831       -0.10095727481826       -0.36850895118970
C            0.28135397921861        0.98428558054165        0.05210244975653
O            0.78959835776176        2.09905609840040        0.23730186423440
N           -1.13198601716241        0.80907587851075        0.04013306596701
C           -1.88570636349265        2.03387434536741        0.00898994758017
C           -1.80855348046345       -0.34922489791129       -0.04189202931188
O           -3.04998609394314       -0.37677085295246       -0.09701477016664
N           -1.07468204505624       -1.51392697535814       -0.04839019352876
C           -1.90029727110265       -2.75445693375652       -0.10469906631061
H            3.57755556300072        1.92286774844238        1.11814244132953
H            3.91596552552460        1.69936074472104       -0.89032087358099
H            2.97983978293896        3.05523324972314       -0.06128226665663
H            3.36272304309107       -1.44172693407450        0.48895317777216
H           -1.13984081750100        2.85933152571593        0.04269736967778
H           -2.45564456702363        2.07400834811374       -0.93093329173994
H           -2.57641832842334        2.07484054937552        0.85443031665626
H           -1.73941477482580       -3.44344060470576        0.77933630937199
H           -1.72398449682998       -3.36757474499636       -1.01656775818113
H           -2.99018393560873       -2.44613576040929       -0.10951033099046
H            1.38058269039613       -3.18962928335789        0.06105094301142
25
 energy: 124.607964770779 xtb: 6.6.1 (8d0f1dd)
C            3.33503024338740        2.05316183270638        0.05723592220815
N            2.52591948521305        0.07029607912400       -0.44284973162714
C            2.56555319286385       -1.19827820834666       -0.01499634973285
N            1.38430677160548       -2.16313523150011        0.16050355183308
C            0.33848773541949       -1.37540041245954       -0.09996936245210
C            0.91885634612873       -0.11078530738925       -0.37061839325089
C            0.27484054058134        0.98175912171034        0.04694468251559
O            0.80072255145107        2.08343110237980        0.25929501151729
N           -1.12489766876524        0.80557838233380        0.04104407711391
C           -1.87553576003290        2.03282227468690        0.01412586675101
C           -1.81191934889360       -0.35635785977776       -0.04629520464545
O           -3.04435918216658       -0.36474672141196       -0.09447563565850
N           -1.07833987126765       -1.53298878088931       -0.05858965298035
C           -1.91461842408124       -2.76613138509502       -0.10203242385555
H            3.54475933733725        1.92487500445404        1.10490739571598
H            3.92619525865027        1.73340843176420       -0.88571287966277
H            3.00091844921678        3.07833163203234       -0.06980461220168
H            3.38171958211720       -1.44649102456386        0.59581287237702
H           -1.13084720308549        2.84938101241416        0.05074097985642
H           -2.44198216024912        2.07048789805995       -0.92022485100901
H           -2.55592458636063        2.07495956665632        0.86184679251521
H           -1.75869194038133       -3.44149540244133        0.77502031593723
H           -1.75084050237575       -3.37197610183630       -1.01249321597560
H           -2.99205765976101       -2.45270978879567       -0.10135454650790
H            1.39491948138482       -3.18896751164354        0.07897328736616
25
 energy: 136.610483403847 xtb: 6.6.1 (8d0f1dd)
C            3.32847396794300        2.06082664214075        0.03157211332220
N            2.53293535428468        0.11541618182058       -0.46531913288154
C            2.53415713543923       -1.18819040773645        0.00807563488022
N            1.39359199176615       -2.17849274794491        0.16709508716267
C            0.32409190907115       -1.39424386783231       -0.10971066060473
C            0.93997835894156       -0.13317602798923       -0.38781982732323
C            0.26381645458849        0.97699524439509        0.05176636936298
O            0.80983891291266        2.05651799451570        0.30738219829688
N           -1.11089930632046        0.79895715570070        0.04550157911060
C           -1.85806039222697        2.02953414367592        0.01467193883314
C           -1.81302999267002       -0.36841813531922       -0.05635530036654
O           -3.03244702240324       -0.34962081693190       -0.10587460048462
N           -1.08208985796498       -1.55774791035598       -0.07009759033041
C           -1.93458694570057       -2.78126545346146       -0.10065783210645
H            3.49202867456387        1.94269915123123        1.10780477975397
H            3.95079696470981        1.77052256761892       -0.87276224086566
H            3.04794413341228        3.14193189094332       -0.08872278950596
H            3.33753082755479       -1.44017669160764        0.56501844147048
H           -1.11166618696187        2.83587065832336        0.05610094733902
H           -2.41649481484850        2.06364102882414       -0.91732837115442
H           -2.53039324485689        2.07621163790863        0.86239668929693
H           -1.78841034289051       -3.44125813548770        0.77061811715765
H           -1.78386069737356       -3.37983809789740       -1.00729948338622
H           -2.99665526557864       -2.46472772784377       -0.09813919168461
H            1.41562405254473       -3.20293967451849        0.11911702085491
25