25
 energy: 0.000000000000 xtb: 6.6.1 (8d0f1dd)
C            3.23720163006194        1.16630919979326        0.08434469647475
N            2.29877817382611        0.07527477071623        0.03981603040599
C            2.58028210190900       -1.21425402444508        0.03006176031096
N            1.43813958087363       -1.93419271955128        0.00098261760884
C            0.39035688448383       -1.05887472636071       -0.00790371836672
C            0.93510056364412        0.21347819449412        0.01709077491437
C            0.09450143893243        1.40504303904423       -0.00410947031874
O            0.49712751527797        2.54126714362870       -0.00342325688240
N           -1.25076640035757        1.06271879480407       -0.03085478223738
C           -2.21907211982101        2.15522099834493       -0.05001256985998
C           -1.81739487048744       -0.20012725993278       -0.04692818574614
O           -2.99983886758376       -0.37846417018721       -0.07008878229737
N           -0.92618586207120       -1.30210215599479       -0.03682761578324
C           -1.46982264913417       -2.64643102187190       -0.06029820460571
H            3.71247264356769        1.21471455160235        1.06488849150277
H            4.00791497605742        1.03430808813993       -0.67357694370751
H            2.69910007168542        2.09770118228144       -0.09130154882931
H            3.56654120610678       -1.63682992603973        0.04233140067262
H           -1.67107961066214        3.09322851271934       -0.02552706933167
H           -2.82428953597071        2.09428624779827       -0.95318082946668
H           -2.87644029173232        2.07745725625962        0.81450067533302
H           -1.17061996399332       -3.19584890659852        0.83242232437030
H           -1.14560257411436       -3.17511610292205       -0.95688275822323
H           -2.55549792440841       -2.55659984320617       -0.07459039797972
H            1.38130855184625       -2.94313852034425       -0.01389874181052
25
 energy: -5.272643953986 xtb: 6.6.1 (8d0f1dd)
C            3.24168389712857        1.19995123839887        0.08235507134704
N            2.31274517403026        0.10371310800719        0.03139645726108
C            2.59979515839664       -1.22787204964373        0.03158552227350
N            1.43023194296926       -1.94553221380714        0.00472495176992
C            0.39521294024996       -1.06719381213378       -0.00685780011537
C            0.93227703307323        0.21261781090543        0.01507539056156
C            0.10736357646633        1.38283290161637       -0.00152793289704
O            0.50882278630419        2.54640216867506        0.00081936644703
N           -1.25406124727496        1.04049451502546       -0.02911008403866
C           -2.20524700821291        2.14256196979505       -0.04852686124039
C           -1.82317923066435       -0.20780523396777       -0.04763407787655
O           -3.02073141244432       -0.38401998946655       -0.07313494690627
N           -0.93818575009897       -1.31184456951275       -0.03660413042472
C           -1.49160373133751       -2.64929737037972       -0.06273574669533
H            3.71338749391560        1.25257524785437        1.06820453524684
H            4.00846024872769        1.07122114878108       -0.68654483295710
H            2.70337208128959        2.13220441043622       -0.08870458323351
H            3.57650048075799       -1.65072103789419        0.04917503950439
H           -1.63383409206945        3.06799368320516       -0.02234339428720
H           -2.80791644100581        2.09378143060291       -0.95471760973400
H           -2.86334416041055        2.07630867431136        0.81689639241478
H           -1.19813250502490       -3.20746456720206        0.82820384360890
H           -1.17205495103229       -3.18326454476815       -0.95969164808136
H           -2.57671911776235       -2.54753991792277       -0.07743707409403
H            1.36737150196527       -2.95107439874390       -0.00583195170624
25
 energy: -4.993238809786 xtb: 6.6.1 (8d0f1dd)
C            3.23946448811476        1.24550041794484        0.07559827008586
N            2.32744206140746        0.13106306985708        0.01442645335189
C            2.61715047530918       -1.23501984071274        0.03526732256259
N            1.42790289164858       -1.95350045429828        0.01388882750408
C            0.40074725438735       -1.08370804039980       -0.00387792312271
C            0.93070100380014        0.20309293695650        0.01106365264548
C            0.12446787657303        1.34626448951955        0.00286131320330
O            0.51404014510695        2.52592610264388        0.01025652062998
N           -1.25436234646734        1.00982689209293       -0.02561128328162
C           -2.17708895904009        2.12819000202055       -0.04516803441363
C           -1.82224586178766       -0.22273103117717       -0.04864718025824
O           -3.02706438678633       -0.39498414195506       -0.07924971235731
N           -0.94877162461528       -1.32915652900553       -0.03515902506407
C           -1.52881985392429       -2.65502762588762       -0.06800523983838
H            3.70919822861142        1.31538153740004        1.06456097481538
H            4.00487788964088        1.14097025959724       -0.70389775157081
H            2.69776787615011        2.17993823017578       -0.08673838414712
H            3.58613261753739       -1.65765185883509        0.06436005093274
H           -1.56645907529797        3.03099563958626       -0.01506516090132
H           -2.77504571201673        2.09862565860060       -0.95557449306130
H           -2.83707543160423        2.07896328097962        0.82003224605375
H           -1.25597875464535       -3.23144022465935        0.81963673748330
H           -1.22718112605692       -3.19892381272403       -0.96686500230287
H           -2.61297617143874       -2.52506698479605       -0.08381882582776
H            1.36539116332987       -2.95849937075215        0.01275954302609
25
 energy: -1.758631888342 xtb: 6.6.1 (8d0f1dd)
C            3.22601838348303        1.29391693194441        0.06421924957422
N            2.34144379964465        0.14864611216971       -0.00648239559115
C            2.63357720701756       -1.23645898127607        0.03969370192429
N            1.44006006304725       -1.96347667078115        0.02731603106819
C            0.40841217392835       -1.10953712830200        0.00029402049272
C            0.93455415340872        0.18366765148037        0.00543503616396
C            0.14011120756865        1.31320841694345        0.00873112051197
O            0.51692083384743        2.49897144596012        0.02421210136769
N           -1.24929345340915        0.98125119960203       -0.02042440683103
C           -2.14048894371952        2.11786427525676       -0.04020121655520
C           -1.81608100506459       -0.24283014298865       -0.05008957790196
O           -3.02378087319910       -0.41007513228129       -0.08780877092109
N           -0.95211028410400       -1.35419554040896       -0.03249075173642
C           -1.57486996553772       -2.66415676169579       -0.07562966674387
H            3.69416754447258        1.38718181931965        1.05390179840895
H            3.99178652881672        1.22783403497688       -0.72348829696817
H            2.67038682559646        2.22555958163948       -0.08879878766782
H            3.60039266772423       -1.65677981049789        0.08728578108989
H           -1.48726448489185        2.99374957313093       -0.00398742277684
H           -2.73078815637129        2.11069176678351       -0.95581559868642
H           -2.80248219434164        2.08692962299892        0.82363964318983
H           -1.33560661643152       -3.26395283593573        0.80793915185730
H           -1.30228644197337       -3.21876512862421       -0.97837872738036
H           -2.65676746972094       -2.48998681030646       -0.09307041160386
H            1.38620316814527       -2.97022888693601        0.04103229186245
25
 energy: 4.710803906798 xtb: 6.6.1 (8d0f1dd)
C            3.19879397606394        1.35836065878551        0.04535571075228
N            2.36034952226357        0.16331783454456       -0.03711315732095
C            2.65579698573121       -1.23327706633650        0.04466619133043
N            1.46969276594106       -1.97941671345564        0.04791647915647
C            0.42042044953959       -1.15087332900761        0.00569848581883
C            0.94542236661798        0.14951318701474       -0.00501092534931
C            0.16000628876101        1.27439230853712        0.01809424515715
O            0.52506488208439        2.45967651850416        0.04781528615920
N           -1.23637620281827        0.94741369922518       -0.01143706502616
C           -2.08766347779708        2.10776185654204       -0.03208606284765
C           -1.80371050406816       -0.27127302088593       -0.05247213271605
O           -3.01294537260227       -0.42784926569025       -0.10157074374851
N           -0.95044178518599       -1.39360602175659       -0.02800708923299
C           -1.64157606372551       -2.67858467894388       -0.08762588302849
H            3.66336016966088        1.48413087087744        1.03463516450520
H            3.96340005574463        1.34900572312087       -0.75219891591733
H            2.61406634861282        2.27969488254899       -0.09654020154835
H            3.62341022462254       -1.64767887021866        0.12727288929589
H           -1.38500073595901        2.94836632927602        0.01434062054557
H           -2.66460461926051        2.13147228823131       -0.95536081544121
H           -2.75277767101302        2.10059690590414        0.82832045808363
H           -1.45567857888048       -3.31102801235186        0.78910463177225
H           -1.41487428449785       -3.24590121087174       -0.99677117070018
H           -2.71750773606127       -2.43546622450192       -0.10695144169150
H            1.43558766416199       -2.98972004691957        0.08695933813907
25
 energy: 10.936621085031 xtb: 6.6.1 (8d0f1dd)
C            3.16752803282719        1.40730431274077        0.02591685133347
N            2.37414010616646        0.16691725941113       -0.06352258496705
C            2.67247093239033       -1.22402130627681        0.04698838522438
N            1.50474750393618       -1.99334969609880        0.06663376248323
C            0.43000980033803       -1.18899013272577        0.00767539466459
C            0.95823521622096        0.11539959712880       -0.01856964256602
C            0.17631507267453        1.24629379403152        0.02734695693069
O            0.54232724831920        2.42311440512342        0.07525879107403
N           -1.21799786535060        0.92496769181758       -0.00163023927397
C           -2.04203925912018        2.10268353054235       -0.02349442850846
C           -1.79030454345695       -0.29301850692765       -0.05556269461185
O           -2.99942894694860       -0.43227625687181       -0.11597676186037
N           -0.94571245146174       -1.43040292190627       -0.02509070021125
C           -1.69767023086215       -2.69200465506445       -0.09903336829992
H            3.62616763082509        1.55972779621654        1.01364654803180
H            3.92605828978935        1.44289552488531       -0.77840870180288
H            2.55057121268724        2.31244697712076       -0.11048778399626
H            3.64304090671326       -1.62934710517420        0.17372149620534
H           -1.31393945917511        2.91856225511905        0.03385041130605
H           -2.60370882180445        2.15078982943847       -0.95389767087735
H           -2.71036678900190        2.11255157507282        0.83209384897798
H           -1.55951647126165       -3.34690505856304        0.76992049066231
H           -1.51204791672081       -3.26485789031689       -1.01373057392761
H           -2.76299101859884       -2.39297339748415       -0.11820442978711
H            1.49632648881135       -3.00647901906674        0.13159053994348
25
 energy: 12.514250532368 xtb: 6.6.1 (8d0f1dd)
C            3.14841623608290        1.41837048323597        0.01149054388829
N            2.37602180560182        0.16082756595249       -0.07526743865844
C            2.67639066366604       -1.21226080246194        0.04752531360717
N            1.52662228518416       -1.99712705161834        0.07708706790565
C            0.43287248342678       -1.20528334300564        0.00499480053512
C            0.96461101570362        0.09928011367080       -0.03087530781174
C            0.18084518623396        1.23750755956885        0.03272786872444
O            0.55704910193446        2.40653252428057        0.10070608067306
N           -1.20377338518649        0.92053429127312        0.00469332121221
C           -2.02377524341688        2.10273971667748       -0.01747791867470
C           -1.78254392515150       -0.29897504283923       -0.05894103267247
O           -2.99059347213581       -0.42174897569847       -0.12697982511227
N           -0.94194943233382       -1.44741965670415       -0.02615253787044
C           -1.71768528499327       -2.69761817156945       -0.10540735502638
H            3.60005345799973        1.58120999393650        0.99801722695327
H            3.89818181782589        1.46484018067992       -0.79378327260365
H            2.51378137325617        2.30921776492070       -0.12782220472649
H            3.64868534029145       -1.60814128186919        0.21240584717804
H           -1.29865103283717        2.91422401318244        0.04920687132654
H           -2.57394482229448        2.15984666038841       -0.95255573861695
H           -2.69541952424239        2.11525499971226        0.83361376518206
H           -1.59939813055378       -3.35515874179459        0.75828119462378
H           -1.54946576402745       -3.26622403125148       -1.02267683379469
H           -2.77262265412187       -2.38159942004352       -0.12230296563145
H            1.53850657202413       -3.00980074645166        0.15652642553731
25
 energy: 12.152943462480 xtb: 6.6.1 (8d0f1dd)
C            3.14082114275175        1.41354949034136       -0.00211130668684
N            2.37349222331690        0.15599632446475       -0.08143018879646
C            2.67783165997202       -1.20449301115968        0.04970851386211
N            1.53584471480185       -1.99599463295278        0.08489216312356
C            0.43483738608493       -1.20827649045187        0.00236866744625
C            0.96467703070539        0.09654949804589       -0.04074202512502
C            0.17880789551760        1.23451051497495        0.03711746982730
O            0.56212828006932        2.40333405854512        0.12550293093651
N           -1.19735580437746        0.91979316009125        0.00818611737784
C           -2.02047650840195        2.10233337279350       -0.01322651762621
C           -1.77867897683756       -0.29958827054036       -0.06235664746948
O           -2.98626571652455       -0.41476945215396       -0.13696816784658
N           -0.93908484630169       -1.45172043759644       -0.02805807962393
C           -1.71993141104515       -2.69705143890835       -0.10935147037268
H            3.58676555895161        1.58006208635410        0.98483537458478
H            3.88574677013157        1.45755193570830       -0.80750655695400
H            2.49775474341819        2.29482646670589       -0.14481981384944
H            3.64883337383246       -1.59165636073783        0.24654385735228
H           -1.29757066457034        2.91596171305082        0.06396269706804
H           -2.56257905844828        2.16410638286907       -0.95271866643882
H           -2.69753292718846        2.11076575474086        0.83345858039350
H           -1.60810453821730       -3.35595865143723        0.75195143510630
H           -1.55723181975003       -3.26163700511951       -1.02883463241147
H           -2.76999622275303       -2.37282099021987       -0.12494766298149
H            1.55948238279843       -3.00634541523613        0.17157782525123
25
 energy: 11.742516328259 xtb: 6.6.1 (8d0f1dd)
C            3.13505701009253        1.40660240166349       -0.02257554735706
N            2.37068251683559        0.15173764251265       -0.09076679300481
C            2.68150604038828       -1.19969624018521        0.05340704217957
N            1.54191950095030       -1.99465348425315        0.09606712906809
C            0.43841539237278       -1.20941922112932       -0.00027888415099
C            0.96317990076823        0.09631377755634       -0.05329087417118
C            0.17618024380554        1.23080093584505        0.04675389613396
O            0.56632514092460        2.40087289629148        0.15971832162356
N           -1.19303462666502        0.91923825834854        0.01287842104660
C           -2.01966044635159        2.10121295031731       -0.00734247871764
C           -1.77448958979653       -0.29904093645843       -0.06750042812202
O           -2.98210899762945       -0.40992340919542       -0.15206234256485
N           -0.93604592625607       -1.45327671337601       -0.03043564158701
C           -1.72057625074908       -2.69384276288227       -0.11524322883151
H            3.57726781092966        1.57862541576594        0.96461864024449
H            3.87761403332024        1.44751936666773       -0.82898923878487
H            2.48350306581587        2.27894219351706       -0.16793562199805
H            3.64836336235598       -1.57526947942502        0.29694027543081
H           -1.29822250377522        2.91755138540730        0.08607464617281
H           -2.55042651298113        2.16911653645729       -0.95327766259702
H           -2.70630237317203        2.10049313439962        0.83175967978491
H           -1.61347044701799       -3.35729572381963        0.74332090534465
H           -1.56194306387952       -3.25523154514408       -1.03746367058452
H           -2.76733322585986       -2.36022030820096       -0.12972824433070
H            1.57581461351013       -3.00212846850844        0.19238559592002
25
 energy: 11.047925030339 xtb: 6.6.1 (8d0f1dd)
C            3.13228386335926        1.39735577724431       -0.04864686518758
N            2.36774008272164        0.14714028138328       -0.10163566193267
C            2.68572321186159       -1.19919773435526        0.05689459786260
N            1.54306881875098       -1.99307848238850        0.10982717732544
C            0.44208293552920       -1.20823255359649       -0.00259434774243
C            0.96122567821352        0.09810076213369       -0.06709469334252
C            0.17325827968320        1.22876067111187        0.06299836869085
O            0.56859336445753        2.39855298296907        0.20080298905721
N           -1.19160111696776        0.92088555512971        0.01928658254277
C           -2.02239172482393        2.10070914005865        0.00019272510263
C           -1.77097622897761       -0.29638709717055       -0.07457808176688
O           -2.97850139836896       -0.40628346787754       -0.17224439770388
N           -0.93356757009443       -1.45118663772940       -0.03337776033170
C           -1.71791527772588       -2.68875162422443       -0.12301957819977
H            3.57573901624447        1.57613694821702        0.93683643583463
H            3.87382723712952        1.43188583884609       -0.85651385435278
H            2.47614918405744        2.26384403962211       -0.19704239205677
H            3.64371226070866       -1.56025330458929        0.36246108442892
H           -1.30539813233110        2.92041533968093        0.11509620890431
H           -2.53808255707607        2.17562152773897       -0.95399449691073
H           -2.72352599837980        2.08532807488852        0.82761016766486
H           -1.61081667619669       -3.35652852607640        0.73234102772100
H           -1.55922832323035       -3.24627439388735       -1.04773657151718
H           -2.76280948560105       -2.35179838039947       -0.13643485349857
H            1.58362522499288       -2.99773613455769        0.21760008555553
25
 energy: 10.270831610950 xtb: 6.6.1 (8d0f1dd)
C            3.13090411268158        1.38641525488549       -0.08800955119043
N            2.36436230934118        0.14138140026079       -0.11591684704485
C            2.69162275364540       -1.20325954477614        0.05906618712670
N            1.53961214954891       -1.99136865146264        0.13119460603460
C            0.44598695355833       -1.20566191216428       -0.00369914190231
C            0.95913344608600        0.10056458403854       -0.08444976207809
C            0.17114004500227        1.22668915399497        0.09063119694369
O            0.57051793737448        2.39282857851186        0.26098840561339
N           -1.19184362001458        0.92408604727071        0.02979327775548
C           -2.02720212949935        2.10071324427510        0.01191835404365
C           -1.76720419208235       -0.29213957294455       -0.08609928739094
O           -2.97404634301198       -0.40336758123050       -0.20482137733417
N           -0.93115091239455       -1.44607665654707       -0.03717995593258
C           -1.71233053040258       -2.68210069885265       -0.13520809418756
H            3.58348893398453        1.57607067073086        0.89183755334944
H            3.87055639392797        1.40931844217563       -0.89974361270529
H            2.47334785481159        2.24946916533013       -0.24082030782238
H            3.62973693274676       -1.54065410907352        0.46322064586023
H           -1.31841359919256        2.92389437234766        0.16099040908596
H           -2.51856467772304        2.18799757541170       -0.95516625424771
H           -2.75313826908822        2.06221881121748        0.81869837925433
H           -1.60181201698701       -3.35569307354922        0.71576554444429
H           -1.54979414232683       -3.23360927588829       -1.06332491585105
H           -2.75695845711814       -2.34579032944911       -0.14798325843706
H            1.58426373506846       -2.99289729234112        0.25535170275994
25
 energy: 9.050621165103 xtb: 6.6.1 (8d0f1dd)
C            3.13399714473134        1.37387810527564       -0.12882793061880
N            2.36040272954174        0.13561148841715       -0.12292324211950
C            2.69634140356181       -1.21291466040215        0.05861058475320
N            1.52839028859585       -1.98880429688488        0.15518411331193
C            0.44706534136401       -1.19917006241745       -0.00026675152133
C            0.95715826793267        0.10502495220802       -0.09537896268137
C            0.17024331049602        1.22749845836908        0.12229571508694
O            0.57007502661973        2.38546017601850        0.32337377439258
N           -1.19503217119635        0.92987507674550        0.04106294086420
C           -2.03550417993210        2.10208189619792        0.02381469336238
C           -1.76550491344855       -0.28596901470242       -0.09983075081700
O           -2.97035019124382       -0.40185491988317       -0.24275207641821
N           -0.92987872350806       -1.43598051884683       -0.04027705556068
C           -1.69985174904701       -2.67572508266494       -0.14772897556297
H            3.60567522786146        1.57470386659372        0.84072054963071
H            3.86952814373047        1.37741030739715       -0.94734660621480
H            2.48241477834883        2.23956071182257       -0.28715437752552
H            3.60048901620323       -1.52017431645391        0.56459419062817
H           -1.34033881084358        2.92875872694869        0.21163001413555
H           -2.49895604549705        2.20384786581582       -0.95676555664289
H           -2.79080802434706        2.03686996943832        0.80418660780348
H           -1.57917411435258       -3.35264262062450        0.69964831092119
H           -1.52552717197455       -3.21963845679944       -1.07858500903221
H           -2.74763901607878       -2.35087542094316       -0.16159648141037
H            1.56899910041862       -2.98780362845343        0.29134617738258
25
 energy: 8.085661020371 xtb: 6.6.1 (8d0f1dd)
C            3.13903825999118        1.36665414878392       -0.15829525441612
N            2.35723215128940        0.13263028813598       -0.11715519037413
C            2.69893425650829       -1.22477746338057        0.05481128375437
N            1.51435991315880       -1.98668184140761        0.17296786988830
C            0.44387686396985       -1.19227962586139        0.00666688914302
C            0.95677138652333        0.10832900636481       -0.09430154501845
C            0.17190541041092        1.23011145170510        0.14456856682127
O            0.56730495931185        2.37674441111439        0.37161869699538
N           -1.19894872599168        0.93482061638025        0.04869479203923
C           -2.04150452950394        2.10429291914732        0.03229127298072
C           -1.76616111396752       -0.28145556245076       -0.11263614466964
O           -2.96748430585335       -0.40231265975186       -0.27520845028630
N           -0.93001774460430       -1.42588748808772       -0.04188858505064
C           -1.68600454285493       -2.67381258889676       -0.15617552460498
H            3.63577920152633        1.57680939937734        0.79759753591386
H            3.86593933252001        1.34908605290365       -0.98687298303732
H            2.49750425085822        2.23995320431308       -0.32134788969672
H            3.56134173344939       -1.50159812196590        0.63783365269456
H           -1.35995346566842        2.93071415110902        0.25296527620621
H           -2.48097693733273        2.22224567181016       -0.95776372532260
H           -2.81999522003163        2.01917102653347        0.78739617499889
H           -1.55359921387910       -3.35053443550375        0.68984110706421
H           -1.49671687809599       -3.21139923775572       -1.08823096620852
H           -2.73978673345219       -2.36603566239339       -0.17328879741068
H            1.54337635965454       -2.98575905805131        0.31294583374337
25
 energy: 8.026910888884 xtb: 6.6.1 (8d0f1dd)
C            3.13946861309323        1.36306819513068       -0.18974628919554
N            2.35389104584331        0.13048063715808       -0.11171546768389
C            2.70184331374261       -1.23274232051197        0.04524512206672
N            1.50668971784439       -1.98558121188067        0.18299862297258
C            0.43915912491546       -1.18905954350275        0.00821588623974
C            0.95827867954366        0.10777035256293       -0.09540118038769
C            0.17362095379044        1.23184927474710        0.15947810592720
O            0.56458314336423        2.36630358281925        0.43068702701999
N           -1.19934264279366        0.93677606394677        0.05433273609613
C           -2.04108290661588        2.10669460232606        0.04155898930816
C           -1.76623563214223       -0.28026175143716       -0.12722500689110
O           -2.96302069397173       -0.40086851343183       -0.30929898692669
N           -0.92940551145912       -1.42099520781450       -0.04553843168210
C           -1.67580683259993       -2.67606218611596       -0.16250361768654
H            3.66030909611411        1.58280944151519        0.75044299676687
H            3.85036219777947        1.32652509115841       -1.03186694391001
H            2.50331810906188        2.24084206405560       -0.35509754509932
H            3.51951068742497       -1.47480673559755        0.73582887441698
H           -1.36935071014603        2.92846483544111        0.30090996792945
H           -2.45273389268300        2.24949319691921       -0.95886258190302
H           -2.84133928631280        2.00452662879897        0.76984461838979
H           -1.53624777672397       -3.35049642057114        0.68275166779947
H           -1.47636873981105       -3.20831722198422       -1.09531374792392
H           -2.73378370544934       -2.38158348412562       -0.18243550928299
H            1.52589831612732       -2.98580076743426        0.32974458978703
25
 energy: 7.642672184778 xtb: 6.6.1 (8d0f1dd)
C            3.14359474671563        1.36469368507427       -0.18171163822330
N            2.35222789047173        0.13424805637218       -0.08024313525735
C            2.69897441275565       -1.23874172504147        0.04133258467528
N            1.50010136441918       -1.98533616169136        0.16812635563126
C            0.42924191888568       -1.18390926346346        0.01257951644571
C            0.96195369926316        0.10838654135849       -0.07058681245189
C            0.17506483144181        1.24015755887468        0.14569610012597
O            0.55705127513583        2.36432012839830        0.43339197965360
N           -1.20117415720697        0.93789448597272        0.04601200540189
C           -2.03957037962028        2.11050770049385        0.03651906352392
C           -1.77150195816924       -0.28136881923783       -0.13170131842448
O           -2.96373374196619       -0.40228142585616       -0.31538951949514
N           -0.93058943023944       -1.41704085415229       -0.04593660195079
C           -1.66330413028820       -2.68435823356712       -0.15323436293563
H            3.68386849859240        1.58202584310935        0.74491986789155
H            3.83574240578773        1.31408497950448       -1.03624341763602
H            2.51496013354813        2.25084798952422       -0.34347150272535
H            3.47956376594123       -1.46492069974979        0.72271251652396
H           -1.37197317374330        2.92410364760444        0.30756515010387
H           -2.44348889187333        2.26953650658111       -0.96164307804738
H           -2.83950293842589        2.01063352239544        0.75466062518771
H           -1.51494537820778       -3.34653915447172        0.69806585936722
H           -1.45240243922119       -3.21854312288864       -1.08135450218853
H           -2.72721406817187       -2.40961043829685       -0.17782044322241
H            1.49927041211184       -2.98976214467513        0.29478860417357
25