25
 energy: 0.000000000000 xtb: 6.6.1 (8d0f1dd)
C            3.23720132972391        1.16630909158653        0.08434468864950
N            2.29877796055224        0.07527476373246        0.03981602671198
C            2.58028186251803       -1.21425391179017        0.03006175752192
N            1.43813944744728       -1.93419254010258        0.00098261751768
C            0.39035684826767       -1.05887462812143       -0.00790371763344
C            0.93510047688824        0.21347817468824        0.01709077332874
C            0.09450143016486        1.40504290868848       -0.00410946993748
O            0.49712746915594        2.54126690785742       -0.00342325656480
N           -1.25076628431515        1.06271869620815       -0.03085477937476
C           -2.21907191394203        2.15522079838987       -0.05001256521996
C           -1.81739470187490       -0.20012724136556       -0.04692818139228
O           -2.99983858926755       -0.37846413507442       -0.07008877579474
N           -0.92618577614240       -1.30210203518959       -0.03682761236648
C           -1.46982251276835       -2.64643077634382       -0.06029819901142
H            3.71247229913541        1.21471443890471        1.06488839270555
H            4.00791460421487        1.03430799217987       -0.67357688121503
H            2.69909982127087        2.09770098766290       -0.09130154035862
H            3.56654087521359       -1.63682977417947        0.04233139674524
H           -1.67107945562430        3.09322822573871       -0.02552706696334
H           -2.82428927394145        2.09428605349656       -0.95318074103337
H           -2.87644002486466        2.07745706351925        0.81450059976605
H           -1.17061985538665       -3.19584861009707        0.83242224714061
H           -1.14560246782873       -3.17511580834413       -0.95688266944647
H           -2.55549768731684       -2.55659960601237       -0.07459039105944
H            1.38130842369251       -2.94313824728853       -0.01389874052104
25
 energy: -4.673631450766 xtb: 6.6.1 (8d0f1dd)
C            3.21185950912255        1.21008498038322        0.09246306417015
N            2.29962359022064        0.10619516286207        0.03472344197686
C            2.59221322472811       -1.24860133159872        0.04513060519896
N            1.39812161280144       -1.94294925343764        0.01543052713829
C            0.37219239248736       -1.06912335280193       -0.02922513513050
C            0.90376255052269        0.21604214611040       -0.01130523083766
C            0.08856294033812        1.35810699092271       -0.04632393930862
O            0.45280844261838        2.54008302079814       -0.05800028660999
N           -1.31612837095800        1.02560590629936       -0.07580684590283
C           -2.17532285984925        2.20393260169154       -0.02081537793259
C           -1.88574161669002       -0.21127125904913       -0.08472898248117
O           -3.09023372008801       -0.38281191500053       -0.09189823944952
N           -0.97556097911387       -1.30896918868161       -0.06421112923614
C           -1.44994942394459       -2.67222406793241       -0.07349667108841
H            3.72003812245560        1.30120018338413        1.06025794418590
H            3.97582722612394        1.12082002643846       -0.68727115508535
H            2.61499304070992        2.11235410294468       -0.05045736120324
H            3.56519326895223       -1.68555199200391        0.07447550595236
H           -1.47655865128849        3.03180317339804       -0.04074169214123
H           -2.87018128809428        2.26480439718471       -0.86728472195126
H           -2.77336282374260        2.22802910926871        0.88994216389885
H           -1.12107988266866       -3.21069679859292        0.82052793404893
H           -1.09032599717828       -3.19752980317286       -0.96139573646258
H           -2.53811734701209       -2.61720258450524       -0.08808507228435
H            1.33431638686269       -2.94747892004983        0.01175168830023
25
 energy: 1.126687750133 xtb: 6.6.1 (8d0f1dd)
C            3.17837185683419        1.22641058186163        0.09824929323782
N            2.28741565287077        0.09784512589001        0.02649920197076
C            2.58321078348158       -1.26469942844348        0.05313408817958
N            1.37510085267437       -1.95253082880990        0.03677770927830
C            0.34863016697359       -1.08031443327970       -0.02367598450256
C            0.88791231716212        0.20369715764277       -0.03815958507194
C            0.08067645295456        1.34512067563758       -0.09068084071828
O            0.44959543493861        2.52883944929688       -0.12613740596877
N           -1.32984845736755        1.04448015674031       -0.11277419688920
C           -2.13624555155064        2.27919269179962       -0.02280078963181
C           -1.89820342499367       -0.18016700467004       -0.09307321935855
O           -3.10498661566794       -0.28743096208430       -0.11027235714382
N           -1.00504477365939       -1.30959472676868       -0.07850044580505
C           -1.43050227942052       -2.69560702913197       -0.08295627272712
H            3.72939112503731        1.26888609202256        1.04693652643525
H            3.93220453429230        1.19727522223251       -0.70075251415424
H            2.54374617183993        2.11444623288002        0.00404248012544
H            3.55409710029786       -1.71931994491797        0.10519975823978
H           -1.32424395625148        2.99832665040057       -0.08098891329056
H           -2.90353889765570        2.42879535816233       -0.78509970111236
H           -2.64438614010308        2.36308487954458        0.95009653390344
H           -1.07836822688599       -3.22249778392972        0.81171763900415
H           -1.04318087883340       -3.21953597433612       -0.96153107736352
H           -2.52041388624146       -2.67709874005664       -0.09780612636980
H            1.29834833950576       -2.95592376972294        0.03658858902741
25
 energy: 9.005995967120 xtb: 6.6.1 (8d0f1dd)
C            3.16593219611905        1.20799598021574        0.12349553316658
N            2.27978446667056        0.07528229044371        0.04191205813112
C            2.57775952187057       -1.29083141428958        0.06585509199288
N            1.36105026835147       -1.97360386802739        0.04471062979382
C            0.33276599160406       -1.09849410978160       -0.02039298506894
C            0.88335372232759        0.18312143417364       -0.03466469557288
C            0.09071274096590        1.33783497357135       -0.11352585681651
O            0.47146740054443        2.51905286042245       -0.14406369411652
N           -1.30651264590185        1.07513498707457       -0.06490773949516
C           -2.11564350908049        2.32330322213318        0.00508457707358
C           -1.90123684015316       -0.12828293644764       -0.08267008884161
O           -3.11042571083538       -0.15115316935194       -0.13504217656575
N           -1.02728330589719       -1.31695314942430       -0.09345492347592
C           -1.41520639246205       -2.71432158441146       -0.10167694594868
H            3.78501738019576        1.16520385706037        1.03131211024698
H            3.87355682922275        1.24623639960505       -0.71844079241377
H            2.52737891757906        2.09900560158920        0.10782829561172
H            3.54363596964186       -1.75763513205188        0.14690243234519
H           -1.31047733198011        2.98364221024791       -0.13856225569434
H           -2.92783751800962        2.49565942322549       -0.66577061715867
H           -2.54180010420331        2.45591698049652        0.98646287002436
H           -1.03724686849423       -3.23287557507342        0.79593081190075
H           -0.99554483451651       -3.23798765786143       -0.96761471155450
H           -2.50450166299149       -2.73510739410976       -0.11277888069552
H            1.26626990838946       -2.97271608583198        0.07372913307251
25
 energy: 21.888402366006 xtb: 6.6.1 (8d0f1dd)
C            3.15297717628442        1.17772770661068        0.16438752119435
N            2.26721619227658        0.04933080004456        0.07573506286328
C            2.56698186950777       -1.31377986725577        0.08341786101536
N            1.35000969855516       -1.99596895260407        0.05532878959301
C            0.31831486585932       -1.11974558999623       -0.02056112877542
C            0.87595119343842        0.16007759549244       -0.00512738256947
C            0.10414133817055        1.33647256456544       -0.06430614807597
O            0.51476374152077        2.50819609155439       -0.06682759569701
N           -1.29049157735896        1.09411787944451        0.01573982260803
C           -2.10465130714822        2.34539828019067        0.03677614426424
C           -1.92419031025804       -0.09792172572566       -0.05453739524901
O           -3.13049486187248       -0.03670383596182       -0.13447177504552
N           -1.04736349660050       -1.32678960520554       -0.12323756328824
C           -1.40562507580351       -2.72969176395961       -0.14023840627167
H            3.84147264420853        1.05605349102877        1.01469699543651
H            3.78339305907276        1.26963360247860       -0.73246499485335
H            2.52038674944600        2.07271585431755        0.24046109437649
H            3.53160352787974       -1.76872631480308        0.20269654607350
H           -1.34340460101860        2.95392774320394       -0.23145580154552
H           -2.97004223563840        2.53665317071242       -0.50033426173446
H           -2.41456963867293        2.56375114365158        1.00905938552653
H           -1.02203317632255       -3.24618707417630        0.76375101791083
H           -0.95088706787141       -3.23989173891804       -0.99225408808659
H           -2.49156049407723       -2.79948584758779       -0.13997630444293
H            1.25863613752036       -2.99345785463168        0.08238382943306
25
 energy: 45.550235672320 xtb: 6.6.1 (8d0f1dd)
C            3.13038830034491        1.15599026121771        0.19945011072239
N            2.24961923593625        0.03037603269289        0.11501302998388
C            2.56268479176537       -1.32079390383138        0.06023311196019
N            1.35450676476382       -2.01425822417942        0.06117435329142
C            0.31124034258883       -1.14240234557300       -0.01769133588873
C            0.86276092965325        0.13984375701562        0.02819348049702
C            0.11122399773097        1.33466543174188        0.01061602535126
O            0.53631455625102        2.50026323926856        0.00830249435638
N           -1.28897820457888        1.08699210581820        0.10527958742100
C           -2.12839061734690        2.36127297843464        0.07117942197123
C           -1.95082616128710       -0.08903269355075       -0.03191379070467
O           -3.15680805398951        0.06746469571571       -0.12812335070265
N           -1.05540182000107       -1.34545552130747       -0.15729056849214
C           -1.39625667820735       -2.73700366501539       -0.18993943604363
H            3.85783258078491        1.01636964226769        1.01106179684666
H            3.68301305774792        1.29278881713805       -0.74221089760841
H            2.50599326725457        2.04555773415297        0.36091621609988
H            3.51646146192296       -1.76360938499320        0.27164469798888
H           -1.39784181889755        2.79501741145796       -0.44423385137061
H           -3.06465666779117        2.60196636502782       -0.25338199591139
H           -2.21936440341171        2.71891946667629        1.00258521714033
H           -1.01209284699953       -3.26522201127685        0.70914165836633
H           -0.92302155208807       -3.22670583362597       -1.04575943338170
H           -2.47872363118618       -2.83983733176580       -0.17469209281768
H            1.28861794036788       -3.01577328156936        0.05301663493453
25
 energy: 128.311607960166 xtb: 6.6.1 (8d0f1dd)
C            3.09784721966904        1.14235207728124        0.21297937133424
N            2.24556591136585       -0.01423771957542        0.13353728357353
C            2.56033112718602       -1.31727318267567        0.08071945911402
N            1.39740571799097       -2.04733138618225        0.05235928970118
C            0.31202732243333       -1.19360579051393       -0.03133008050195
C            0.88348974843128        0.09192533503569        0.02912662450179
C            0.11591132368176        1.30430534882578        0.05782381023920
O            0.54709786293971        2.44301721333785       -0.00763493548222
N           -1.20413797896135        1.01203999217990        0.22719683108151
C           -2.26355889831599        3.00850371904547       -0.05513778222233
C           -2.03313838788861        0.06163472284613       -0.00942491851211
O           -3.19505086328122        0.21585420995451       -0.11035668916674
N           -0.98716794066258       -1.42588504846512       -0.21055869601400
C           -1.37025673804072       -2.78569049681322       -0.24380319814121
H            3.80466492943243        1.04692205366431        1.04054872593504
H            3.61154326704592        1.30278741838461       -0.74344418476873
H            2.47098346195126        2.02138471693558        0.42138820553131
H            3.51074912045823       -1.75383195842217        0.32791906120743
H           -1.74783340377664        2.38685336459841       -0.62643787803638
H           -3.13768534849742        2.61363124749820        0.15078966930906
H           -1.93580771698550        2.72781032882826        0.87956240126720
H           -1.00101958453872       -3.31858546077856        0.64645258923170
H           -0.90919840037842       -3.23086108195357       -1.12285977153385
H           -2.45709585304264       -2.84920916908064       -0.22426552949255
H            1.33936114387625       -3.04549912679396        0.02975786408341
25
 energy: 133.448303886202 xtb: 6.6.1 (8d0f1dd)
C            3.07049433868266        1.14077006745404        0.22778209119234
N            2.23392432496060       -0.03149574986367        0.13812842566040
C            2.56558182180212       -1.32108949391157        0.09658502305299
N            1.42861770101246       -2.07388047126414        0.03356199943869
C            0.31970899730433       -1.23914639405919       -0.03766920179557
C            0.87728685695858        0.06002928938241        0.02430470281980
C            0.11640073058326        1.26374546300022        0.03337603181019
O            0.54062588262054        2.40347487905439       -0.07010622057964
N           -1.19696511601009        0.97025665785166        0.20990317000004
C           -2.33505780725292        2.99889344602695       -0.09913706470164
C           -2.09860901537893        0.14011972611984       -0.02108372624069
O           -3.25401423021997        0.32967857150597       -0.12131354858698
N           -0.95425982110631       -1.47392134734124       -0.23566600222217
C           -1.34930854114235       -2.82384408280260       -0.27806626773792
H            3.73195849331202        1.08019192246314        1.08763174721250
H            3.62486668965591        1.28993343735210       -0.70953466917115
H            2.43692813352987        2.01355878987534        0.42109943332531
H            3.50644903166153       -1.74535131040760        0.39190189110566
H           -2.25091835748920        2.22144743267982       -0.71415341550890
H           -3.01492077177076        2.81415432498763        0.62464264773761
H           -1.58243792044643        2.78115116345049        0.49952345431943
H           -0.99403273504008       -3.36210974689043        0.60408001047620
H           -0.87924138204691       -3.23373351322252       -1.17202051785565
H           -2.43923777657957       -2.87147274976659       -0.28286853756905
H            1.37352081109077       -3.07248161054920       -0.00142694390030
25
 energy: 127.732757073870 xtb: 6.6.1 (8d0f1dd)
C            3.07770242252274        1.12996050573731        0.24765004224231
N            2.23614364864396       -0.04060353107244        0.12443721175406
C            2.57999655164377       -1.32126845775793        0.10178405831147
N            1.46146905948982       -2.09360539518127        0.01623895325279
C            0.33408273101747       -1.26936677404029       -0.04009412725824
C            0.87724349513691        0.03447215824130        0.02221707311361
C            0.10276812166423        1.22727402495343        0.01992631817753
O            0.52605682075517        2.36592308553289       -0.10811857012092
N           -1.20729241396903        0.94910915512691        0.17665807770376
C           -2.45938668825279        3.00658096407037       -0.08998928411360
C           -2.15710813030087        0.18797558094998       -0.05603568845122
O           -3.30078125402231        0.44854354099221       -0.11181297481775
N           -0.92568565562101       -1.52043686145307       -0.25736874495162
C           -1.32544905460829       -2.87607783098746       -0.29413241801543
H            3.67068364201809        1.10832530142920        1.15574554509341
H            3.69150938206029        1.23722543756372       -0.65659778651378
H            2.43705948312747        2.00999704871244        0.33627340404121
H            3.50800757480202       -1.73242776143870        0.43657319059093
H           -2.62344745174831        2.13669568170582       -0.62914062199438
H           -2.74472479024941        2.82856134829254        0.86258628529135
H           -1.46697558664334        2.93331896821050        0.01983119735523
H           -0.98040623493743       -3.39562855294864        0.59851674963689
H           -0.83371503156050       -3.27062010219384       -1.17923679245186
H           -2.41796378330423       -2.90607260094019       -0.33411438027117
H            1.42796034768510       -3.09127735678121       -0.02099339749095
25
 energy: 129.575972039492 xtb: 6.6.1 (8d0f1dd)
C            3.06207892708521        1.11989244544997        0.23353026088085
N            2.23384946308585       -0.05128248303942        0.10264470040579
C            2.59541596252096       -1.32769723513740        0.11429468575790
N            1.48880340337559       -2.11367604317708       -0.00367771492470
C            0.35256738421614       -1.30109565486767       -0.03787144963756
C            0.87586593812390        0.00379569708150        0.00434492140182
C            0.07733597291290        1.18046023710025       -0.01308956440216
O            0.49106179549247        2.32247986669500       -0.14350533830496
N           -1.21939213763719        0.89560544586595        0.16365590457183
C           -2.47912860170612        2.96786082661440       -0.06672871765706
C           -2.19395282534910        0.14971235090629       -0.07119581867277
O           -3.30483461425490        0.56721715726940       -0.12544166437863
N           -0.89529006184580       -1.56734353284710       -0.27213193378202
C           -1.30578680641290       -2.92076427841206       -0.30649717348240
H            3.58670051156654        1.15621977136786        1.18854511914607
H            3.75132767648447        1.18893306842531       -0.61868081010982
H            2.42268179658432        2.00430835994163        0.22764358936557
H            3.50664686886065       -1.72364811931278        0.49010253063888
H           -2.80983750347131        2.10290919382256       -0.58178648699597
H           -2.60239305397217        2.91829926097478        0.94938075855882
H           -1.49105932496566        2.98924132527331       -0.25992084572905
H           -0.95781192116121       -3.43188187407996        0.59031821980494
H           -0.81034521711850       -3.32073222837526       -1.18431938215629
H           -2.39763447094458       -2.93649085442913       -0.37957660250709
H            1.47316000830898       -3.10952155982592       -0.01379383327252
25
 energy: 135.805902327583 xtb: 6.6.1 (8d0f1dd)
C            3.05070408543474        1.11143771929638        0.20236171234862
N            2.23686276763950       -0.06216548480433        0.07916524530370
C            2.60522441446411       -1.33266454820734        0.12313020489627
N            1.51052678152799       -2.12603547675931       -0.03971751217230
C            0.36353688539597       -1.32614024268994       -0.06043528669368
C            0.88215466332389       -0.01477406619478       -0.02170717123606
C            0.06466351718103        1.14881448508651       -0.04023393101441
O            0.45260970150873        2.30658470924330       -0.15107190852023
N           -1.22177978934845        0.82691578346391        0.12101289832625
C           -2.48428314000477        2.98061407289178       -0.08053134496189
C           -2.23538635031328        0.12914746138814       -0.09252671331411
O           -3.31104988667551        0.66445744884535       -0.13524317599759
N           -0.87414398500313       -1.61238956590973       -0.25586609231798
C           -1.29020672713898       -2.96400722534508       -0.30770848740315
H            3.50976408276057        1.19598528921647        1.18629608661044
H            3.80684499587829        1.13734511835142       -0.59377554473836
H            2.40725862870161        1.99661846993574        0.12061905048582
H            3.50865121452368       -1.72491783303992        0.51345055549162
H           -2.91933036392564        2.09792395945278       -0.55858668658715
H           -2.54905550478116        2.98957722470288        0.94634216809728
H           -1.51279267318496        3.03190976993492       -0.42732611760764
H           -0.93272878754953       -3.47429748103939        0.58691404142231
H           -0.79881658268601       -3.36572745553980       -1.18760632733537
H           -2.38062770549168       -2.96248637842274       -0.39209725700197
H            1.51120701107544       -3.12307848101884        0.00342270962047
25
 energy: 155.470726554093 xtb: 6.6.1 (8d0f1dd)
C            3.04222993190125        1.11601861524873        0.16730899781129
N            2.25402423122748       -0.07700580332165        0.05355451358427
C            2.62213427170148       -1.33959423042134        0.14086121812842
N            1.54223738064506       -2.14241707004379       -0.02554618102297
C            0.37670730189265       -1.35514247973152       -0.08284086841593
C            0.89800266101320       -0.03731605224252       -0.05171393490072
C            0.07744370745182        1.10559687628741       -0.04701507460947
O            0.39645469878944        2.28162147395134       -0.11263469213694
N           -1.19955534943900        0.71912789225999        0.09926212974286
C           -2.54973954837652        3.08854123499813       -0.15120526738822
C           -2.24541564977593        0.13988955958667       -0.11596776949117
O           -3.29914075512684        0.81342202533966       -0.24899753732433
N           -0.84116546116015       -1.67698380459764       -0.24480472109947
C           -1.27749725374514       -3.01879049650864       -0.30405253951812
H            3.45337345623464        1.23253114568764        1.15840464210170
H            3.84928792378016        1.11021057022328       -0.56339600355393
H            2.39938555085369        1.99014298599924        0.01744063244082
H            3.54453672895348       -1.72451696748123        0.47657802285064
H           -2.99911247129458        2.04169049894761       -0.44256286233897
H           -2.60183973802132        3.20625838109028        0.86626937465805
H           -1.54760293483616        3.06820885754679       -0.53444372550061
H           -0.92967038183138       -3.53687865510447        0.58836301839365
H           -0.80422022564673       -3.42728037013681       -1.19067027926951
H           -2.36726092974716       -3.01976538253299       -0.38940388186501
H            1.54763326028455       -3.13858170014543        0.03296493927832
25
 energy: 156.002588706007 xtb: 6.6.1 (8d0f1dd)
C            3.04313903983136        1.12532135753418        0.18454319629801
N            2.25543593275245       -0.07532439362693        0.07486636639221
C            2.62872601854053       -1.34215996940814        0.16265577151923
N            1.54478950105980       -2.14862813211101        0.01204627046764
C            0.40430148302022       -1.36643609686770       -0.09108804813703
C            0.90639025741133       -0.05195303085392       -0.06694500845783
C            0.02157559225088        1.07133341055205       -0.06309935301233
O            0.33756351279825        2.25692871457064       -0.11285857459910
N           -1.24223352712443        0.60969840504498        0.01476591923268
C           -2.61143040854848        3.06959094874313       -0.04025324803246
C           -1.98029770885974       -0.38449785652954       -0.17806705128745
O           -3.24731798104495        1.75742711006016       -0.00726800410585
N           -0.85358075862608       -1.69096660163797       -0.22892412056730
C           -1.27251963982949       -3.04987742362643       -0.29370645591079
H            3.45807979442031        1.24854233216585        1.16611009213798
H            3.83192994797821        1.13330731749296       -0.53847407006854
H            2.41406641172294        1.97716618199507        0.01670480015965
H            3.57080360115510       -1.72466120613954        0.42248948006189
H           -2.81851485719867        1.69978960827088       -0.80530814209556
H           -2.78046124787822        3.43370773200518        0.86523471694508
H           -1.63476577589560        3.10478998160671       -0.56766736879225
H           -0.93599443947102       -3.58150841806409        0.59203085172648
H           -0.81228723015819       -3.47156867183334       -1.18477562820728
H           -2.35906291750969       -3.06381644683923       -0.38714309813956
H            1.58641173437421       -3.14505346836743        0.05858799821381
25
 energy: 142.421895877001 xtb: 6.6.1 (8d0f1dd)
C            3.04869832275672        1.12584705620593        0.23328924696675
N            2.25869636805524       -0.07735825168693        0.10226380776479
C            2.64461218572691       -1.34145752769350        0.17411092818067
N            1.57060014344865       -2.15842348865470        0.02542900789320
C            0.42130308412697       -1.39261774127515       -0.10805129147330
C            0.90457197136821       -0.07118551637613       -0.05935749986763
C            0.00226877924586        1.02459845677082       -0.07013501997985
O            0.27259056332885        2.22239595243578       -0.09943121598587
N           -1.26527328198361        0.54733314949954       -0.03479840470634
C           -2.64269184603055        3.17472951779510       -0.09108073610340
C           -1.96671709896279       -0.48975879341168       -0.15899162186896
O           -3.24913328434764        1.89470127932243       -0.06243184634546
N           -0.83375306857001       -1.73641160308958       -0.22999996021963
C           -1.24838467802456       -3.09285681692470       -0.30393451716610
H            3.46911481748358        1.23698976274158        1.22540658327387
H            3.79824009501610        1.16058209229962       -0.51263180781371
H            2.45488709091896        1.98537268930644        0.07957173998977
H            3.60142147404822       -1.71132601256659        0.38809571049322
H           -2.58707054937089        1.66908757534948       -0.68129850785870
H           -2.93012525241313        3.60588739366738        0.78022064887599
H           -1.62461642045062        3.21406094764401       -0.54677630409119
H           -0.93180643103069       -3.61057055767947        0.59614466752854
H           -0.80221036656404       -3.53211205679136       -1.19121430461922
H           -2.33683198853073       -3.11534531272381       -0.39275256043952
H            1.63112957124917       -3.15450221678724        0.07498182557793
25
 energy: 129.151191007643 xtb: 6.6.1 (8d0f1dd)
C            3.05878289113723        1.12883304473550        0.27270091992798
N            2.26216667858767       -0.07552752193292        0.12948405543933
C            2.67031982511702       -1.33929281582142        0.16706123782736
N            1.59867606629584       -2.16518980619400        0.04080063017338
C            0.44471149355731       -1.41658955398546       -0.11350907666227
C            0.90047976726462       -0.08560670740537       -0.04480589805774
C           -0.02156580695796        0.97748786720358       -0.07762892466399
O            0.19896406966652        2.18712137112905       -0.08594797117944
N           -1.28758925890565        0.48118182976743       -0.10269632601453
C           -2.66577389676570        3.27224961986141       -0.08370238334219
C           -1.94081643241318       -0.58897498436512       -0.21127139979279
O           -3.25903732541994        2.01334543433059       -0.07664481135823
N           -0.81117732847514       -1.77920520588411       -0.21628416307201
C           -1.22342081171720       -3.13325866708242       -0.30507332350959
H            3.51401682973815        1.20878396778033        1.26326812640594
H            3.77936987876045        1.16185386279270       -0.50555669167481
H            2.46078053331005        1.98498363250443        0.09551811860314
H            3.63944078058975       -1.67805218708298        0.37764988556428
H           -2.49777771022676        1.63772674350023       -0.49296325096573
H           -3.09510204436683        3.77330157598202        0.69439513798705
H           -1.59785779576832        3.33429641897736       -0.40839871473590
H           -0.90974977333454       -3.65938030993210        0.59237987643710
H           -0.77945852742657       -3.54416491580225       -1.20181928830568
H           -2.31673325987922       -3.16330963541357       -0.38564302405935
H            1.63644448496036       -3.15810154348725        0.11736442971224
25