      -----------------------------------------------------------      
     |                   =====================                   |     
     |                           x T B                           |     
     |                   =====================                   |     
     |                         S. Grimme                         |     
     |          Mulliken Center for Theoretical Chemistry        |     
     |                    University of Bonn                     |     
      -----------------------------------------------------------      

   * xtb version 6.6.1 (8d0f1dd) compiled by 'conda@1efc2f54142f' on 2023-08-01

   xtb is free software: you can redistribute it and/or modify it under
   the terms of the GNU Lesser General Public License as published by
   the Free Software Foundation, either version 3 of the License, or
   (at your option) any later version.
   
   xtb is distributed in the hope that it will be useful,
   but WITHOUT ANY WARRANTY; without even the implied warranty of
   MERCHANTABILITY or FITNESS FOR A PARTICULAR PURPOSE.  See the
   GNU Lesser General Public License for more details.
   
   Cite this work as:
   * C. Bannwarth, E. Caldeweyher, S. Ehlert, A. Hansen, P. Pracht,
     J. Seibert, S. Spicher, S. Grimme, WIREs Comput. Mol. Sci., 2020, 11,
     e01493. DOI: 10.1002/wcms.1493
   
   for GFN2-xTB:
   * C. Bannwarth, S. Ehlert and S. Grimme., J. Chem. Theory Comput., 2019,
     15, 1652-1671. DOI: 10.1021/acs.jctc.8b01176
   for GFN1-xTB:
   * S. Grimme, C. Bannwarth, P. Shushkov, J. Chem. Theory Comput., 2017,
     13, 1989-2009. DOI: 10.1021/acs.jctc.7b00118
   for GFN0-xTB:
   * P. Pracht, E. Caldeweyher, S. Ehlert, S. Grimme, ChemRxiv, 2019, preprint.
     DOI: 10.26434/chemrxiv.8326202.v1
   for GFN-FF:
   * S. Spicher and S. Grimme, Angew. Chem. Int. Ed., 2020, 59, 15665-15673.
     DOI: 10.1002/anie.202004239
   
   for ALPB and GBSA implicit solvation:
   * S. Ehlert, M. Stahn, S. Spicher, S. Grimme, J. Chem. Theory Comput.,
     2021, 17, 4250-4261. DOI: 10.1021/acs.jctc.1c00471
   
   for DFT-D4:
   * E. Caldeweyher, C. Bannwarth and S. Grimme, J. Chem. Phys., 2017,
     147, 034112. DOI: 10.1063/1.4993215
   * E. Caldeweyher, S. Ehlert, A. Hansen, H. Neugebauer, S. Spicher,
     C. Bannwarth and S. Grimme, J. Chem. Phys., 2019, 150, 154122.
     DOI: 10.1063/1.5090222
   * E. Caldeweyher, J.-M. Mewes, S. Ehlert and S. Grimme, Phys. Chem. Chem. Phys.
     2020, 22, 8499-8512. DOI: 10.1039/D0CP00502A
   
   for sTDA-xTB:
   * S. Grimme and C. Bannwarth, J. Chem. Phys., 2016, 145, 054103.
     DOI: 10.1063/1.4959605
   
   in the mass-spec context:
   * V. Asgeirsson, C. Bauer and S. Grimme, Chem. Sci., 2017, 8, 4879.
     DOI: 10.1039/c7sc00601b
   * J. Koopman and S. Grimme, ACS Omega 2019, 4, 12, 15120-15133.
     DOI: 10.1021/acsomega.9b02011
   
   for metadynamics refer to:
   * S. Grimme, J. Chem. Theory Comput., 2019, 155, 2847-2862
     DOI: 10.1021/acs.jctc.9b00143
   
   for SPH calculations refer to:
   * S. Spicher and S. Grimme, J. Chem. Theory Comput., 2021, 17, 1701-1714
     DOI: 10.1021/acs.jctc.0c01306
   
   with help from (in alphabetical order)
   P. Atkinson, C. Bannwarth, F. Bohle, G. Brandenburg, E. Caldeweyher
   M. Checinski, S. Dohm, S. Ehlert, S. Ehrlich, I. Gerasimov, C. Hölzer
   A. Katbashev, J. Koopman, C. Lavigne, S. Lehtola, F. März, M. Müller,
   F. Musil, H. Neugebauer, J. Pisarek, C. Plett, P. Pracht, F. Pultar,
   J. Seibert, P. Shushkov, S. Spicher, M. Stahn, M. Steiner, T. Strunk,
   J. Stückrath, T. Rose, and J. Unsleber
   
 * started run on 2024/06/05 at 19:58:06.163     

           -------------------------------------------------
          |                Calculation Setup                |
           -------------------------------------------------

          program call               : xtb struc.xyz --opt loose --input .xc1 --gfn2
          hostname                   : n-62-21-70
          coordinate file            : struc.xyz
          omp threads                :                     1

   ID    Z sym.   atoms
    1    6 C      1, 3, 5-7, 10, 11, 14
    2    7 N      2, 4, 9, 13
    3    8 O      8, 12
    4    1 H      15-25
constraining bond 11 19 to    3.7133300 Å, actual value:    3.2966745 Å

           -------------------------------------------------
          |                 G F N 2 - x T B                 |
           -------------------------------------------------

        Reference                      10.1021/acs.jctc.8b01176
      * Hamiltonian:
        H0-scaling (s, p, d)           1.850000    2.230000    2.230000
        zeta-weighting                 0.500000
      * Dispersion:
        s8                             2.700000
        a1                             0.520000
        a2                             5.000000
        s9                             5.000000
      * Repulsion:
        kExp                           1.500000    1.000000
        rExp                           1.000000
      * Coulomb:
        alpha                          2.000000
        third order                    shell-resolved
        anisotropic                    true
        a3                             3.000000
        a5                             4.000000
        cn-shift                       1.200000
        cn-exp                         4.000000
        max-rad                        5.000000


          ...................................................
          :                      SETUP                      :
          :.................................................:
          :  # basis functions                  67          :
          :  # atomic orbitals                  67          :
          :  # shells                           39          :
          :  # electrons                        74          :
          :  max. iterations                   250          :
          :  Hamiltonian                  GFN2-xTB          :
          :  restarted?                      false          :
          :  GBSA solvation                  false          :
          :  PC potential                    false          :
          :  electronic temp.         5000.0000000     K    :
          :  accuracy                    1.0000000          :
          :  -> integral cutoff          0.2500000E+02      :
          :  -> integral neglect         0.1000000E-07      :
          :  -> SCF convergence          0.1000000E-05 Eh   :
          :  -> wf. convergence          0.1000000E-03 e    :
          :  Broyden damping             0.4000000          :
          ...................................................

 iter      E             dE          RMSdq      gap      omega  full diag
   1    -42.5894031 -0.425894E+02  0.445E+00    3.52       0.0  T
   2    -42.7683054 -0.178902E+00  0.251E+00    3.36       1.0  T
   3    -42.7759211 -0.761567E-02  0.147E+00    3.35       1.0  T
   4    -42.7728404  0.308066E-02  0.553E-01    3.33       1.0  T
   5    -42.7789548 -0.611444E-02  0.112E-01    3.35       1.0  T
   6    -42.7790473 -0.924914E-04  0.614E-02    3.33       1.0  T
   7    -42.7790721 -0.247928E-04  0.258E-02    3.34       1.0  T
   8    -42.7790772 -0.508996E-05  0.938E-03    3.34       2.1  T
   9    -42.7790779 -0.669422E-06  0.448E-03    3.34       4.5  T
  10    -42.7790780 -0.821511E-07  0.115E-03    3.34      17.4  T
  11    -42.7790780 -0.322662E-08  0.553E-04    3.34      36.2  T
  12    -42.7790780 -0.287052E-08  0.180E-04    3.34     111.1  T

   *** convergence criteria satisfied after 12 iterations ***

         #    Occupation            Energy/Eh            Energy/eV
      -------------------------------------------------------------
         1        2.0000           -0.9185990             -24.9964
       ...           ...                  ...                  ...
        31        1.9996           -0.6230278             -16.9534
        32        1.9995           -0.6194601             -16.8564
        33        1.9979           -0.5974976             -16.2587
        34        1.9932           -0.5789629             -15.7544
        35        1.9817           -0.5631863             -15.3251
        36        1.9779           -0.5602245             -15.2445
        37        1.9748           -0.5581234             -15.1873 (HOMO)
        38        0.0652           -0.4353579             -11.8467 (LUMO)
        39        0.0099           -0.4050467             -11.0219
        40        0.0013           -0.3732218             -10.1559
        41        0.0000           -0.2886859              -7.8555
        42                         -0.2065804              -5.6213
       ...                                ...                  ...
        67                          0.5625656              15.3082
      -------------------------------------------------------------
                  HL-Gap            0.1227656 Eh            3.3406 eV
             Fermi-level           -0.4890455 Eh          -13.3076 eV

 SCC (total)                   0 d,  0 h,  0 min,  0.038 sec
 SCC setup                      ...        0 min,  0.000 sec (  0.693%)
 Dispersion                     ...        0 min,  0.000 sec (  0.907%)
 classical contributions        ...        0 min,  0.000 sec (  0.262%)
 integral evaluation            ...        0 min,  0.006 sec ( 16.326%)
 iterations                     ...        0 min,  0.018 sec ( 47.427%)
 molecular gradient             ...        0 min,  0.013 sec ( 33.929%)
 printout                       ...        0 min,  0.000 sec (  0.422%)

         :::::::::::::::::::::::::::::::::::::::::::::::::::::
         ::                     SUMMARY                     ::
         :::::::::::::::::::::::::::::::::::::::::::::::::::::
         :: total energy             -43.487745200470 Eh    ::
         :: gradient norm              4.453359881551 Eh/a0 ::
         :: HOMO-LUMO gap              3.340621582928 eV    ::
         ::.................................................::
         :: SCC energy               -42.779077977399 Eh    ::
         :: -> isotropic ES            0.141123876439 Eh    ::
         :: -> anisotropic ES         -0.005230418907 Eh    ::
         :: -> anisotropic XC          0.011966818540 Eh    ::
         :: -> dispersion             -0.022657731803 Eh    ::
         :: repulsion energy           0.531105277918 Eh    ::
         :: add. restraining          -1.239886659999 Eh    ::
         :: total charge               1.000000000002 e     ::
         :::::::::::::::::::::::::::::::::::::::::::::::::::::

      ----------------------------------------------------------- 
     |                   =====================                   |
     |                        A N C O P T                        |
     |                   =====================                   |
     |               Approximate Normal Coordinate               |
     |                Rational Function Optimizer                |
      ----------------------------------------------------------- 

          ...................................................
          :                      SETUP                      :
          :.................................................:
          :   optimization level             loose          :
          :   max. optcycles                   200          :
          :   ANC micro-cycles                  20          :
          :   degrees of freedom                69          :
          :.................................................:
          :   RF solver                   davidson          :
          :   write xtbopt.log                true          :
          :   linear?                        false          :
          :   energy convergence         0.5000000E-04 Eh   :
          :   grad. convergence          0.4000000E-02 Eh/α :
          :   maxmium RF displ.          1.0000000          :
          :   Hlow (freq-cutoff)         0.1000000E-01      :
          :   Hmax (freq-cutoff)         5.0000000          :
          :   S6 in model hess.         20.0000000          :
          ...................................................

generating ANC from model Hessian ...
Using Lindh-Hessian (1995)
 Shifting diagonal of input Hessian by    7.2560616034061516     
 Lowest  eigenvalues of input Hessian
    0.010000    0.000000    0.000000    0.000000    0.000000    0.000000
    0.000000    7.259031    7.260325    7.265444    7.266244    7.267180
    7.269592    7.272254    7.274638    7.280842    7.293534    7.297039
 Highest eigenvalues
    9.345497    9.406658    9.473885    9.578565    9.684873   10.130260


........................................................................
.............................. CYCLE    1 ..............................
........................................................................

 iter      E             dE          RMSdq      gap      omega  full diag
   1    -42.7790780 -0.427791E+02  0.626E-05    3.34       0.0  T
   2    -42.7790780 -0.124203E-10  0.329E-05    3.34     607.4  T
   3    -42.7790780  0.106581E-12  0.193E-05    3.34    1034.2  T
     SCC iter.                  ...        0 min,  0.005 sec
     gradient                   ...        0 min,  0.013 sec
 * total energy  :   -43.4877452 Eh     change       -0.6650680E-10 Eh
   gradient norm :     4.4533601 Eh/α   predicted     0.0000000E+00 (-100.00%)
   displ. norm   :     0.9978574 α      lambda       -0.4432805E+01
   maximum displ.:     0.9969491 α      in ANC's #1, #10, #9, ...

........................................................................
.............................. CYCLE    2 ..............................
........................................................................

 iter      E             dE          RMSdq      gap      omega  full diag
   1    -42.7180503 -0.427181E+02  0.149E+00    3.00       0.0  T
   2    -42.7402136 -0.221633E-01  0.112E+00    2.39       1.0  T
   3    -42.7494160 -0.920236E-02  0.568E-01    2.68       1.0  T
   4    -42.7494144  0.162478E-05  0.237E-01    2.57       1.0  T
   5    -42.7501279 -0.713591E-03  0.543E-02    2.61       1.0  T
   6    -42.7501720 -0.440283E-04  0.244E-02    2.62       1.0  T
   7    -42.7501751 -0.315511E-05  0.110E-02    2.62       1.8  T
   8    -42.7501762 -0.110545E-05  0.184E-03    2.63      10.9  T
   9    -42.7501763 -0.413240E-07  0.835E-04    2.63      23.9  T
  10    -42.7501763 -0.215593E-08  0.364E-04    2.63      55.0  T
     SCC iter.                  ...        0 min,  0.014 sec
     gradient                   ...        0 min,  0.014 sec
 * total energy  :   -51.6057991 Eh     change       -0.8118054E+01 Eh
   gradient norm :    11.6715413 Eh/α   predicted    -0.4429271E+01 ( -45.44%)
   displ. norm   :     0.9990449 α      lambda       -0.1165773E+02
   maximum displ.:     0.9978128 α      in ANC's #1, #10, #2, ...

........................................................................
.............................. CYCLE    3 ..............................
........................................................................

 iter      E             dE          RMSdq      gap      omega  full diag
   1    -42.5136733 -0.425137E+02  0.179E+00    2.34       0.0  T
   2    -42.5157547 -0.208141E-02  0.194E+00    1.13       1.0  T
   3    -42.5853703 -0.696156E-01  0.802E-01    2.04       1.0  T
   4    -42.5823099  0.306033E-02  0.595E-01    1.68       1.0  T
   5    -42.5875111 -0.520113E-02  0.142E-01    1.90       1.0  T
   6    -42.5877927 -0.281683E-03  0.538E-02    1.93       1.0  T
   7    -42.5878280 -0.352454E-04  0.233E-02    1.94       1.0  T
   8    -42.5878331 -0.512976E-05  0.842E-03    1.94       2.4  T
   9    -42.5878337 -0.613526E-06  0.275E-03    1.95       7.3  T
  10    -42.5878338 -0.106890E-06  0.111E-03    1.94      18.0  T
  11    -42.5878338 -0.240094E-08  0.415E-04    1.94      48.1  T
  12    -42.5878338 -0.140429E-08  0.191E-04    1.94     104.7  T
     SCC iter.                  ...        0 min,  0.016 sec
     gradient                   ...        0 min,  0.013 sec
 * total energy  :   -66.4899713 Eh     change       -0.1488417E+02 Eh
   gradient norm :    18.4905367 Eh/α   predicted    -0.1164665E+02 ( -21.75%)
   displ. norm   :     0.9954072 α      lambda       -0.1838239E+02
   maximum displ.:     0.9793158 α      in ANC's #1, #2, #14, ...

........................................................................
.............................. CYCLE    4 ..............................
........................................................................

 iter      E             dE          RMSdq      gap      omega  full diag
   1    -42.3725371 -0.423725E+02  0.177E+00    1.68       0.0  T
   2    -42.3734327 -0.895640E-03  0.120E+00    1.32       1.0  T
   3    -42.3398812  0.335516E-01  0.105E+00    2.13       1.0  T
   4    -42.3800903 -0.402092E-01  0.167E-01    1.55       1.0  T
   5    -42.3799746  0.115747E-03  0.921E-02    1.52       1.0  T
   6    -42.3802239 -0.249318E-03  0.225E-02    1.55       1.0  T
   7    -42.3802256 -0.168239E-05  0.108E-02    1.55       1.9  T
   8    -42.3802262 -0.648149E-06  0.530E-03    1.55       3.8  T
   9    -42.3802267 -0.473946E-06  0.151E-03    1.55      13.2  T
  10    -42.3802267 -0.165675E-07  0.828E-04    1.55      24.1  T
  11    -42.3802267 -0.553994E-08  0.327E-04    1.55      61.2  T
     SCC iter.                  ...        0 min,  0.015 sec
     gradient                   ...        0 min,  0.014 sec
 * total energy  :   -88.9007307 Eh     change       -0.2241076E+02 Eh
   gradient norm :    26.6961086 Eh/α   predicted    -0.1830073E+02 ( -18.34%)
   displ. norm   :     0.9955416 α      lambda       -0.2655698E+02
   maximum displ.:     0.9724908 α      in ANC's #1, #2, #13, ...

........................................................................
.............................. CYCLE    5 ..............................
........................................................................

 iter      E             dE          RMSdq      gap      omega  full diag
   1    -42.0802938 -0.420803E+02  0.260E+00    0.25       0.0  T
   2    -41.7712325  0.309061E+00  0.341E+00    0.06       1.0  T
   3    -42.0005287 -0.229296E+00  0.216E+00    1.05       1.0  T
   4    -42.0807121 -0.801834E-01  0.174E+00    0.49       1.0  T
   5    -42.1724830 -0.917709E-01  0.526E-01    0.11       1.0  T
   6    -42.1794035 -0.692052E-02  0.213E-01    0.13       1.0  T
   7    -42.1801555 -0.752038E-03  0.829E-02    0.16       1.0  T
   8    -42.1802365 -0.809646E-04  0.454E-02    0.16       1.0  T
   9    -42.1802483 -0.117971E-04  0.238E-02    0.16       1.0  T
  10    -42.1802629 -0.145556E-04  0.100E-02    0.17       2.0  T
  11    -42.1802664 -0.352640E-05  0.331E-03    0.17       6.0  T
  12    -42.1802665 -0.126422E-06  0.161E-03    0.17      12.5  T
  13    -42.1802666 -0.554922E-07  0.699E-04    0.17      28.6  T
  14    -42.1802666 -0.124259E-07  0.162E-04    0.17     123.2  T
     SCC iter.                  ...        0 min,  0.019 sec
     gradient                   ...        0 min,  0.013 sec
 * total energy  :  -116.5566889 Eh     change       -0.2765596E+02 Eh
   gradient norm :    23.5831860 Eh/α   predicted    -0.2643884E+02 (  -4.40%)
   displ. norm   :     0.9809056 α      lambda       -0.2312930E+02
   maximum displ.:     0.8898686 α      in ANC's #1, #25, #2, ...

........................................................................
.............................. CYCLE    6 ..............................
........................................................................

 iter      E             dE          RMSdq      gap      omega  full diag
   1    -42.3284253 -0.423284E+02  0.226E+00    0.41       0.0  T
   2    -42.3094264  0.189990E-01  0.152E+00    0.33       1.0  T
   3    -42.0727520  0.236674E+00  0.270E+00    0.09       1.0  T
   4    -42.3575801 -0.284828E+00  0.483E-01    0.38       1.0  T
   5    -42.3598062 -0.222610E-02  0.208E-01    0.42       1.0  T
   6    -42.3606178 -0.811573E-03  0.499E-02    0.42       1.0  T
   7    -42.3606471 -0.292729E-04  0.216E-02    0.42       1.0  T
   8    -42.3606510 -0.396185E-05  0.102E-02    0.42       2.0  T
   9    -42.3606520 -0.954724E-06  0.575E-03    0.42       3.5  T
  10    -42.3606527 -0.754094E-06  0.187E-03    0.42      10.7  T
  11    -42.3606528 -0.452390E-07  0.684E-04    0.42      29.2  T
  12    -42.3606528 -0.229427E-08  0.317E-04    0.42      63.1  T
     SCC iter.                  ...        0 min,  0.016 sec
     gradient                   ...        0 min,  0.013 sec
 * total energy  :  -118.5972313 Eh     change       -0.2040542E+01 Eh
   gradient norm :    20.1299382 Eh/α   predicted    -0.2269199E+02 (1012.06%)
   displ. norm   :     0.5795654 α      lambda       -0.9154908E+01
   maximum displ.:     0.3733096 α      in ANC's #1, #2, #13, ...

........................................................................
.............................. CYCLE    7 ..............................
........................................................................

 iter      E             dE          RMSdq      gap      omega  full diag
   1    -42.2947013 -0.422947E+02  0.132E+00    0.39       0.0  T
   2    -42.1767175  0.117984E+00  0.198E+00    0.08       1.0  T
   3    -42.2928710 -0.116153E+00  0.111E+00    0.41       1.0  T
   4    -42.3154812 -0.226102E-01  0.709E-01    0.25       1.0  T
   5    -42.3264362 -0.109550E-01  0.382E-01    0.33       1.0  T
   6    -42.3296304 -0.319413E-02  0.156E-01    0.37       1.0  T
   7    -42.3303877 -0.757338E-03  0.355E-02    0.34       1.0  T
   8    -42.3304222 -0.345190E-04  0.122E-02    0.34       1.6  T
   9    -42.3304224 -0.135327E-06  0.668E-03    0.34       3.0  T
  10    -42.3304231 -0.761468E-06  0.260E-03    0.34       7.7  T
  11    -42.3304232 -0.109345E-06  0.755E-04    0.34      26.5  T
  12    -42.3304232  0.249018E-08  0.505E-04    0.34      39.6  T
     SCC iter.                  ...        0 min,  0.017 sec
     gradient                   ...        0 min,  0.013 sec
================
 final structure:
================
25
 xtb: 6.6.1 (8d0f1dd)
C            3.21786164340000        1.13591514650000        0.01837059260000
N            2.27034809790000        0.05199982890000        0.00038279530000
C            2.54167221030000       -1.23971668410000       -0.00834188300000
N            1.39367826450000       -1.95088267900000       -0.00850347120000
C            0.35269634020000       -1.06748964300000        0.00059917290000
C            0.90759959010000        0.20069750900000        0.00663590170000
C            0.07590235260000        1.39864294500000       -0.00284827040000
O            0.48715076820000        2.53168346660000       -0.01725767220000
N           -1.27221500230000        1.06666939660000        0.00165480230000
C           -2.23229981500000        2.16656245330000       -0.00245172030000
C           -1.84872931540000       -0.19179276200000        0.00496135950000
O           -3.03273030250000       -0.36103538130000        0.00858583760000
N           -0.96599111670000       -1.30060631840000        0.00174701630000
C           -1.52030655580000       -2.64076660390000       -0.00239033190000
H            3.71480285180000        1.18589984860000        0.98803183970000
H            3.97079415090000        0.99383197990000       -0.75543416370000
H            2.68321036910000        2.07051068580000       -0.15067179540000
H            3.52469367910000       -1.66989040330000       -0.01523639120000
H           -1.67672429040000        3.10039111610000        0.00486339690000
H           -2.85755792270000        2.10547813320000       -0.89185337000000
H           -2.87119733260000        2.09858159720000        0.87661144540000
H           -1.20589108080000       -3.18768007210000        0.88663215920000
H           -1.21982032550000       -3.17678505510000       -0.90288069810000
H           -2.60531402170000       -2.54255916880000        0.00649952960000
H            1.32879827740000       -2.95942079410000       -0.01653446370000

 Bond Distances (Angstroems)
 ---------------------------
C1-N2=1.4398         C1-H15=1.0907        C1-H16=1.0890        C1-H17=1.0899        N2-C1=1.4398         N2-C3=1.3199         
N2-C6=1.3709         C3-N2=1.3199         C3-N4=1.3504         C3-H18=1.0730        N4-C3=1.3504         N4-C5=1.3653         
N4-H25=1.0107        C5-N4=1.3653         C5-C6=1.3843         C5-N13=1.3391        C6-N2=1.3709         C6-C5=1.3843         
C6-C7=1.4584         C7-C6=1.4584         C7-O8=1.2055         C7-N9=1.3884         O8-C7=1.2055         N9-C7=1.3884         
N9-C10=1.4600        N9-C11=1.3842        C10-N9=1.4600        C10-H19=1.0866       C10-H20=1.0889       C10-H21=1.0888       
C11-N9=1.3842        C11-O12=1.1960       C11-N13=1.4173       O12-C11=1.1960       N13-C5=1.3391        N13-C11=1.4173       
N13-C14=1.4503       C14-N13=1.4503       C14-H22=1.0901       C14-H23=1.0902       C14-H24=1.0895       H15-C1=1.0907        
H16-C1=1.0890        H17-C1=1.0899        H18-C3=1.0730        H19-C10=1.0866       H20-C10=1.0889       H21-C10=1.0888       
H22-C14=1.0901       H23-C14=1.0902       H24-C14=1.0895       H25-N4=1.0107        
 C  H  Rav=1.0877 sigma=0.0050  Rmin=1.0730  Rmax=1.0907    10
 C  C  Rav=1.4213 sigma=0.0370  Rmin=1.3843  Rmax=1.4584     2
 N  H  Rav=1.0107 sigma=0.0000  Rmin=1.0107  Rmax=1.0107     1
 N  C  Rav=1.3896 sigma=0.0445  Rmin=1.3199  Rmax=1.4600    11
 O  C  Rav=1.2007 sigma=0.0047  Rmin=1.1960  Rmax=1.2055     2

 selected bond angles (degree)
 --------------------
H15-C1-N2=110.21               H16-C1-N2=110.36               H16-C1-H15=108.82              H17-C1-N2=108.71               
H17-C1-H15=108.79              H17-C1-H16=109.93              C3-N2-C1=126.98                C6-N2-C1=124.92                
C6-N2-C3=108.09                N4-C3-N2=109.91                H18-C3-N2=125.50               H18-C3-N4=124.59               
C5-N4-C3=107.90                H25-N4-C3=125.46               H25-N4-C5=126.64               C6-C5-N4=106.69                
N13-C5-N4=129.66               N13-C5-C6=123.66               C5-C6-N2=107.40                C7-C6-N2=130.99                
C7-C6-C5=121.59                O8-C7-C6=125.28                N9-C7-C6=110.94                N9-C7-O8=123.78                
C10-N9-C7=117.28               C11-N9-C7=128.45               C11-N9-C10=114.27              H19-C10-N9=108.13              
H20-C10-N9=109.73              H20-C10-H19=110.32             H21-C10-N9=109.67              H21-C10-H19=110.38             
H21-C10-H20=108.60             

 selected dihedral angles (degree)
 ---------------------------------
C3-N2-C1-H15=289.54           C3-N2-C1-H16= 49.76           C3-N2-C1-H17=170.39           C6-N2-C1-H15=108.66           
C6-N2-C1-H16=228.88           C6-N2-C1-H17=349.51           N4-C3-N2-C1=179.26            N4-C3-N2-C6=  0.00            
H18-C3-N2-C1=359.21           H18-C3-N2-C6=179.97           C5-N4-C3-N2=  0.00            C5-N4-C3-H18=180.05           
H25-N4-C3-N2=179.85           H25-N4-C3-H18=359.90          C6-C5-N4-C3=  0.00            C6-C5-N4-H25=180.14           
N13-C5-N4-C3=179.88           N13-C5-N4-H25=  0.03          C5-C6-N2-C1=180.71            C5-C6-N2-C3=359.97            
C7-C6-N2-C1=  1.78            C7-C6-N2-C3=181.03            N2-C6-C5-N4=  0.03            N2-C6-C5-N13=180.13           
C7-C6-C5-N4=179.08            C7-C6-C5-N13=359.18           O8-C7-C6-N2=359.91            O8-C7-C6-C5=181.10            
N9-C7-C6-N2=179.67            N9-C7-C6-C5=  0.86            C10-N9-C7-C6=179.81           C10-N9-C7-O8=359.58           
C11-N9-C7-C6=359.56           C11-N9-C7-O8=179.33           H19-C10-N9-C7=359.25          H19-C10-N9-C11=179.46         
H20-C10-N9-C7=119.63          H20-C10-N9-C11=299.84         H21-C10-N9-C7=238.84          H21-C10-N9-C11= 59.06         
           -------------------------------------------------
          |                Final Singlepoint                |
           -------------------------------------------------

          ...................................................
          :                      SETUP                      :
          :.................................................:
          :  # basis functions                  67          :
          :  # atomic orbitals                  67          :
          :  # shells                           39          :
          :  # electrons                        74          :
          :  max. iterations                   250          :
          :  Hamiltonian                  GFN2-xTB          :
          :  restarted?                      false          :
          :  GBSA solvation                  false          :
          :  PC potential                    false          :
          :  electronic temp.         5000.0000000     K    :
          :  accuracy                    1.0000000          :
          :  -> integral cutoff          0.2500000E+02      :
          :  -> integral neglect         0.1000000E-07      :
          :  -> SCF convergence          0.1000000E-05 Eh   :
          :  -> wf. convergence          0.1000000E-03 e    :
          :  Broyden damping             0.4000000          :
          ...................................................

 iter      E             dE          RMSdq      gap      omega  full diag
   1    -42.4891089 -0.424891E+02  0.315E+00    1.42       0.0  T
   2    -42.7283802 -0.239271E+00  0.216E+00    3.74       1.0  T
   3    -42.7759301 -0.475499E-01  0.117E+00    3.41       1.0  T
   4    -42.7762917 -0.361651E-03  0.550E-01    3.35       1.0  T
   5    -42.7789271 -0.263540E-02  0.157E-01    3.30       1.0  T
   6    -42.7790114 -0.842753E-04  0.777E-02    3.37       1.0  T
   7    -42.7790719 -0.604752E-04  0.353E-02    3.34       1.0  T
   8    -42.7790754 -0.356420E-05  0.147E-02    3.34       1.4  T
   9    -42.7790777 -0.231625E-05  0.708E-03    3.34       2.8  T
  10    -42.7790779 -0.179954E-06  0.284E-03    3.34       7.1  T
  11    -42.7790780 -0.563036E-07  0.858E-04    3.34      23.3  T
  12    -42.7790780 -0.470289E-08  0.332E-04    3.34      60.3  T

   *** convergence criteria satisfied after 12 iterations ***

         #    Occupation            Energy/Eh            Energy/eV
      -------------------------------------------------------------
         1        2.0000           -0.9186005             -24.9964
       ...           ...                  ...                  ...
        31        1.9996           -0.6230274             -16.9534
        32        1.9995           -0.6194615             -16.8564
        33        1.9979           -0.5975015             -16.2588
        34        1.9932           -0.5789648             -15.7544
        35        1.9817           -0.5631876             -15.3251
        36        1.9779           -0.5602279             -15.2446
        37        1.9748           -0.5581255             -15.1874 (HOMO)
        38        0.0652           -0.4353595             -11.8467 (LUMO)
        39        0.0099           -0.4050493             -11.0220
        40        0.0013           -0.3732243             -10.1560
        41        0.0000           -0.2886895              -7.8556
        42                         -0.2065823              -5.6214
       ...                                ...                  ...
        67                          0.5625628              15.3081
      -------------------------------------------------------------
                  HL-Gap            0.1227660 Eh            3.3406 eV
             Fermi-level           -0.4890475 Eh          -13.3077 eV

 SCC (total)                   0 d,  0 h,  0 min,  0.035 sec
 SCC setup                      ...        0 min,  0.000 sec (  0.553%)
 Dispersion                     ...        0 min,  0.000 sec (  0.557%)
 classical contributions        ...        0 min,  0.000 sec (  0.203%)
 integral evaluation            ...        0 min,  0.005 sec ( 14.262%)
 iterations                     ...        0 min,  0.016 sec ( 47.069%)
 molecular gradient             ...        0 min,  0.013 sec ( 36.943%)
 printout                       ...        0 min,  0.000 sec (  0.376%)

         :::::::::::::::::::::::::::::::::::::::::::::::::::::
         ::                     SUMMARY                     ::
         :::::::::::::::::::::::::::::::::::::::::::::::::::::
         :: total energy             -43.487745199941 Eh    ::
         :: gradient norm              4.453359830463 Eh/a0 ::
         :: HOMO-LUMO gap              3.340632515148 eV    ::
         ::.................................................::
         :: SCC energy               -42.779077976870 Eh    ::
         :: -> isotropic ES            0.141118063861 Eh    ::
         :: -> anisotropic ES         -0.005230511969 Eh    ::
         :: -> anisotropic XC          0.011966742260 Eh    ::
         :: -> dispersion             -0.022657742626 Eh    ::
         :: repulsion energy           0.531105277918 Eh    ::
         :: add. restraining          -1.239886659999 Eh    ::
         :: total charge               1.000000000002 e     ::
         :::::::::::::::::::::::::::::::::::::::::::::::::::::


last geometry written to: xtblast.xyz

########################################################################
[ERROR] Program stopped due to fatal error
-5- Geometry optimization failed
-4- xtb_geoopt: Trying to recover from failed geometry optimization
-3- xtb_geoopt: Geometry optimization did not converge
-2- optimizer_ancopt: Could not relax structure
-1- optimizer_relax: |grad| > 500, something is totally wrong!
########################################################################
