72
 energy: 0.000000000000 xtb: 6.6.1 (8d0f1dd)
N           -1.47310921155849        2.74401293103706        2.22063921685122
C           -1.55658879776851        2.16490285539332        1.13274273951491
C           -2.74549199786261        2.05621232186130        0.23826248438941
C           -3.31377553111525        0.64333411542669        0.32332512650568
C           -4.30230156009016        0.24487110156316       -0.58026161703006
C           -4.85238763031941       -1.02286490450319       -0.53363588718165
O           -5.81419972815119       -1.48606034185536       -1.36157882725342
C           -6.39655633239252       -0.60827000183299       -2.29568474302620
C           -4.39972501531283       -1.94646102182611        0.44396929121966
O           -4.98748311285188       -3.16145997157803        0.41085992006324
C           -4.66362127904578       -4.10093827755394        1.40909127743729
C           -3.42072513477031       -1.54561384810496        1.33436546260297
C           -2.88302799614223       -0.26315800396994        1.27400150770375
C           -2.19303798107274        2.30467000305896       -1.18742977106749
C           -1.26651538239283        1.17243369445008       -1.65249429687285
C            0.01082524939134        1.09745454476277       -0.89354803499847
N            0.61779393476578       -0.02034948052406       -0.57705522512502
C            2.00145210352228       -0.02376006389122       -0.15611399603240
C            2.92554934655222       -0.53865282675074       -1.27700088804721
C            4.35756843073516       -0.43050757231754       -0.83075544324989
C            5.07346135469827        0.73206409086248       -1.03980965825901
C            6.38627986649936        0.84224441421807       -0.60344822702769
C            7.00047264773336       -0.20824756335880        0.05722314418200
O            8.26703657141718       -0.21011313101264        0.52410943644933
C            9.06912227848686        0.92943601033931        0.31863058007678
C            6.27039964270142       -1.40439753960823        0.28033466008274
O            6.94829939911432       -2.38012925705718        0.92751999079483
C            6.31537317745639       -3.61583200086742        1.15217711710877
C            4.96302794628964       -1.49347471867959       -0.16064430359178
C           -0.05511211367372       -1.29906247805359       -0.62085686319744
C           -3.86758037025447        3.07992600430699        0.58498060215443
C           -4.49286159663096        2.77383493050346        1.94313289484366
C           -3.39165179876499        4.52917666589254        0.54797523472093
H           -4.66030026466202        0.94509067363451       -1.31640568823548
H           -6.85037928558380        0.25803162192116       -1.80468845313260
H           -7.17287442604349       -1.18600110843259       -2.79318157561361
H           -5.66836817451085       -0.26952966318766       -3.04040255244073
H           -4.88416720672258       -3.71589460520039        2.40913542187496
H           -5.29223570620378       -4.96637458756866        1.20969236903657
H           -3.61139813139015       -4.39919835331056        1.35529357841967
H           -3.07077796610445       -2.21868765711333        2.10002662693138
H           -2.14562754426994        0.02067850696302        2.01001344383370
H           -3.02188875377605        2.38238012313952       -1.88813545054866
H           -1.65198530896729        3.25146700677685       -1.20556284570283
H           -1.81103374245520        0.23006524641044       -1.62116301628650
H           -0.99335688527853        1.37490212198123       -2.69443256973690
H           -0.67628064361333        1.65183887049447        0.61785727145403
H            0.63525841192517        1.98466369793744       -0.92314021190751
H            2.11132552493482       -0.65949692842762        0.72532613231274
H            2.30680473056284        0.98978251704176        0.11078972794250
H            2.76694198818247        0.06750735147374       -2.17075252200790
H            2.67954581369920       -1.57455627803457       -1.51167743520200
H            4.62169998552446        1.56295612048703       -1.56123579000624
H            6.92357674630170        1.75715815945204       -0.79119596719031
H            8.65159112996149        1.81001823324363        0.81701555159939
H            9.20136171144928        1.14042857828877       -0.74698991949293
H           10.03428838009630        0.69003240176163        0.76064937965836
H            7.05567174969094       -4.23621171795340        1.65347565939075
H            5.43848001056755       -3.50813558175093        1.79970565785717
H            6.02060041905269       -4.09420497120334        0.21253282636366
H            4.40102758497114       -2.40127266373392       -0.00490198249042
H           -0.22071299714579       -1.61775583601871       -1.65116008982042
H           -1.01972258008625       -1.24102717432227       -0.10935206830928
H            0.55899954147532       -2.04486085926761       -0.12333730421426
H           -4.63991875734388        2.95501092798550       -0.18098088071825
H           -3.76095216473977        2.90314704960906        2.73380821053058
H           -4.87457614030224        1.75695641518947        1.97884603101694
H           -5.31925552549014        3.45579210326349        2.12325564252114
H           -2.60025590131176        4.69225046143352        1.27368918226171
H           -3.03987406413880        4.81897652321898       -0.43870975059559
H           -4.22191740670577        5.18069648090034        0.80616693961239
H           -0.59832433787845        2.77744694953323        2.72958984441332
72
 energy: -6.232687809394 xtb: 6.6.1 (8d0f1dd)
N           -1.57078529753071        2.83992458558572        2.29896934224434
C           -1.59284737102879        2.13777714748377        1.25169615553098
C           -2.75620320563858        2.05074925414610        0.29986043325090
C           -3.34195015905838        0.64969311586484        0.35179938636538
C           -4.31335337540807        0.24413276721620       -0.56331058637929
C           -4.86510304077823       -1.02165440073369       -0.52736825942478
O           -5.82480323891924       -1.49183740614580       -1.37696602383530
C           -6.35865141818746       -0.62076295656939       -2.33671580661267
C           -4.44157931049693       -1.93715668434402        0.45652522062379
O           -5.04569145814029       -3.16220337461005        0.42418611651145
C           -4.73790063337657       -4.07034879192122        1.45101847119462
C           -3.48374251910166       -1.53067994452389        1.36370498986035
C           -2.93809917133413       -0.25585131230915        1.30967757164039
C           -2.18765863670293        2.29156570243746       -1.13358887289425
C           -1.26504616412191        1.17736382846487       -1.66800869848449
C            0.02458279443839        1.12182671917704       -0.93156463543658
N            0.64698337797754       -0.06155698201736       -0.56608486620097
C            2.02145236358615       -0.05713469416636       -0.17250043198782
C            2.96331246629634       -0.54339067275293       -1.30130154567000
C            4.38891326873454       -0.43386684672561       -0.86484612704563
C            5.10808606214496        0.73090238821959       -1.05873327179159
C            6.41367454939641        0.84665239210361       -0.60315936525120
C            7.02173801733499       -0.20515416039599        0.05796236241555
O            8.29671163503423       -0.20665398932685        0.53558581296932
C            9.08230508494030        0.93951691939348        0.32946534219951
C            6.29501724287713       -1.39663270125129        0.27359990941825
O            6.97158940837728       -2.38134810574799        0.92988703340620
C            6.32087097088879       -3.60474026988754        1.14555602508667
C            4.99585872434764       -1.49266922242063       -0.18794587192592
C           -0.02583780453569       -1.32987550506250       -0.63385855199699
C           -3.89325696098987        3.06492566758867        0.61227804634614
C           -4.55735848020776        2.78844535313351        1.94763031038453
C           -3.38442693914636        4.49945205007786        0.60504366429118
H           -4.61885398292551        0.92960208694859       -1.33330289388303
H           -6.80731685285836        0.26050346267621       -1.86576544093298
H           -7.13045142220510       -1.18983363256033       -2.85829616945393
H           -5.59644993056453       -0.29598999591969       -3.05130280286632
H           -4.96567725072741       -3.66041724357337        2.44219963937823
H           -5.35517625631833       -4.95455703526123        1.28398136388772
H           -3.67810420100433       -4.35143624444453        1.42094749559160
H           -3.14709867089195       -2.20252403727872        2.12760046437871
H           -2.19024622780143        0.03201511893689        2.02820658108494
H           -3.01925196666182        2.42016833802290       -1.82667820299443
H           -1.61976449504604        3.21950003763626       -1.13043750805557
H           -1.79252665529274        0.22778868478445       -1.61127759054082
H           -1.06492621623911        1.38857240385034       -2.73051595548276
H           -0.72331113773062        1.61542855229289        0.78858375321195
H            0.67958699654287        1.97246972958115       -1.06696298490559
H            2.15130014771209       -0.69200095613900        0.71516261131958
H            2.30619642527237        0.96084181904995        0.09376706199468
H            2.77750835696809        0.07927648595337       -2.17762079146414
H            2.72024833965976       -1.57648261226957       -1.55442498445447
H            4.65927267496747        1.56736658051982       -1.57000143770244
H            6.94594633845000        1.76778662983184       -0.77712532449106
H            8.65438966168136        1.82056537097056        0.82211326338306
H            9.20557758739303        1.15945228998629       -0.73639284225337
H           10.05241728791809        0.71173628800318        0.76683585120297
H            7.04117375403573       -4.23528714551559        1.66074970416521
H            5.43528735435905       -3.48873105022935        1.77960073651082
H            6.02750616938640       -4.08110173705455        0.20183574655180
H            4.43311639981182       -2.39994710522588       -0.03430828240869
H           -0.21053309206467       -1.65833171927069       -1.66573188956138
H           -0.98473492803172       -1.26681683714357       -0.12664295591645
H            0.57850119701240       -2.09470124269805       -0.14300578291901
H           -4.58750544215298        2.92946858039702       -0.21791882150639
H           -3.80116520076915        2.90274650507412        2.72636187049510
H           -4.95372004171145        1.77866451502150        1.97082393313478
H           -5.36949324554239        3.48962381058998        2.12064866794885
H           -2.55468488159710        4.60089310307257        1.29217806062241
H           -3.05879418297293        4.78085365133897       -0.39011117193890
H           -4.17223304851319        5.18130838426042        0.91794934606065
H           -0.71558304327129        2.80374409581580        2.85146706199402
72
 energy: -2.757110718321 xtb: 6.6.1 (8d0f1dd)
N           -1.68593591607277        2.89405074461281        2.39121436248094
C           -1.65397071171040        2.12782203311189        1.38157098799443
C           -2.76656662785380        2.03347782426865        0.36575111700402
C           -3.37655364339043        0.64660695017866        0.38477414572765
C           -4.32709069447024        0.23640154056153       -0.54830594610991
C           -4.88841329801682       -1.02467560710049       -0.52359318114855
O           -5.83061471279570       -1.49334310102674       -1.39819003942413
C           -6.31952792502712       -0.63074213902513       -2.38659540698134
C           -4.49027901732842       -1.93387640643980        0.47424488006572
O           -5.10278512451336       -3.15748370453787        0.44858278702468
C           -4.81553214433590       -4.04070699646594        1.50514343463068
C           -3.55060129981124       -1.52225098519229        1.39805590245344
C           -2.99574875683225       -0.25435306875087        1.35072459646869
C           -2.16663504692394        2.27770524451233       -1.06453017990574
C           -1.26894938459690        1.15645778876360       -1.64161887120132
C            0.05966028074513        1.09900865814220       -0.99360845996546
N            0.66940165219842       -0.08350657790437       -0.59203037041856
C            2.04505830513649       -0.08232605395110       -0.19742751512671
C            2.99833684011337       -0.54456161170100       -1.33124675976241
C            4.42421771791162       -0.43272627555636       -0.89430839169385
C            5.14567801591521        0.73251979521736       -1.07767637360159
C            6.44600807169616        0.85131281156095       -0.60674612969078
C            7.05086734334368       -0.20071961619482        0.05654820210919
O            8.32055655326417       -0.19937078529037        0.54549015760318
C            9.09811389024886        0.95316307280991        0.34179121098916
C            6.32424284039763       -1.39252165060888        0.26273809841719
O            6.99403015858561       -2.37881139052000        0.92355208057690
C            6.32716970661881       -3.59299506597457        1.13469568063037
C            5.03032124728321       -1.49121003877966       -0.21513400878810
C            0.00440997655423       -1.35793266457468       -0.67075240002667
C           -3.88522773924257        3.05983286223590        0.64644522971387
C           -4.62326544504705        2.81036931251562        1.94799014848289
C           -3.33867955142210        4.47909806857771        0.65405788741728
H           -4.58023844172806        0.90622342474453       -1.34859415373794
H           -6.76794555450001        0.26239302268700       -1.93761225850557
H           -7.08282894532665       -1.19557717029731       -2.92839818665890
H           -5.52552257732159       -0.32568865089331       -3.07265998806513
H           -5.05758034372653       -3.60833229353022        2.48504258557380
H           -5.42557910764353       -4.93587296410352        1.36455332584388
H           -3.75183566404573       -4.30819218622223        1.49503937275714
H           -3.23197963215873       -2.18805533103498        2.16926442758132
H           -2.24872545083201        0.03788013909740        2.06567659644495
H           -2.98953150443927        2.45533755459929       -1.75653936446700
H           -1.57545740427515        3.18874402079652       -1.03913538744596
H           -1.78696849140136        0.20528557219484       -1.55152816045318
H           -1.14396615226732        1.38580166081055       -2.71397719310090
H           -0.77344641159762        1.57996559633362        0.96882460246544
H            0.71749437880919        1.93169193484612       -1.21412059810480
H            2.17784551428438       -0.72322706505051        0.68884145009123
H            2.31977978613429        0.93442511381335        0.07241753014174
H            2.80442930439999        0.09018467737311       -2.19670443875483
H            2.76344554325212       -1.57548079218754       -1.60085010699124
H            4.70212930461870        1.57295942633652       -1.58438795247303
H            6.97398111191960        1.77708099177409       -0.76736861587702
H            8.66091220360338        1.83234382905448        0.83122617208478
H            9.21573117635654        1.17850699650393       -0.72344709711362
H           10.07036919875715        0.73375821288518        0.77752206807371
H            7.02645531669301       -4.22441610850592        1.67076146222225
H            5.43403824535253       -3.46785041127618        1.75692068782121
H            6.04612784837237       -4.07172431261782        0.18751694331856
H            4.46820995153983       -2.39977155573879       -0.06700736336468
H           -0.19593433583699       -1.69500348063101       -1.69804313384872
H           -0.95272801980959       -1.29137251103771       -0.17741838938912
H            0.61581872242271       -2.13460759521756       -0.20513257668687
H           -4.53028165103677        2.94342266655286       -0.21275115635861
H           -3.87715865116195        2.91230207099744        2.74182762464829
H           -5.03893983621187        1.80856600458582        1.95871206501534
H           -5.42279083859231        3.53057187386909        2.09637801400277
H           -2.49978724906493        4.54451912345542        1.33184637951113
H           -3.02759382937077        4.77340070484335       -0.34178082764218
H           -4.10280231031806        5.16753086907005        0.99759409026475
H           -0.86214097772279        2.87435860547337        2.99231023504189
72
 energy: 2.907324026088 xtb: 6.6.1 (8d0f1dd)
N           -1.77765474405161        2.93623407113097        2.46550116347523
C           -1.71632530084655        2.10780316283427        1.50692223008498
C           -2.77652355822527        2.01262402099545        0.43164745670587
C           -3.41080198409990        0.64080150815920        0.41958191336864
C           -4.33545821182436        0.22443985889101       -0.53478098376889
C           -4.91255935726225       -1.02865954780576       -0.51802963640435
O           -5.83591263492310       -1.49239407765497       -1.41893563526431
C           -6.27801091608947       -0.63950084569814       -2.43783961910357
C           -4.54137513513530       -1.93016040540322        0.49691790667190
O           -5.16200921317095       -3.15122327477574        0.48126603336002
C           -4.89480243482971       -4.01101857954214        1.56508361602582
C           -3.61892942169554       -1.51600907322347        1.43781855471399
C           -3.05428880685743       -0.25484530021979        1.39593472027957
C           -2.13668934872601        2.26563036960449       -0.98926883875456
C           -1.27276111531618        1.13070102414129       -1.60771054266788
C            0.09976711173089        1.06712756826543       -1.07543079910856
N            0.69429050718424       -0.10837708983943       -0.63137975825996
C            2.06906258453523       -0.10718676255065       -0.23089114808257
C            3.03673560388300       -0.54585627543698       -1.36557880312457
C            4.46161436296992       -0.43094740745510       -0.92303117557681
C            5.18467473678822        0.73549311421315       -1.09538977371841
C            6.47999563658301        0.85683314052040       -0.61009727407933
C            7.08220329570824       -0.19555559531253        0.05463076109874
O            8.34611254407438       -0.19022986509762        0.55531445004711
C            9.11568226218015        0.96842687979244        0.35355171730003
C            6.35611280122594       -1.38846734553468        0.24936685774953
O            7.01867656733539       -2.37668125444298        0.91379935871176
C            6.33542201153106       -3.58145848630176        1.12098696579463
C            5.06649904972095       -1.48932284455277       -0.24194992045632
C            0.03545752588084       -1.38665821798765       -0.71761189159970
C           -3.85864345581959        3.06466618831397        0.68673666856883
C           -4.68730618601151        2.83385359733933        1.94298188942321
C           -3.27380623316943        4.46481746793810        0.70096154389797
H           -4.53822562166671        0.87902968014609       -1.36080682147285
H           -6.73085820270638        0.26528647475231       -2.01597276434481
H           -7.03087739125063       -1.20250209149591       -2.99764030225618
H           -5.45558779836355       -0.35708306762619       -3.09819700708561
H           -5.15601777006956       -3.56049402058523        2.53390193515927
H           -5.50014257487000       -4.91240345710362        1.44269825440593
H           -3.82924342423956       -4.26867621353273        1.57315667194146
H           -3.32233960791770       -2.17450038498625        2.22167922429649
H           -2.31584392308896        0.04137560144455        2.11649708766294
H           -2.94604504550164        2.49191381138130       -1.68103433236432
H           -1.52382609622316        3.16094490478790       -0.93931175240983
H           -1.78492212055544        0.18120499075726       -1.47404709038108
H           -1.23618951034535        1.37886041847834       -2.68547948086328
H           -0.82625625659122        1.53489418708700        1.15090853471627
H            0.75841467757705        1.87337494165300       -1.37341563699970
H            2.20132254039049       -0.75751107292656        0.65071945087904
H            2.33654403924079        0.90667753622184        0.04745731751570
H            2.84264290012675        0.09879784343602       -2.22365015378505
H            2.80769706307220       -1.57460267632681       -1.64874850916833
H            4.74635961210271        1.57867572006428       -1.60041733780457
H            7.00398080046528        1.78688637200103       -0.75674566158446
H            8.67078170193419        1.84511081765992        0.84223099750506
H            9.22893033025001        1.19747760915083       -0.71130553946160
H           10.08968451429377        0.75696144187054        0.78817113053589
H            7.01625890132132       -4.21083535737304        1.67750919414954
H            5.43470039941321       -3.44717396146662        1.73243149479706
H            6.07004728966460       -4.06373828462195        0.17084805455310
H            4.50449025729392       -2.39918315787401       -0.10017348589357
H           -0.17825492084982       -1.73240352864115       -1.73975956947921
H           -0.92125576069834       -1.31736512373305       -0.23961916453977
H            0.66200217986780       -2.16870981516408       -0.27976023021264
H           -4.48406967862018        3.00651185245724       -0.17383760132134
H           -3.97570324503395        2.92028754460728        2.76822008894942
H           -5.12368392763955        1.83992053619546        1.93820868784177
H           -5.47478967368010        3.57208401249618        2.05788829418473
H           -2.42988228734610        4.50315390399011        1.36839130058111
H           -2.97138442587969        4.76969846856685       -0.29501400217542
H           -4.01937114206910        5.15462213199383        1.06701551856861
H           -0.99132012311072        2.94582183152183        3.11314826145449
72
 energy: 9.170034816852 xtb: 6.6.1 (8d0f1dd)
N           -1.76363175660531        2.94238739962050        2.49384607926767
C           -1.74954721396107        2.06403406986284        1.59646582618938
C           -2.78165841872684        1.98955956620766        0.49107222890177
C           -3.44034189583462        0.63379119445815        0.45401749589113
C           -4.33416229282732        0.21143314184842       -0.52380692703435
C           -4.93525615418909       -1.03068109969651       -0.50941340901156
O           -5.83796462911967       -1.49022496693721       -1.43323614401326
C           -6.23392333718649       -0.64997779706034       -2.48592603482709
C           -4.59428223673413       -1.92458070344499        0.52403833621658
O           -5.22358691310618       -3.14218029027064        0.51885953037796
C           -4.97736265082102       -3.98362540304432        1.62490868548342
C           -3.68961990205018       -1.50924856194908        1.48274961786424
C           -3.11350268615855       -0.25522112774459        1.44417121243103
C           -2.10253929313287        2.25691767757292       -0.91672966555352
C           -1.27564468093319        1.10968047727155       -1.57710817553401
C            0.13754338449821        1.02972482114795       -1.16763297460837
N            0.72092019632383       -0.13469381826245       -0.68168771685669
C            2.09400362126038       -0.13150313485175       -0.27184605129727
C            3.07788095960656       -0.54704588502794       -1.40473076700393
C            4.50125193281352       -0.42893369036906       -0.95323552249619
C            5.22552660046686        0.73903916066819       -1.11457567307168
C            6.51582679963911        0.86255885720026       -0.61531236003185
C            7.11526701831759       -0.18991301598082        0.05128940832954
O            8.37269933746691       -0.17956122030858        0.56523426032867
C            9.13485137416395        0.98483890094341        0.36624777442617
C            6.38990772196266       -1.38448725152806        0.23302372592283
O            7.04469656541173       -2.37431446114434        0.90133361332980
C            6.34723326622502       -3.57078253989229        1.10610804166478
C            5.10432731295433       -1.48732000534311       -0.27034238688895
C            0.06744030712270       -1.41680743960986       -0.76518255332689
C           -3.82862464111453        3.06676161256384        0.73832746426725
C           -4.74789575048129        2.85630208545124        1.93974957575993
C           -3.20605455027846        4.44746412179336        0.75238981130505
H           -4.49354970760033        0.85331308284246       -1.36858720617079
H           -6.69459247086371        0.26672926411176       -2.09721296282197
H           -6.97444631652519       -1.21313384496077       -3.06275910303083
H           -5.38614486192017       -0.39126157776755       -3.12296796477223
H           -5.26141826932149       -3.52176479412618        2.58377411525532
H           -5.57928978989687       -4.88810818484626        1.50926321250314
H           -3.91149654059944       -4.23384829183284        1.65212778764154
H           -3.42004835159474       -2.15852678841950        2.28422436915427
H           -2.39070122918762        0.04471936360104        2.17795885951050
H           -2.89353059490708        2.53176340716764       -1.60904741930221
H           -1.46790412739153        3.13559467639330       -0.83866592920531
H           -1.78460632161542        0.16335130030774       -1.40546899661812
H           -1.32511252652387        1.37304060790334       -2.65285154756499
H           -0.86801199477169        1.46105602171382        1.30679041812629
H            0.79661014410997        1.80328704097141       -1.53615603289590
H            2.22387361115445       -0.79390609987386        0.60248753245382
H            2.35731817543736        0.87789795162347        0.01897203306799
H            2.88953899996342        0.10612478571896       -2.25791219954205
H            2.85351645931002       -1.57365881383225       -1.69958598002282
H            4.79236044108547        1.58425731265288       -1.61996881262991
H            7.03632534813442        1.79646255126729       -0.74771184948046
H            8.68304389480205        1.85850710486333        0.85546484421552
H            9.24643125419675        1.21665128381231       -0.69810182786386
H           10.10971030112036        0.78052691812498        0.80156883555267
H            7.01758144079192       -4.19540512748688        1.67902289094684
H            5.43869156191729       -3.42732878269987        1.70754052925884
H            6.09781428452589       -4.05772945888028        0.15404865996304
H            4.54214608768276       -2.39856368904341       -0.13545624366586
H           -0.15728898336692       -1.77175503538858       -1.78244623993246
H           -0.88619365124923       -1.34606928249338       -0.29187335654466
H            0.71081156497163       -2.19801845331910       -0.34299769790605
H           -4.44600316311468        3.07454977500316       -0.11424241076405
H           -4.08651632336919        2.93105230702988        2.80237878381972
H           -5.20927167399146        1.87239338235607        1.91949103684054
H           -5.52255907596906        3.61420103322569        2.01081664680763
H           -2.35232862198411        4.45590150481705        1.40234457884411
H           -2.91735345980918        4.75780701621871       -0.24717759528807
H           -3.92888191500974        5.14267723069614        1.14239023028669
H           -1.04372972379261        2.98018950447130        3.20013460817427
72
 energy: 14.704878689109 xtb: 6.6.1 (8d0f1dd)
N           -1.70002538775226        2.90425116531195        2.50918109781012
C           -1.76346327254426        2.00513312096650        1.64890248982312
C           -2.78161214872033        1.96459437107064        0.53752198887691
C           -3.46476031589180        0.62454631385058        0.48718591985781
C           -4.32199740650185        0.19474829164866       -0.51662594556358
C           -4.95332411383444       -1.03283754938203       -0.49975055854245
O           -5.82603865747786       -1.49307965566898       -1.44758045196279
C           -6.18619035395860       -0.66222730019139       -2.52803992568083
C           -4.64635052871269       -1.91881483886985        0.55289362431364
O           -5.28549600284651       -3.13140481427129        0.55675663850503
C           -5.06183403241878       -3.95849602541695        1.68027188330939
C           -3.76116502991307       -1.50292822951608        1.53030202342852
C           -3.17351774809119       -0.25553588626979        1.49451141323503
C           -2.06537046617852        2.24747297795302       -0.85138054927985
C           -1.27944510790990        1.08818033464345       -1.55438818025204
C            0.16780462312023        0.99012183238705       -1.26167482446135
N            0.74643975618575       -0.15914021192055       -0.73818032591356
C            2.11828151407990       -0.15362838352149       -0.31791371197334
C            3.11901120947856       -0.54716495112758       -1.44692502706081
C            4.54063715881574       -0.42598062164329       -0.98369213317905