25
 energy: -42.456511587721 xtb: 6.6.1 (8d0f1dd)
C            3.25217419242005        1.22404727973436        0.10426915722598
N            2.30854310405993        0.14449016926674        0.00989186879387
C            2.57485703401015       -1.15244495086080       -0.03247491656772
N            1.44300206850556       -1.86380276091426       -0.11567906152873
C            0.37559652465807       -0.98327637659553       -0.11519138488770
C            0.93281547049845        0.31386065830897       -0.04143283408416
C            0.14176861059317        1.48092795538788       -0.03837758488456
O            0.53939212837093        2.64710434288335       -0.01291764309218
N           -1.23119421707482        1.15362528978575       -0.08200202387800
C           -2.17689149654021        2.26094627298050       -0.05139909312350
C           -1.80909474726740       -0.08502166717144       -0.12604015691352
O           -3.00797594450480       -0.24177309739344       -0.13096589950539
N           -0.94150201730616       -1.23625855965347       -0.18448813185949
C           -1.50726457019900       -2.45874565284204       -0.26211341817154
H            3.71724675087439        1.23632040904696        1.09132338890582
H            4.02780169083691        1.11590262952960       -0.65338728873775
H            2.70719484480567        2.15748154564100       -0.04545108331137
H            3.55920421932544       -1.58038955795373       -0.00683058936505
H           -1.60786395166113        3.18788490652568       -0.02773033573896
H           -2.81345096959922        2.22672309058033       -0.93535109362745
H           -2.81048733171776        2.18847239569379        0.83221483257705
H           -1.68373055521443       -5.07445176984148        1.32297999708706
H           -0.91694306293333       -3.34926915964436       -0.27581712331397
H           -2.57152986385413       -2.49045587732855       -0.30478249947769
H            1.37097687625553       -2.87011330259938       -0.14153168652888
