72
 energy: -99.349808363340 gnorm: 0.002430459405 xtb: 6.6.1 (8d0f1dd)
N           -1.03876452893926        2.52588152782165        1.84531388483549
C           -1.28166821696348        1.70446447501832        0.93415988651433
C           -2.54757823322024        1.69030328663347        0.12126586562870
C           -3.29215565909704        0.38886792327446        0.36842299590278
C           -4.29569432501878       -0.02380691859603       -0.51001754002301
C           -5.02099987845740       -1.18210838084361       -0.28606351520330
O           -5.99220857984351       -1.66224460679788       -1.09119332267301
C           -6.35430109726252       -0.93863909530840       -2.24334836687596
C           -4.75768273259279       -1.96052946004903        0.87333517901296
O           -5.52608049414532       -3.05812388218047        1.02121457610416
C           -5.41344949973392       -3.81747357878608        2.20193734429893
C           -3.76342167216774       -1.54277653206914        1.74379192754082
C           -3.03777907957287       -0.38639018101195        1.49020492609261
C           -2.10045501825276        1.80053255067747       -1.36016508288677
C           -1.49134605986551        0.52114092092140       -1.96131808338961
C           -0.07550027410629        0.28679350743161       -1.57097471590974
N            0.44142444458870       -0.88159534141023       -1.18918780161558
C            1.74212884395498       -1.18465021289747       -1.19820489895414
C            2.80708762038846       -0.44515824578986       -1.94376820792475
C            3.97745986623040       -0.05671747112631       -1.07554605801028
C            4.07144376681482        1.35121661398634       -0.60443267627656
C            5.28070079071249        1.64449720116076        0.21133451421333
C            6.22412907085504        0.71210990569186        0.49334969454125
O            7.34843599067240        0.90695955424967        1.21128131163971
C            7.62963027418393        2.20017789289513        1.69632875146471
C            6.07411610469386       -0.63491391887101       -0.00063114314664
O            7.07043126204616       -1.46504637970592        0.31348056841670
C            7.06521108496708       -2.79364907978697       -0.15595694318812
C            4.94657839393643       -0.96538879831119       -0.76869487195013
C           -0.46914895648848       -1.91868786742840       -0.71478459244336
C           -3.52298133024282        2.85812794067375        0.45997073914566
C           -4.04240648192768        2.76645628903803        1.89296368524485
C           -2.91484884433590        4.23841886310758        0.22608362655471
H           -4.52136078750087        0.57790133823377       -1.37459475148062
H           -6.71983422561605        0.06145775206503       -1.99238065266091
H           -7.15777661506497       -1.50922677460080       -2.70494614894957
H           -5.51896082515491       -0.85832915954159       -2.94670145341352
H           -5.63199248421802       -3.21307222399360        3.08727625154227
H           -6.15534285560163       -4.60839268550573        2.11216080783494
H           -4.41897228129798       -4.26391464402226        2.30104980037272
H           -3.54931693559529       -2.10639717063603        2.63710358093488
H           -2.28845943472136       -0.07746807131061        2.20293734202818
H           -2.96573505301073        2.08114238363387       -1.96023171835803
H           -1.37210818582481        2.60823023837404       -1.44357637516838
H           -2.12512253334459       -0.33147585002765       -1.72908331177894
H           -1.50868902079521        0.65456771257646       -3.05154588358658
H           -0.56614074339709        0.93221502011943        0.60113726545358
H            0.61893007744970        1.07440655318952       -1.81311509693322
H            2.03434228442999       -2.09925341793171       -0.71363766094623
H            3.17791893645087        1.62571451243823       -0.02535480822524
H            2.40325641760016        0.43741157292045       -2.43629589069140
H            3.18141111505400       -1.11751008146915       -2.72698541024711
H            4.05581339340646        2.02475562643927       -1.47549585529126
H            5.37581557894096        2.65754107593618        0.56546741666803
H            6.86493982095770        2.53820345334106        2.40206279122329
H            7.71775070933480        2.92184474014999        0.87875787725659
H            8.58462343838898        2.11720215155861        2.21063486800529
H            7.99184612202263       -3.23451738041714        0.20713208402317
H            6.21649551518736       -3.35697533075565        0.24269252293334
H            7.05084499999023       -2.83240563390932       -1.24936576725418
H            4.85166049753923       -1.97283380393867       -1.14563554355499
H           -0.95501569390159       -2.40363859512689       -1.56161525152408
H           -1.23091514465858       -1.49189815394884       -0.06152231408027
H            0.08747940728915       -2.67152278776331       -0.16196294486369
H           -4.37987162667073        2.74319662910667       -0.21485616312108
H           -3.22312527336554        2.88800249948371        2.59447336118795
H           -4.52886893374595        1.81171925902211        2.07689985575276
H           -4.76768011208336        3.55694577945856        2.06749000332589
H           -2.04069280199188        4.37350547914214        0.85543171553693
H           -2.63689581180797        4.39058607895459       -0.81331155500416
H           -3.64556196962886        4.99858479934331        0.48985170815381
H           -0.13847991977843        2.45978813036916        2.31076849067804
