      -----------------------------------------------------------      
     |                   =====================                   |     
     |                           x T B                           |     
     |                   =====================                   |     
     |                         S. Grimme                         |     
     |          Mulliken Center for Theoretical Chemistry        |     
     |                    University of Bonn                     |     
      -----------------------------------------------------------      

   * xtb version 6.6.1 (8d0f1dd) compiled by 'conda@1efc2f54142f' on 2023-08-01

   xtb is free software: you can redistribute it and/or modify it under
   the terms of the GNU Lesser General Public License as published by
   the Free Software Foundation, either version 3 of the License, or
   (at your option) any later version.
   
   xtb is distributed in the hope that it will be useful,
   but WITHOUT ANY WARRANTY; without even the implied warranty of
   MERCHANTABILITY or FITNESS FOR A PARTICULAR PURPOSE.  See the
   GNU Lesser General Public License for more details.
   
   Cite this work as:
   * C. Bannwarth, E. Caldeweyher, S. Ehlert, A. Hansen, P. Pracht,
     J. Seibert, S. Spicher, S. Grimme, WIREs Comput. Mol. Sci., 2020, 11,
     e01493. DOI: 10.1002/wcms.1493
   
   for GFN2-xTB:
   * C. Bannwarth, S. Ehlert and S. Grimme., J. Chem. Theory Comput., 2019,
     15, 1652-1671. DOI: 10.1021/acs.jctc.8b01176
   for GFN1-xTB:
   * S. Grimme, C. Bannwarth, P. Shushkov, J. Chem. Theory Comput., 2017,
     13, 1989-2009. DOI: 10.1021/acs.jctc.7b00118
   for GFN0-xTB:
   * P. Pracht, E. Caldeweyher, S. Ehlert, S. Grimme, ChemRxiv, 2019, preprint.
     DOI: 10.26434/chemrxiv.8326202.v1
   for GFN-FF:
   * S. Spicher and S. Grimme, Angew. Chem. Int. Ed., 2020, 59, 15665-15673.
     DOI: 10.1002/anie.202004239
   
   for ALPB and GBSA implicit solvation:
   * S. Ehlert, M. Stahn, S. Spicher, S. Grimme, J. Chem. Theory Comput.,
     2021, 17, 4250-4261. DOI: 10.1021/acs.jctc.1c00471
   
   for DFT-D4:
   * E. Caldeweyher, C. Bannwarth and S. Grimme, J. Chem. Phys., 2017,
     147, 034112. DOI: 10.1063/1.4993215
   * E. Caldeweyher, S. Ehlert, A. Hansen, H. Neugebauer, S. Spicher,
     C. Bannwarth and S. Grimme, J. Chem. Phys., 2019, 150, 154122.
     DOI: 10.1063/1.5090222
   * E. Caldeweyher, J.-M. Mewes, S. Ehlert and S. Grimme, Phys. Chem. Chem. Phys.
     2020, 22, 8499-8512. DOI: 10.1039/D0CP00502A
   
   for sTDA-xTB:
   * S. Grimme and C. Bannwarth, J. Chem. Phys., 2016, 145, 054103.
     DOI: 10.1063/1.4959605
   
   in the mass-spec context:
   * V. Asgeirsson, C. Bauer and S. Grimme, Chem. Sci., 2017, 8, 4879.
     DOI: 10.1039/c7sc00601b
   * J. Koopman and S. Grimme, ACS Omega 2019, 4, 12, 15120-15133.
     DOI: 10.1021/acsomega.9b02011
   
   for metadynamics refer to:
   * S. Grimme, J. Chem. Theory Comput., 2019, 155, 2847-2862
     DOI: 10.1021/acs.jctc.9b00143
   
   for SPH calculations refer to:
   * S. Spicher and S. Grimme, J. Chem. Theory Comput., 2021, 17, 1701-1714
     DOI: 10.1021/acs.jctc.0c01306
   
   with help from (in alphabetical order)
   P. Atkinson, C. Bannwarth, F. Bohle, G. Brandenburg, E. Caldeweyher
   M. Checinski, S. Dohm, S. Ehlert, S. Ehrlich, I. Gerasimov, C. Hölzer
   A. Katbashev, J. Koopman, C. Lavigne, S. Lehtola, F. März, M. Müller,
   F. Musil, H. Neugebauer, J. Pisarek, C. Plett, P. Pracht, F. Pultar,
   J. Seibert, P. Shushkov, S. Spicher, M. Stahn, M. Steiner, T. Strunk,
   J. Stückrath, T. Rose, and J. Unsleber
   
 * started run on 2024/04/06 at 11:16:52.759     

           -------------------------------------------------
          |                Calculation Setup                |
           -------------------------------------------------

          program call               : xtb struc.xyz --opt loose --input .xc1 --gfn2
          hostname                   : n-62-30-23
          coordinate file            : struc.xyz
          omp threads                :                     1

   ID    Z sym.   atoms
    1    7 N      1, 17
    2    6 C      2-6, 8, 9, 11-16, 18-23, 25, 26, 28-33
    3    8 O      7, 10, 24, 27
    4    1 H      34-72
constraining bond 21 54 to    2.7133300 Å, actual value:    2.1296845 Å

           -------------------------------------------------
          |                 G F N 2 - x T B                 |
           -------------------------------------------------

        Reference                      10.1021/acs.jctc.8b01176
      * Hamiltonian:
        H0-scaling (s, p, d)           1.850000    2.230000    2.230000
        zeta-weighting                 0.500000
      * Dispersion:
        s8                             2.700000
        a1                             0.520000
        a2                             5.000000
        s9                             5.000000
      * Repulsion:
        kExp                           1.500000    1.000000
        rExp                           1.000000
      * Coulomb:
        alpha                          2.000000
        third order                    shell-resolved
        anisotropic                    true
        a3                             3.000000
        a5                             4.000000
        cn-shift                       1.200000
        cn-exp                         4.000000
        max-rad                        5.000000


          ...................................................
          :                      SETUP                      :
          :.................................................:
          :  # basis functions                 171          :
          :  # atomic orbitals                 171          :
          :  # shells                          105          :
          :  # electrons                       180          :
          :  max. iterations                   250          :
          :  Hamiltonian                  GFN2-xTB          :
          :  restarted?                      false          :
          :  GBSA solvation                  false          :
          :  PC potential                    false          :
          :  electronic temp.         5000.0000000     K    :
          :  accuracy                    1.0000000          :
          :  -> integral cutoff          0.2500000E+02      :
          :  -> integral neglect         0.1000000E-07      :
          :  -> SCF convergence          0.1000000E-05 Eh   :
          :  -> wf. convergence          0.1000000E-03 e    :
          :  Broyden damping             0.4000000          :
          ...................................................

 iter      E             dE          RMSdq      gap      omega  full diag
   1   -100.5973919 -0.100597E+03  0.374E+00    3.20       0.0  T
   2   -100.7362642 -0.138872E+00  0.221E+00    1.08       1.0  T
   3   -100.7049001  0.313641E-01  0.141E+00    3.29       1.0  T
   4   -100.7721690 -0.672689E-01  0.526E-01    1.50       1.0  T
   5   -100.7894292 -0.172602E-01  0.190E-01    1.98       1.0  T
   6   -100.7911978 -0.176856E-02  0.792E-02    1.77       1.0  T
   7   -100.7914750 -0.277198E-03  0.375E-02    1.83       1.0  T
   8   -100.7914914 -0.164582E-04  0.140E-02    1.83       1.0  T
   9   -100.7914976 -0.616739E-05  0.474E-03    1.82       2.5  T
  10   -100.7914988 -0.118227E-05  0.172E-03    1.82       6.8  T
  11   -100.7914989 -0.139928E-06  0.766E-04    1.82      15.4  T
  12   -100.7914989 -0.773143E-08  0.318E-04    1.82      37.0  T

   *** convergence criteria satisfied after 12 iterations ***

         #    Occupation            Energy/Eh            Energy/eV
      -------------------------------------------------------------
         1        2.0000           -0.8078051             -21.9815
       ...           ...                  ...                  ...
        84        1.9966           -0.5157491             -14.0342
        85        1.9959           -0.5128261             -13.9547
        86        1.9840           -0.4911498             -13.3649
        87        1.9795           -0.4872543             -13.2589
        88        1.9640           -0.4782114             -13.0128
        89        1.8920           -0.4602041             -12.5228
        90        1.8557           -0.4553147             -12.3897 (HOMO)
        91        0.3166           -0.3884132             -10.5693 (LUMO)
        92        0.0218           -0.3434697              -9.3463
        93        0.0041           -0.3169887              -8.6257
        94        0.0034           -0.3139726              -8.5436
        95        0.0029           -0.3112618              -8.4699
       ...           ...                  ...                  ...
       171                          0.5822580              15.8440
      -------------------------------------------------------------
                  HL-Gap            0.0669015 Eh            1.8205 eV
             Fermi-level           -0.4148687 Eh          -11.2892 eV

 SCC (total)                   0 d,  0 h,  0 min,  0.192 sec
 SCC setup                      ...        0 min,  0.001 sec (  0.646%)
 Dispersion                     ...        0 min,  0.002 sec (  1.087%)
 classical contributions        ...        0 min,  0.001 sec (  0.291%)
 integral evaluation            ...        0 min,  0.018 sec (  9.563%)
 iterations                     ...        0 min,  0.099 sec ( 51.830%)
 molecular gradient             ...        0 min,  0.069 sec ( 36.238%)
 printout                       ...        0 min,  0.001 sec (  0.337%)

         :::::::::::::::::::::::::::::::::::::::::::::::::::::
         ::                     SUMMARY                     ::
         :::::::::::::::::::::::::::::::::::::::::::::::::::::
         :: total energy             -99.464953646912 Eh    ::
         :: gradient norm              0.162752139198 Eh/a0 ::
         :: HOMO-LUMO gap              1.820481192090 eV    ::
         ::.................................................::
         :: SCC energy              -100.791498925389 Eh    ::
         :: -> isotropic ES            0.109302908418 Eh    ::
         :: -> anisotropic ES          0.005415138735 Eh    ::
         :: -> anisotropic XC          0.042392697176 Eh    ::
         :: -> dispersion             -0.075527661009 Eh    ::
         :: repulsion energy           1.386151658689 Eh    ::
         :: add. restraining          -0.060822732718 Eh    ::
         :: total charge               1.000000000108 e     ::
         :::::::::::::::::::::::::::::::::::::::::::::::::::::

      ----------------------------------------------------------- 
     |                   =====================                   |
     |                        A N C O P T                        |
     |                   =====================                   |
     |               Approximate Normal Coordinate               |
     |                Rational Function Optimizer                |
      ----------------------------------------------------------- 

          ...................................................
          :                      SETUP                      :
          :.................................................:
          :   optimization level             loose          :
          :   max. optcycles                   200          :
          :   ANC micro-cycles                  20          :
          :   degrees of freedom               210          :
          :.................................................:
          :   RF solver                   davidson          :
          :   write xtbopt.log                true          :
          :   linear?                        false          :
          :   energy convergence         0.5000000E-04 Eh   :
          :   grad. convergence          0.4000000E-02 Eh/α :
          :   maxmium RF displ.          1.0000000          :
          :   Hlow (freq-cutoff)         0.1000000E-01      :
          :   Hmax (freq-cutoff)         5.0000000          :
          :   S6 in model hess.         20.0000000          :
          ...................................................

generating ANC from model Hessian ...
Using Lindh-Hessian (1995)
 Shifting diagonal of input Hessian by    9.9132578872808373E-003
 Lowest  eigenvalues of input Hessian
    0.000000    0.000000    0.000000    0.000000    0.000000    0.000000
    0.010000    0.010023    0.010155    0.010250    0.010295    0.010649
    0.010707    0.010917    0.011124    0.011652    0.011779    0.012723
 Highest eigenvalues
    2.035872    2.044489    2.045871    2.179357    2.182859    2.186968


........................................................................
.............................. CYCLE    1 ..............................
........................................................................

 iter      E             dE          RMSdq      gap      omega  full diag
   1   -100.7914989 -0.100791E+03  0.114E-04    1.82       0.0  T
   2   -100.7914989 -0.678995E-10  0.713E-05    1.82     165.2  T
   3   -100.7914989  0.665210E-10  0.496E-05    1.82     237.5  T
     SCC iter.                  ...        0 min,  0.026 sec
     gradient                   ...        0 min,  0.069 sec
 * total energy  :   -99.4649537 Eh     change       -0.4035485E-08 Eh
   gradient norm :     0.1627543 Eh/α   predicted     0.0000000E+00 (-100.00%)
   displ. norm   :     0.6618967 α      lambda       -0.8376734E-01
   maximum displ.:     0.4363050 α      in ANC's #61, #65, #67, ...

........................................................................
.............................. CYCLE    2 ..............................
........................................................................

 iter      E             dE          RMSdq      gap      omega  full diag
   1   -100.7970336 -0.100797E+03  0.396E-01    1.62       0.0  T
   2   -100.7969326  0.101047E-03  0.264E-01    1.86       1.0  T
   3   -100.7929976  0.393498E-02  0.225E-01    1.48       1.0  T
   4   -100.7977244 -0.472682E-02  0.512E-02    1.78       1.0  T
   5   -100.7979633 -0.238906E-03  0.100E-02    1.74       1.2  T
   6   -100.7979650 -0.167074E-05  0.510E-03    1.74       2.3  T
   7   -100.7979657 -0.689331E-06  0.157E-03    1.74       7.5  T
   8   -100.7979658 -0.130251E-06  0.587E-04    1.74      20.1  T
   9   -100.7979658 -0.893600E-08  0.294E-04    1.74      40.1  T
     SCC iter.                  ...        0 min,  0.073 sec
     gradient                   ...        0 min,  0.069 sec
 * total energy  :   -99.5397166 Eh     change       -0.7476292E-01 Eh
   gradient norm :     0.1305617 Eh/α   predicted    -0.6023991E-01 ( -19.43%)
   displ. norm   :     0.8718131 α      lambda       -0.9412568E-01
   maximum displ.:     0.5829943 α      in ANC's #61, #65, #67, ...

........................................................................
.............................. CYCLE    3 ..............................
........................................................................

 iter      E             dE          RMSdq      gap      omega  full diag
   1   -100.6786936 -0.100679E+03  0.480E-01    1.52       0.0  T
   2   -100.6778544  0.839162E-03  0.374E-01    2.04       1.0  T
   3   -100.6789742 -0.111980E-02  0.255E-01    1.50       1.0  T
   4   -100.6824808 -0.350659E-02  0.117E-01    1.84       1.0  T
   5   -100.6835400 -0.105921E-02  0.301E-02    1.74       1.0  T
   6   -100.6835534 -0.134071E-04  0.136E-02    1.74       1.0  T
   7   -100.6835641 -0.106905E-04  0.363E-03    1.74       3.2  T
   8   -100.6835646 -0.492901E-06  0.223E-03    1.74       5.3  T
   9   -100.6835648 -0.210661E-06  0.832E-04    1.74      14.2  T
  10   -100.6835648 -0.100593E-07  0.293E-04    1.74      40.3  T
     SCC iter.                  ...        0 min,  0.080 sec
     gradient                   ...        0 min,  0.069 sec
 * total energy  :   -99.6273033 Eh     change       -0.8758669E-01 Eh
   gradient norm :     0.2500098 Eh/α   predicted    -0.8283338E-01 (  -5.43%)
   displ. norm   :     0.8987924 α      lambda       -0.1102306E+00
   maximum displ.:     0.5571129 α      in ANC's #61, #132, #65, ...

........................................................................
.............................. CYCLE    4 ..............................
........................................................................

 iter      E             dE          RMSdq      gap      omega  full diag
   1   -100.4659083 -0.100466E+03  0.106E+00    0.15       0.0  T
   2   -100.2634903  0.202418E+00  0.152E+00    1.54       1.0  T
   3   -100.5585545 -0.295064E+00  0.396E-01    1.23       1.0  T
   4   -100.5609278 -0.237324E-02  0.239E-01    0.85       1.0  T
   5   -100.5631431 -0.221532E-02  0.108E-01    0.92       1.0  T
   6   -100.5643154 -0.117229E-02  0.468E-02    1.04       1.0  T
   7   -100.5643002  0.152499E-04  0.372E-02    1.05       1.0  T
   8   -100.5644585 -0.158304E-03  0.660E-03    1.01       1.8  T
   9   -100.5644605 -0.206443E-05  0.368E-03    1.01       3.2  T
  10   -100.5644611 -0.544021E-06  0.173E-03    1.01       6.8  T
  11   -100.5644613 -0.212978E-06  0.746E-04    1.01      15.8  T
  12   -100.5644613 -0.288818E-07  0.314E-04    1.01      37.6  T
     SCC iter.                  ...        0 min,  0.096 sec
     gradient                   ...        0 min,  0.069 sec
 * total energy  :   -99.6688086 Eh     change       -0.4150537E-01 Eh
   gradient norm :     0.5415913 Eh/α   predicted    -0.9963900E-01 ( 140.06%)
   displ. norm   :     0.4314060 α      lambda       -0.1915699E+00
   maximum displ.:     0.2198743 α      in ANC's #61, #67, #65, ...

........................................................................
.............................. CYCLE    5 ..............................
........................................................................

 iter      E             dE          RMSdq      gap      omega  full diag
   1   -100.5702567 -0.100570E+03  0.494E-01    1.86       0.0  T
   2   -100.4905462  0.797104E-01  0.830E-01    0.42       1.0  T
   3   -100.5824246 -0.918784E-01  0.265E-01    1.61       1.0  T
   4   -100.5862977 -0.387311E-02  0.129E-01    1.32       1.0  T
   5   -100.5873524 -0.105464E-02  0.432E-02    1.27       1.0  T
   6   -100.5875003 -0.147897E-03  0.148E-02    1.31       1.0  T
   7   -100.5875108 -0.105600E-04  0.641E-03    1.31       1.8  T
   8   -100.5875138 -0.298389E-05  0.205E-03    1.31       5.7  T
   9   -100.5875139 -0.443692E-07  0.114E-03    1.31      10.3  T
  10   -100.5875139 -0.673917E-07  0.434E-04    1.31      27.2  T
  11   -100.5875139 -0.685246E-08  0.144E-04    1.31      82.1  T
     SCC iter.                  ...        0 min,  0.089 sec
     gradient                   ...        0 min,  0.070 sec
 * total energy  :   -99.6994882 Eh     change       -0.3067959E-01 Eh
   gradient norm :     0.2272312 Eh/α   predicted    -0.1136116E+00 ( 270.32%)
   displ. norm   :     0.2501682 α      lambda       -0.2809056E-01
   maximum displ.:     0.0727771 α      in ANC's #61, #53, #50, ...

........................................................................
.............................. CYCLE    6 ..............................
........................................................................

 iter      E             dE          RMSdq      gap      omega  full diag
   1   -100.5712403 -0.100571E+03  0.143E-01    1.18       0.0  T
   2   -100.5709576  0.282766E-03  0.970E-02    1.30       1.0  T
   3   -100.5700360  0.921620E-03  0.116E-01    1.10       1.0  T
   4   -100.5712505 -0.121455E-02  0.551E-02    1.28       1.0  T
   5   -100.5715700 -0.319513E-03  0.908E-03    1.23       1.3  T
   6   -100.5715713 -0.128719E-05  0.522E-03    1.23       2.3  T
   7   -100.5715729 -0.162882E-05  0.146E-03    1.23       8.1  T
   8   -100.5715731 -0.136689E-06  0.763E-04    1.23      15.5  T
   9   -100.5715731 -0.228603E-07  0.342E-04    1.23      34.4  T
     SCC iter.                  ...        0 min,  0.073 sec
     gradient                   ...        0 min,  0.069 sec
 * total energy  :   -99.7241726 Eh     change       -0.2468440E-01 Eh
   gradient norm :     0.1713851 Eh/α   predicted    -0.1492431E-01 ( -39.54%)
   displ. norm   :     0.4576212 α      lambda       -0.5151793E-01
   maximum displ.:     0.2131995 α      in ANC's #61, #53, #50, ...

........................................................................
.............................. CYCLE    7 ..............................
........................................................................

 iter      E             dE          RMSdq      gap      omega  full diag
   1   -100.5577730 -0.100558E+03  0.326E-01    1.15       0.0  T
   2   -100.5579539 -0.180920E-03  0.167E-01    1.06       1.0  T
   3   -100.5542168  0.373710E-02  0.221E-01    1.37       1.0  T
   4   -100.5574378 -0.322105E-02  0.141E-01    1.02       1.0  T
   5   -100.5592536 -0.181582E-02  0.328E-02    1.18       1.0  T
   6   -100.5593308 -0.771433E-04  0.126E-02    1.15       1.0  T
   7   -100.5593373 -0.646430E-05  0.527E-03    1.14       2.2  T
   8   -100.5593403 -0.308028E-05  0.191E-03    1.15       6.2  T
   9   -100.5593405 -0.114115E-06  0.105E-03    1.15      11.2  T
  10   -100.5593405 -0.612291E-07  0.442E-04    1.15      26.7  T
  11   -100.5593405 -0.136354E-07  0.158E-04    1.15      74.5  T
     SCC iter.                  ...        0 min,  0.089 sec
     gradient                   ...        0 min,  0.069 sec
 * total energy  :   -99.7303019 Eh     change       -0.6129288E-02 Eh
   gradient norm :     0.3627817 Eh/α   predicted    -0.3115329E-01 ( 408.27%)
   displ. norm   :     0.1671524 α      lambda       -0.4502501E-01
   maximum displ.:     0.0670107 α      in ANC's #132, #61, #110, ...

........................................................................
.............................. CYCLE    8 ..............................
........................................................................

 iter      E             dE          RMSdq      gap      omega  full diag
   1   -100.5687866 -0.100569E+03  0.172E-01    1.30       0.0  T
   2   -100.5655559  0.323078E-02  0.188E-01    1.02       1.0  T
   3   -100.5677119 -0.215600E-02  0.137E-01    1.38       1.0  T
   4   -100.5699278 -0.221597E-02  0.435E-02    1.20       1.0  T
   5   -100.5699823 -0.544403E-04  0.135E-02    1.21       1.0  T
   6   -100.5699953 -0.130690E-04  0.508E-03    1.21       2.3  T
   7   -100.5699961 -0.773913E-06  0.251E-03    1.21       4.7  T
   8   -100.5699966 -0.474293E-06  0.862E-04    1.21      13.7  T
   9   -100.5699966 -0.143783E-07  0.438E-04    1.21      26.9  T
     SCC iter.                  ...        0 min,  0.073 sec
     gradient                   ...        0 min,  0.069 sec
 * total energy  :   -99.7485985 Eh     change       -0.1829662E-01 Eh
   gradient norm :     0.0820860 Eh/α   predicted    -0.2314157E-01 (  26.48%)
   displ. norm   :     0.2099408 α      lambda       -0.7199469E-02
   maximum displ.:     0.0692015 α      in ANC's #39, #50, #41, ...

........................................................................
.............................. CYCLE    9 ..............................
........................................................................

 iter      E             dE          RMSdq      gap      omega  full diag
   1   -100.5735269 -0.100574E+03  0.138E-01    1.34       0.0  T
   2   -100.5681048  0.542205E-02  0.213E-01    1.00       1.0  T
   3   -100.5737144 -0.560958E-02  0.938E-02    1.34       1.0  T
   4   -100.5743053 -0.590900E-03  0.403E-02    1.25       1.0  T
   5   -100.5744185 -0.113241E-03  0.931E-03    1.24       1.3  T
   6   -100.5744253 -0.680109E-05  0.253E-03    1.24       4.7  T
   7   -100.5744253  0.343649E-07  0.138E-03    1.24       8.5  T
   8   -100.5744254 -0.108169E-06  0.385E-04    1.24      30.6  T
   9   -100.5744254 -0.747190E-08  0.159E-04    1.24      74.3  T
     SCC iter.                  ...        0 min,  0.073 sec
     gradient                   ...        0 min,  0.069 sec
 * total energy  :   -99.7550377 Eh     change       -0.6439207E-02 Eh
   gradient norm :     0.0669824 Eh/α   predicted    -0.3758396E-02 ( -41.63%)
   displ. norm   :     0.5606417 α      lambda       -0.2086440E-01
   maximum displ.:     0.1451848 α      in ANC's #81, #50, #49, ...

........................................................................
.............................. CYCLE   10 ..............................
........................................................................

 iter      E             dE          RMSdq      gap      omega  full diag
   1   -100.5847121 -0.100585E+03  0.420E-01    1.67       0.0  T
   2   -100.5349222  0.497899E-01  0.642E-01    0.67       1.0  T
   3   -100.5859021 -0.509799E-01  0.276E-01    1.66       1.0  T
   4   -100.5904656 -0.456345E-02  0.114E-01    1.42       1.0  T
   5   -100.5914911 -0.102556E-02  0.352E-02    1.37       1.0  T
   6   -100.5915706 -0.794923E-04  0.123E-02    1.37       1.0  T
   7   -100.5915690  0.161182E-05  0.623E-03    1.36       1.9  T
   8   -100.5915715 -0.245183E-05  0.209E-03    1.37       5.6  T
   9   -100.5915719 -0.454473E-06  0.689E-04    1.37      17.1  T
  10   -100.5915719 -0.164986E-07  0.272E-04    1.37      43.4  T
     SCC iter.                  ...        0 min,  0.080 sec
     gradient                   ...        0 min,  0.069 sec
 * total energy  :   -99.7705339 Eh     change       -0.1549620E-01 Eh
   gradient norm :     0.0642936 Eh/α   predicted    -0.1371123E-01 ( -11.52%)
   displ. norm   :     0.6245917 α      lambda       -0.1565725E-01
   maximum displ.:     0.2250902 α      in ANC's #49, #42, #57, ...

........................................................................
.............................. CYCLE   11 ..............................
........................................................................

 iter      E             dE          RMSdq      gap      omega  full diag
   1   -100.5971080 -0.100597E+03  0.369E-01    1.61       0.0  T
   2   -100.5857418  0.113662E-01  0.384E-01    1.08       1.0  T
   3   -100.5929842 -0.724238E-02  0.258E-01    1.77       1.0  T
   4   -100.5995335 -0.654932E-02  0.940E-02    1.43       1.0  T
   5   -100.5998381 -0.304519E-03  0.356E-02    1.44       1.0  T
   6   -100.5998868 -0.487178E-04  0.189E-02    1.45       1.0  T
   7   -100.5998947 -0.794558E-05  0.108E-02    1.45       1.1  T
   8   -100.5999038 -0.910938E-05  0.317E-03    1.45       3.7  T
   9   -100.5999040 -0.162887E-06  0.124E-03    1.45       9.5  T
  10   -100.5999041 -0.821339E-07  0.485E-04    1.45      24.3  T
  11   -100.5999041 -0.100682E-07  0.233E-04    1.45      50.6  T
     SCC iter.                  ...        0 min,  0.089 sec
     gradient                   ...        0 min,  0.069 sec
 * total energy  :   -99.7784851 Eh     change       -0.7951120E-02 Eh
   gradient norm :     0.2214254 Eh/α   predicted    -0.1088268E-01 (  36.87%)
   displ. norm   :     0.3286845 α      lambda       -0.1803625E-01
   maximum displ.:     0.1084778 α      in ANC's #78, #27, #17, ...

........................................................................
.............................. CYCLE   12 ..............................
........................................................................

 iter      E             dE          RMSdq      gap      omega  full diag
   1   -100.5921454 -0.100592E+03  0.240E-01    1.47       0.0  T
   2   -100.5923090 -0.163513E-03  0.154E-01    1.35       1.0  T
   3   -100.5904354  0.187354E-02  0.148E-01    1.62       1.0  T
   4   -100.5910714 -0.635949E-03  0.138E-01    1.29       1.0  T
   5   -100.5931992 -0.212782E-02  0.148E-02    1.44       1.0  T
   6   -100.5932043 -0.513409E-05  0.129E-02    1.43       1.0  T
   7   -100.5932123 -0.798313E-05  0.646E-03    1.43       1.8  T
   8   -100.5932140 -0.164809E-05  0.367E-03    1.43       3.2  T
   9   -100.5932150 -0.104024E-05  0.908E-04    1.43      13.0  T
  10   -100.5932150 -0.364671E-07  0.364E-04    1.44      32.4  T
  11   -100.5932150 -0.747252E-08  0.106E-04    1.43     111.5  T
     SCC iter.                  ...        0 min,  0.089 sec
     gradient                   ...        0 min,  0.069 sec
 * total energy  :   -99.7893750 Eh     change       -0.1088997E-01 Eh
   gradient norm :     0.1132678 Eh/α   predicted    -0.9992401E-02 (  -8.24%)
   displ. norm   :     0.3841590 α      lambda       -0.2193347E-01
   maximum displ.:     0.1769768 α      in ANC's #83, #78, #57, ...

........................................................................
.............................. CYCLE   13 ..............................
........................................................................

 iter      E             dE          RMSdq      gap      omega  full diag
   1   -100.6010691 -0.100601E+03  0.297E-01    1.31       0.0  T
   2   -100.6008654  0.203698E-03  0.186E-01    1.39       1.0  T
   3   -100.5975785  0.328692E-02  0.225E-01    1.14       1.0  T
   4   -100.5984325 -0.854005E-03  0.160E-01    1.53       1.0  T
   5   -100.6024273 -0.399479E-02  0.407E-02    1.30       1.0  T
   6   -100.6025806 -0.153327E-03  0.106E-02    1.32       1.1  T
   7   -100.6025865 -0.585295E-05  0.547E-03    1.32       2.2  T
   8   -100.6025867 -0.203138E-06  0.324E-03    1.32       3.6  T
   9   -100.6025872 -0.494911E-06  0.132E-03    1.32       8.9  T
  10   -100.6025873 -0.125891E-06  0.511E-04    1.32      23.0  T
  11   -100.6025873 -0.369660E-08  0.172E-04    1.32      68.4  T
     SCC iter.                  ...        0 min,  0.089 sec
     gradient                   ...        0 min,  0.069 sec
 * total energy  :   -99.8075709 Eh     change       -0.1819590E-01 Eh
   gradient norm :     0.1058607 Eh/α   predicted    -0.1258520E-01 ( -30.83%)
   displ. norm   :     0.6892947 α      lambda       -0.3977273E-01
   maximum displ.:     0.2647771 α      in ANC's #61, #83, #49, ...

........................................................................
.............................. CYCLE   14 ..............................
........................................................................

 iter      E             dE          RMSdq      gap      omega  full diag
   1   -100.6218896 -0.100622E+03  0.547E-01    0.89       0.0  T
   2   -100.5810402  0.408494E-01  0.588E-01    1.47       1.0  T
   3   -100.5703954  0.106448E-01  0.674E-01    0.49       1.0  T
   4   -100.6207595 -0.503641E-01  0.285E-01    1.09       1.0  T
   5   -100.6276898 -0.693029E-02  0.799E-02    1.07       1.0  T
   6   -100.6283327 -0.642856E-03  0.370E-02    1.05       1.0  T
   7   -100.6284344 -0.101769E-03  0.178E-02    1.03       1.0  T
   8   -100.6284458 -0.113585E-04  0.876E-03    1.03       1.3  T
   9   -100.6284524 -0.660526E-05  0.288E-03    1.03       4.1  T
  10   -100.6284529 -0.461598E-06  0.175E-03    1.03       6.7  T
  11   -100.6284531 -0.270626E-06  0.444E-04    1.02      26.5  T
  12   -100.6284531 -0.227241E-07  0.137E-04    1.02      85.8  T
     SCC iter.                  ...        0 min,  0.096 sec
     gradient                   ...        0 min,  0.069 sec
 * total energy  :   -99.8276581 Eh     change       -0.2008720E-01 Eh
   gradient norm :     0.2390195 Eh/α   predicted    -0.2933495E-01 (  46.04%)
   displ. norm   :     0.3711903 α      lambda       -0.3805241E-01
   maximum displ.:     0.1348786 α      in ANC's #61, #201, #206, ...

........................................................................
.............................. CYCLE   15 ..............................
........................................................................

 iter      E             dE          RMSdq      gap      omega  full diag
   1   -100.6341949 -0.100634E+03  0.539E-01    0.51       0.0  T
   2   -100.4835553  0.150640E+00  0.111E+00    1.22       1.0  T
   3   -100.6526437 -0.169088E+00  0.213E-01    0.74       1.0  T
   4   -100.6523228  0.320901E-03  0.137E-01    0.77       1.0  T
   5   -100.6534435 -0.112069E-02  0.461E-02    0.76       1.0  T
   6   -100.6535319 -0.883456E-04  0.348E-02    0.79       1.0  T
   7   -100.6536033 -0.714528E-04  0.219E-02    0.79       1.0  T
   8   -100.6536500 -0.467103E-04  0.710E-03    0.78       1.7  T
   9   -100.6536538 -0.375134E-05  0.257E-03    0.78       4.6  T
  10   -100.6536541 -0.364060E-06  0.120E-03    0.78       9.8  T
  11   -100.6536542 -0.313955E-07  0.531E-04    0.78      22.2  T
  12   -100.6536542 -0.311402E-07  0.102E-04    0.78     115.8  T
     SCC iter.                  ...        0 min,  0.096 sec
     gradient                   ...        0 min,  0.069 sec
 * total energy  :   -99.8374292 Eh     change       -0.9771094E-02 Eh
   gradient norm :     0.1266521 Eh/α   predicted    -0.2164770E-01 ( 121.55%)
   displ. norm   :     0.4556034 α      lambda       -0.2897593E-01
   maximum displ.:     0.1945113 α      in ANC's #49, #78, #81, ...

........................................................................
.............................. CYCLE   16 ..............................
........................................................................

 iter      E             dE          RMSdq      gap      omega  full diag
   1   -100.6307024 -0.100631E+03  0.386E-01    0.91       0.0  T
   2   -100.4770628  0.153640E+00  0.106E+00    0.03       1.0  T
   3   -100.6397780 -0.162715E+00  0.201E-01    0.78       1.0  T
   4   -100.6362802  0.349776E-02  0.211E-01    0.73       1.0  T
   5   -100.6405837 -0.430342E-02  0.458E-02    0.75       1.0  T
   6   -100.6406567 -0.730303E-04  0.320E-02    0.76       1.0  T
   7   -100.6407479 -0.912440E-04  0.139E-02    0.76       1.0  T
   8   -100.6407590 -0.110279E-04  0.581E-03    0.76       2.0  T
   9   -100.6407618 -0.279461E-05  0.207E-03    0.77       5.7  T
  10   -100.6407620 -0.206497E-06  0.102E-03    0.77      11.5  T
  11   -100.6407621 -0.101774E-06  0.234E-04    0.77      50.4  T
  12   -100.6407621 -0.229464E-08  0.103E-04    0.77     114.1  T
     SCC iter.                  ...        0 min,  0.095 sec
     gradient                   ...        0 min,  0.070 sec
 * total energy  :   -99.8484340 Eh     change       -0.1100474E-01 Eh
   gradient norm :     0.1007432 Eh/α   predicted    -0.1749531E-01 (  58.98%)
   displ. norm   :     0.2943332 α      lambda       -0.1801619E-01
   maximum displ.:     0.1265396 α      in ANC's #61, #50, #53, ...

........................................................................
.............................. CYCLE   17 ..............................
........................................................................

 iter      E             dE          RMSdq      gap      omega  full diag
   1   -100.6548206 -0.100655E+03  0.163E-01    0.69       0.0  T
   2   -100.6472697  0.755094E-02  0.253E-01    0.85       1.0  T
   3   -100.6543419 -0.707224E-02  0.118E-01    0.67       1.0  T
   4   -100.6554442 -0.110232E-02  0.397E-02    0.73       1.0  T
   5   -100.6555072 -0.629491E-04  0.252E-02    0.73       1.0  T
   6   -100.6555622 -0.549978E-04  0.771E-03    0.73       1.5  T
   7   -100.6555674 -0.524729E-05  0.376E-03    0.72       3.1  T
   8   -100.6555678 -0.349191E-06  0.155E-03    0.72       7.6  T
   9   -100.6555680 -0.217831E-06  0.641E-04    0.72      18.4  T
  10   -100.6555680 -0.196877E-07  0.310E-04    0.72      38.0  T
     SCC iter.                  ...        0 min,  0.080 sec
     gradient                   ...        0 min,  0.070 sec
 * total energy  :   -99.8497061 Eh     change       -0.1272108E-02 Eh
   gradient norm :     0.1775326 Eh/α   predicted    -0.9788511E-02 ( 669.47%)
   displ. norm   :     0.2026934 α      lambda       -0.1311024E-01
   maximum displ.:     0.0771191 α      in ANC's #61, #83, #78, ...

........................................................................
.............................. CYCLE   18 ..............................
........................................................................

 iter      E             dE          RMSdq      gap      omega  full diag
   1   -100.6635182 -0.100664E+03  0.132E-01    0.75       0.0  T
   2   -100.6631951  0.323156E-03  0.986E-02    0.76       1.0  T
   3   -100.6602042  0.299090E-02  0.152E-01    0.66       1.0  T
   4   -100.6622280 -0.202388E-02  0.107E-01    0.82       1.0  T
   5   -100.6636105 -0.138246E-02  0.139E-02    0.75       1.0  T
   6   -100.6636208 -0.103188E-04  0.837E-03    0.75       1.4  T
   7   -100.6636282 -0.742368E-05  0.186E-03    0.75       6.4  T
   8   -100.6636282 -0.121167E-07  0.111E-03    0.75      10.6  T
   9   -100.6636283 -0.670915E-07  0.537E-04    0.75      22.0  T
  10   -100.6636283 -0.297003E-07  0.196E-04    0.75      60.1  T
     SCC iter.                  ...        0 min,  0.080 sec
     gradient                   ...        0 min,  0.069 sec
 * total energy  :   -99.8566414 Eh     change       -0.6935369E-02 Eh
   gradient norm :     0.0493028 Eh/α   predicted    -0.6824364E-02 (  -1.60%)
   displ. norm   :     0.2546845 α      lambda       -0.4200674E-02
   maximum displ.:     0.1142220 α      in ANC's #49, #7, #3, ...

........................................................................
.............................. CYCLE   19 ..............................
........................................................................

 iter      E             dE          RMSdq      gap      omega  full diag
   1   -100.6635866 -0.100664E+03  0.169E-01    0.60       0.0  T
   2   -100.6492232  0.143634E-01  0.331E-01    0.84       1.0  T
   3   -100.6635083 -0.142851E-01  0.119E-01    0.61       1.0  T
   4   -100.6642900 -0.781687E-03  0.742E-02    0.65       1.0  T
   5   -100.6648174 -0.527443E-03  0.970E-03    0.66       1.2  T
   6   -100.6648233 -0.583651E-05  0.478E-03    0.66       2.5  T
   7   -100.6648246 -0.138939E-05  0.257E-03    0.66       4.6  T
   8   -100.6648251 -0.496826E-06  0.671E-04    0.66      17.6  T
   9   -100.6648252 -0.232087E-07  0.385E-04    0.66      30.6  T
     SCC iter.                  ...        0 min,  0.073 sec
     gradient                   ...        0 min,  0.070 sec
 * total energy  :   -99.8586806 Eh     change       -0.2039118E-02 Eh
   gradient norm :     0.0323888 Eh/α   predicted    -0.2236600E-02 (   9.68%)
   displ. norm   :     0.2677557 α      lambda       -0.2872871E-02
   maximum displ.:     0.1304310 α      in ANC's #7, #3, #4, ...

........................................................................
.............................. CYCLE   20 ..............................
........................................................................

 iter      E             dE          RMSdq      gap      omega  full diag
   1   -100.6688769 -0.100669E+03  0.769E-02    0.66       0.0  T
   2   -100.6688250  0.519207E-04  0.537E-02    0.64       1.0  T
   3   -100.6681936  0.631318E-03  0.772E-02    0.70       1.0  T
   4   -100.6684003 -0.206666E-03  0.602E-02    0.62       1.0  T
   5   -100.6688927 -0.492424E-03  0.125E-02    0.65       1.0  T
   6   -100.6689111 -0.183790E-04  0.253E-03    0.65       4.6  T
   7   -100.6689111 -0.109774E-07  0.167E-03    0.65       7.1  T
   8   -100.6689114 -0.309037E-06  0.554E-04    0.65      21.3  T
   9   -100.6689114 -0.827595E-08  0.163E-04    0.65      72.5  T
     SCC iter.                  ...        0 min,  0.073 sec
     gradient                   ...        0 min,  0.069 sec
 * total energy  :   -99.8608607 Eh     change       -0.2180183E-02 Eh
   gradient norm :     0.0189496 Eh/α   predicted    -0.1539417E-02 ( -29.39%)
   displ. norm   :     0.4039363 α      lambda       -0.2855733E-02
   maximum displ.:     0.1960433 α      in ANC's #7, #3, #49, ...
 * RMSD in coord.:     0.5246231 α      energy gain  -0.3959071E+00 Eh

generating ANC from model Hessian ...
Using Lindh-Hessian (1995)
 Shifting diagonal of input Hessian by    9.9426349078472493E-003
 Lowest  eigenvalues of input Hessian
    0.000000    0.000000    0.000000    0.000000    0.000000    0.000000
    0.010000    0.010062    0.010204    0.010262    0.010282    0.010557
    0.010752    0.010887    0.010964    0.011493    0.011793    0.012565
 Highest eigenvalues
    1.955022    1.956511    2.041388    2.106976    2.153658    2.180685


........................................................................
.............................. CYCLE   21 ..............................
........................................................................

 iter      E             dE          RMSdq      gap      omega  full diag
   1   -100.6731610 -0.100673E+03  0.128E-01    0.66       0.0  T
   2   -100.6726407  0.520293E-03  0.993E-02    0.69       1.0  T
   3   -100.6677736  0.486704E-02  0.196E-01    0.54       1.0  T
   4   -100.6730246 -0.525092E-02  0.480E-02    0.68       1.0  T
   5   -100.6732358 -0.211236E-03  0.159E-02    0.65       1.0  T
   6   -100.6732596 -0.237641E-04  0.481E-03    0.66       2.4  T
   7   -100.6732610 -0.146057E-05  0.216E-03    0.65       5.5  T
   8   -100.6732612 -0.204214E-06  0.109E-03    0.66      10.8  T
   9   -100.6732613 -0.686479E-07  0.303E-04    0.65      38.9  T
  10   -100.6732613 -0.267399E-08  0.148E-04    0.65      79.9  T
     SCC iter.                  ...        0 min,  0.081 sec
     gradient                   ...        0 min,  0.069 sec
 * total energy  :   -99.8625492 Eh     change       -0.1688436E-02 Eh
   gradient norm :     0.0457461 Eh/α   predicted     0.0000000E+00 (-100.00%)
   displ. norm   :     0.1455842 α      lambda       -0.2425212E-02
   maximum displ.:     0.0527527 α      in ANC's #57, #22, #55, ...

........................................................................
.............................. CYCLE   22 ..............................
........................................................................

 iter      E             dE          RMSdq      gap      omega  full diag
   1   -100.6739825 -0.100674E+03  0.776E-02    0.69       0.0  T
   2   -100.6717782  0.220429E-02  0.133E-01    0.60       1.0  T
   3   -100.6738109 -0.203265E-02  0.612E-02    0.70       1.0  T
   4   -100.6741159 -0.305010E-03  0.203E-02    0.67       1.0  T
   5   -100.6741443 -0.284518E-04  0.817E-03    0.68       1.4  T
   6   -100.6741496 -0.533440E-05  0.309E-03    0.67       3.8  T
   7   -100.6741505 -0.860960E-06  0.912E-04    0.68      12.9  T
   8   -100.6741505 -0.205944E-08  0.440E-04    0.68      26.8  T
     SCC iter.                  ...        0 min,  0.065 sec
     gradient                   ...        0 min,  0.069 sec
 * total energy  :   -99.8637708 Eh     change       -0.1221627E-02 Eh
   gradient norm :     0.0341357 Eh/α   predicted    -0.1238400E-02 (   1.37%)
   displ. norm   :     0.1891799 α      lambda       -0.1350497E-02
   maximum displ.:     0.0618876 α      in ANC's #22, #57, #55, ...

........................................................................
.............................. CYCLE   23 ..............................
........................................................................

 iter      E             dE          RMSdq      gap      omega  full diag
   1   -100.6728925 -0.100673E+03  0.848E-02    0.71       0.0  T
   2   -100.6708995  0.199302E-02  0.129E-01    0.63       1.0  T
   3   -100.6725282 -0.162870E-02  0.714E-02    0.73       1.0  T
   4   -100.6729948 -0.466617E-03  0.219E-02    0.69       1.0  T
   5   -100.6730317 -0.368398E-04  0.691E-03    0.70       1.7  T
   6   -100.6730357 -0.401786E-05  0.283E-03    0.70       4.2  T
   7   -100.6730362 -0.548972E-06  0.113E-03    0.70      10.4  T
   8   -100.6730362 -0.332176E-08  0.528E-04    0.70      22.3  T
   9   -100.6730363 -0.275913E-07  0.178E-04    0.70      66.4  T
     SCC iter.                  ...        0 min,  0.073 sec
     gradient                   ...        0 min,  0.069 sec
 * total energy  :   -99.8647330 Eh     change       -0.9621502E-03 Eh
   gradient norm :     0.0136287 Eh/α   predicted    -0.6996566E-03 ( -27.28%)
   displ. norm   :     0.2528957 α      lambda       -0.8846196E-03
   maximum displ.:     0.0887107 α      in ANC's #22, #23, #27, ...

........................................................................
.............................. CYCLE   24 ..............................
........................................................................

 iter      E             dE          RMSdq      gap      omega  full diag
   1   -100.6727435 -0.100673E+03  0.983E-02    0.74       0.0  T
   2   -100.6719175  0.825942E-03  0.958E-02    0.68       1.0  T
   3   -100.6706243  0.129320E-02  0.128E-01    0.80       1.0  T
   4   -100.6727855 -0.216121E-02  0.148E-02    0.72       1.0  T
   5   -100.6728029 -0.174060E-04  0.500E-03    0.73       2.4  T
   6   -100.6728046 -0.168326E-05  0.251E-03    0.73       4.7  T
   7   -100.6728050 -0.399531E-06  0.113E-03    0.73      10.4  T
   8   -100.6728051 -0.475987E-07  0.461E-04    0.73      25.6  T
   9   -100.6728051 -0.222180E-07  0.199E-04    0.73      59.3  T
     SCC iter.                  ...        0 min,  0.073 sec
     gradient                   ...        0 min,  0.069 sec
 * total energy  :   -99.8653401 Eh     change       -0.6071496E-03 Eh
   gradient norm :     0.0166700 Eh/α   predicted    -0.4706478E-03 ( -22.48%)
   displ. norm   :     0.2297325 α      lambda       -0.5739580E-03
   maximum displ.:     0.0798707 α      in ANC's #22, #23, #27, ...

........................................................................
.............................. CYCLE   25 ..............................
........................................................................

 iter      E             dE          RMSdq      gap      omega  full diag
   1   -100.6735880 -0.100674E+03  0.787E-02    0.74       0.0  T
   2   -100.6735692  0.188299E-04  0.470E-02    0.75       1.0  T
   3   -100.6717841  0.178511E-02  0.109E-01    0.67       1.0  T
   4   -100.6735871 -0.180295E-02  0.713E-03    0.74       1.7  T
   5   -100.6735916 -0.451687E-05  0.276E-03    0.74       4.3  T
   6   -100.6735915  0.493589E-07  0.210E-03    0.74       5.6  T
   7   -100.6735920 -0.526879E-06  0.507E-04    0.74      23.2  T
   8   -100.6735921 -0.204090E-07  0.141E-04    0.74      83.7  T
     SCC iter.                  ...        0 min,  0.065 sec
     gradient                   ...        0 min,  0.069 sec
 * total energy  :   -99.8657752 Eh     change       -0.4350978E-03 Eh
   gradient norm :     0.0201698 Eh/α   predicted    -0.3021762E-03 ( -30.55%)
   displ. norm   :     0.2632753 α      lambda       -0.6514683E-03
   maximum displ.:     0.0879992 α      in ANC's #27, #22, #23, ...

........................................................................
.............................. CYCLE   26 ..............................
........................................................................

 iter      E             dE          RMSdq      gap      omega  full diag
   1   -100.6753589 -0.100675E+03  0.897E-02    0.73       0.0  T
   2   -100.6741796  0.117931E-02  0.105E-01    0.80       1.0  T
   3   -100.6741859 -0.630612E-05  0.101E-01    0.68       1.0  T
   4   -100.6754287 -0.124282E-02  0.132E-02    0.74       1.0  T
   5   -100.6754449 -0.161418E-04  0.555E-03    0.74       2.1  T
   6   -100.6754464 -0.150774E-05  0.334E-03    0.74       3.5  T
   7   -100.6754476 -0.124961E-05  0.118E-03    0.74      10.0  T
   8   -100.6754477 -0.655589E-07  0.334E-04    0.74      35.2  T
   9   -100.6754477 -0.484991E-08  0.164E-04    0.74      71.6  T
     SCC iter.                  ...        0 min,  0.073 sec
     gradient                   ...        0 min,  0.069 sec
 * total energy  :   -99.8662313 Eh     change       -0.4560589E-03 Eh
   gradient norm :     0.0166281 Eh/α   predicted    -0.3483535E-03 ( -23.62%)
   displ. norm   :     0.1807622 α      lambda       -0.3406673E-03
   maximum displ.:     0.0678006 α      in ANC's #27, #4, #22, ...

........................................................................
.............................. CYCLE   27 ..............................
........................................................................

 iter      E             dE          RMSdq      gap      omega  full diag
   1   -100.6766555 -0.100677E+03  0.652E-02    0.72       0.0  T
   2   -100.6756398  0.101572E-02  0.917E-02    0.79       1.0  T
   3   -100.6762705 -0.630743E-03  0.643E-02    0.70       1.0  T
   4   -100.6767075 -0.436973E-03  0.148E-02    0.73       1.0  T
   5   -100.6767288 -0.213421E-04  0.374E-03    0.74       3.1  T
   6   -100.6767293 -0.466846E-06  0.228E-03    0.74       5.2  T
   7   -100.6767299 -0.601286E-06  0.848E-04    0.73      13.9  T
   8   -100.6767299 -0.292865E-07  0.283E-04    0.73      41.7  T
     SCC iter.                  ...        0 min,  0.065 sec
     gradient                   ...        0 min,  0.069 sec
 * total energy  :   -99.8664637 Eh     change       -0.2324009E-03 Eh
   gradient norm :     0.0081276 Eh/α   predicted    -0.1759028E-03 ( -24.31%)
   displ. norm   :     0.1210143 α      lambda       -0.1357361E-03
   maximum displ.:     0.0442890 α      in ANC's #27, #3, #5, ...

........................................................................
.............................. CYCLE   28 ..............................
........................................................................

 iter      E             dE          RMSdq      gap      omega  full diag
   1   -100.6771706 -0.100677E+03  0.423E-02    0.72       0.0  T
   2   -100.6769390  0.231607E-03  0.455E-02    0.76       1.0  T
   3   -100.6767859  0.153059E-03  0.568E-02    0.70       1.0  T
   4   -100.6771740 -0.388025E-03  0.120E-02    0.73       1.0  T
   5   -100.6771877 -0.137756E-04  0.181E-03    0.73       6.5  T
   6   -100.6771879 -0.143586E-06  0.116E-03    0.73      10.1  T
   7   -100.6771880 -0.142743E-06  0.464E-04    0.73      25.4  T
   8   -100.6771880 -0.120635E-07  0.109E-04    0.73     108.5  T
     SCC iter.                  ...        0 min,  0.065 sec
     gradient                   ...        0 min,  0.070 sec
 * total energy  :   -99.8665544 Eh     change       -0.9075894E-04 Eh
   gradient norm :     0.0034045 Eh/α   predicted    -0.6886651E-04 ( -24.12%)
   displ. norm   :     0.0671086 α      lambda       -0.4796750E-04
   maximum displ.:     0.0316185 α      in ANC's #3, #6, #19, ...

........................................................................
.............................. CYCLE   29 ..............................
........................................................................

 iter      E             dE          RMSdq      gap      omega  full diag
   1   -100.6777156 -0.100678E+03  0.177E-02    0.72       0.0  T
   2   -100.6776837  0.319167E-04  0.171E-02    0.74       1.0  T
   3   -100.6776274  0.562832E-04  0.267E-02    0.71       1.0  T
   4   -100.6777162 -0.887612E-04  0.439E-03    0.72       2.7  T
   5   -100.6777180 -0.188010E-05  0.127E-03    0.73       9.3  T
   6   -100.6777182 -0.149565E-06  0.491E-04    0.73      24.0  T
   7   -100.6777182 -0.182118E-07  0.279E-04    0.73      42.3  T
     SCC iter.                  ...        0 min,  0.057 sec
     gradient                   ...        0 min,  0.069 sec
 * total energy  :   -99.8665871 Eh     change       -0.3267085E-04 Eh
   gradient norm :     0.0020994 Eh/α   predicted    -0.2410776E-04 ( -26.21%)
   displ. norm   :     0.0635699 α      lambda       -0.2654665E-04
   maximum displ.:     0.0332930 α      in ANC's #3, #6, #21, ...

   *** GEOMETRY OPTIMIZATION CONVERGED AFTER 29 ITERATIONS ***

------------------------------------------------------------------------
 total energy gain   :        -0.4016334 Eh     -252.0288 kcal/mol
 total RMSD          :         0.5786470 a0        0.3062 Å
 total power (kW/mol):       -36.3616711 (step) -209.2897 (real)
------------------------------------------------------------------------

 ANCopt (total)                0 d,  0 h,  0 min,  5.038 sec
 optimizer setup                ...        0 min,  0.000 sec (  0.005%)
 model hessian                  ...        0 min,  0.107 sec (  2.128%)
 ANC generation                 ...        0 min,  0.013 sec (  0.260%)
 coordinate transformation      ...        0 min,  0.002 sec (  0.040%)
 single point calculation       ...        0 min,  4.872 sec ( 96.702%)
 optimization log               ...        0 min,  0.008 sec (  0.162%)
 hessian update                 ...        0 min,  0.002 sec (  0.040%)
 rational function              ...        0 min,  0.018 sec (  0.367%)

================
 final structure:
================
72
 xtb: 6.6.1 (8d0f1dd)
N           -1.85625452157120        2.81959767491732        2.21311028908528
C           -1.80724322482404        2.13001891819116        1.17298936805350
C           -2.95927720851735        1.91462385634919        0.23140822097670
C           -3.42975794765462        0.47020343980602        0.32429168665575
C           -4.38216928006736       -0.00519582213605       -0.57956114222539
C           -4.86061182375976       -1.30267994539907       -0.51242324778377
O           -5.79071276885959       -1.83346983735616       -1.33375106247367
C           -6.43005516571305       -1.00509008417229       -2.27605207389968
C           -4.36185216076832       -2.18158591342426        0.48624160635251
O           -4.87800852253547       -3.42765447101202        0.47277282680404
C           -4.50084745505064       -4.33591521513303        1.48073149137917
C           -3.41444519058073       -1.70524042669416        1.37759240812446
C           -2.95829746914451       -0.39485212873399        1.29893304593329
C           -2.41091482934559        2.19676057683119       -1.19187800092093
C           -1.46541956455286        1.11048010237863       -1.73670253677569
C           -0.12651276907243        1.12523403363063       -1.10595471219841
N            0.55698444143913        0.04789455873069       -0.71633458541348
C            1.93621490828687        0.16258845869151       -0.31460338682232
C            2.90374519303399       -0.25251099755299       -1.44843622344037
C            4.32609785078961       -0.12401697670814       -0.99858782637194
C            5.04387697503401        1.16158345601337       -1.33270620512375
C            6.36187942903653        1.25466048357439       -0.67931884814337
C            6.93206871844551        0.28041159512328        0.06017866905210
O            8.13893572356998        0.36275785683521        0.66160382788356
C            8.81715951380664        1.58827909106647        0.50584615249467
C            6.24797167805489       -0.98240468098154        0.21874173814555
O            6.92772166078663       -1.92951862146034        0.85905814954399
C            6.39230284026542       -3.22815722624049        0.99031422794476
C            4.94332172113425       -1.11289625041963       -0.29281921443041
C           -0.02319041759573       -1.27332139258958       -0.74735631050136
C           -4.17281534410012        2.84584369847155        0.52642230405830
C           -4.81086665503658        2.52204551009897        1.87532548850513
C           -3.81966153978620        4.32943809721591        0.46618985978643
H           -4.76766988800339        0.65629993182704       -1.33727377041428
H           -6.92720029858297       -0.15836369991727       -1.79319000196085
H           -7.17658183635205       -1.63346040743830       -2.75775167440853
H           -5.72820467306152       -0.63683985516343       -3.03149881699778
H           -4.74792820341494       -3.95550763347527        2.47630702881185
H           -5.07412072826378       -5.24053539333531        1.28779013497455
H           -3.43198598924652       -4.56823633395763        1.43298110473073
H           -3.03110620842526       -2.34386253506434        2.15689608515644
H           -2.24649176001454       -0.05155597591372        2.03376566705518
H           -3.25189806219902        2.28727985692498       -1.87830504225623
H           -1.88695788626133        3.15321538195248       -1.18506293339745
H           -1.94157074760671        0.13538298053619       -1.64965498134116
H           -1.32912267512698        1.32011883728238       -2.80601187581555
H           -0.88732733809686        1.63249834580230        0.80686949242220
H            0.40815235507873        2.06336100349846       -1.09593813655390
H            2.11159995972408       -0.47328767291222        0.55720300947625
H            2.14229220941026        1.19636085270218       -0.02955842911387
H            2.71907883465836        0.38740191194429       -2.31335409556674
H            2.69258864233612       -1.28537485148656       -1.73112020503656
H            4.43174689943918        1.99388420186715       -0.93191450904242
H            5.11880496082638        1.25906085800868       -2.16855996464488
H            8.23994650640798        2.40882163682595        0.94138687035429
H            8.99123367325270        1.80516862119372       -0.55145240902962
H            9.76505372803358        1.47896922910141        1.02773627655243
H            7.15962120984640       -3.81128252569403        1.49574695896777
H            5.48292620353581       -3.22594730607960        1.59840950003384
H            6.18211698228131       -3.67225612116136        0.01331538354489
H            4.40997172932527       -2.03501792458871       -0.11100208746164
H           -0.19091699151958       -1.60904157321985       -1.77321845919548
H           -0.97778347458673       -1.28233137487749       -0.21529705230799
H            0.65049536722648       -1.97297136918310       -0.25909610227745
H           -4.91570125813582        2.64485821764273       -0.25371080743485
H           -4.10997979059875        2.72879634066487        2.67745478802855
H           -5.11047892300668        1.47822050694726        1.92835395544406
H           -5.69382478039309        3.13946713520753        2.01793405977833
H           -3.06367148914066        4.56856857735626        1.20768611278943
H           -3.46373760144439        4.62297599087186       -0.51787227399093
H           -4.70770766527940        4.91585475865963        0.68673234602771
H           -1.00651219076713        2.91553548123260        2.76027371244675

 Bond Distances (Angstroems)
 ---------------------------
N1-C2=1.2489         N1-H72=1.0152        C2-N1=1.2489         C2-C3=1.5034         C2-H47=1.1081        C3-C2=1.5034         
C3-C4=1.5219         C3-C14=1.5511        C3-C31=1.5578        C4-C3=1.5219         C4-C5=1.3964         C4-C13=1.3858        
C5-C4=1.3964         C5-C6=1.3845         C5-H34=1.0772        C6-C5=1.3845         C6-O7=1.3496         C6-C9=1.4208         
O7-C6=1.3496         O7-C8=1.4082         C8-O7=1.4082         C8-H35=1.0942        C8-H36=1.0882        C8-H37=1.0949        
C9-C6=1.4208         C9-O10=1.3488        C9-C12=1.3853        O10-C9=1.3488        O10-C11=1.4083       C11-O10=1.4083       
C11-H38=1.0940       C11-H39=1.0882       C11-H40=1.0949       C12-C9=1.3853        C12-C13=1.3897       C12-H41=1.0780       
C13-C4=1.3858        C13-C12=1.3897       C13-H42=1.0791       C14-C3=1.5511        C14-C15=1.5397       C14-H43=1.0893       
C14-H44=1.0906       C15-C14=1.5397       C15-C16=1.4801       C15-H45=1.0886       C15-H46=1.0982       C16-C15=1.4801       
C16-N17=1.3340       C16-H48=1.0798       N17-C16=1.3340       N17-C18=1.4411       N17-C30=1.4433       C18-N17=1.4411       
C18-C19=1.5473       C18-H49=1.0932       C18-H50=1.0920       C19-C18=1.5473       C19-C20=1.4973       C19-H51=1.0916       
C19-H52=1.0915       C20-C19=1.4973       C20-C21=1.5098       C20-C29=1.3627       C21-C20=1.5098       C21-C22=1.4740       
C21-H53=1.1082       C21-H54=0.8448       C22-C21=1.4740       C22-C23=1.3495       C23-C22=1.3495       C23-O24=1.3509       
C23-C26=1.4449       O24-C23=1.3509       O24-C25=1.4093       C25-O24=1.4093       C25-H55=1.0937       C25-H56=1.0933       
C25-H57=1.0876       C26-C23=1.4449       C26-O27=1.3301       C26-C29=1.4074       O27-C26=1.3301       O27-C28=1.4108       
C28-O27=1.4108       C28-H58=1.0882       C28-H59=1.0940       C28-H60=1.0936       C29-C20=1.3627       C29-C26=1.4074       
C29-H61=1.0807       C30-N17=1.4433       C30-H62=1.0924       C30-H63=1.0929       C30-H64=1.0871       C31-C3=1.5578        
C31-C32=1.5269       C31-C33=1.5262       C31-H65=1.0958       C32-C31=1.5269       C32-H66=1.0851       C32-H67=1.0873       
C32-H68=1.0868       C33-C31=1.5262       C33-H69=1.0856       C33-H70=1.0868       C33-H71=1.0868       H34-C5=1.0772        
H35-C8=1.0942        H36-C8=1.0882        H37-C8=1.0949        H38-C11=1.0940       H39-C11=1.0882       H40-C11=1.0949       
H41-C12=1.0780       H42-C13=1.0791       H43-C14=1.0893       H44-C14=1.0906       H45-C15=1.0886       H46-C15=1.0982       
H47-C2=1.1081        H48-C16=1.0798       H49-C18=1.0932       H50-C18=1.0920       H51-C19=1.0916       H52-C19=1.0915       
H53-C21=1.1082       H54-C21=0.8448       H55-C25=1.0937       H56-C25=1.0933       H57-C25=1.0876       H58-C28=1.0882       
H59-C28=1.0940       H60-C28=1.0936       H61-C29=1.0807       H62-C30=1.0924       H63-C30=1.0929       H64-C30=1.0871       
H65-C31=1.0958       H66-C32=1.0851       H67-C32=1.0873       H68-C32=1.0868       H69-C33=1.0856       H70-C33=1.0868       
H71-C33=1.0868       H72-N1=1.0152        
 C  H  Rav=1.0837 sigma=0.0398  Rmin=0.8448  Rmax=1.1082    38
 C  C  Rav=1.4619 sigma=0.0684  Rmin=1.3495  Rmax=1.5578    22
 N  H  Rav=1.0152 sigma=0.0000  Rmin=1.0152  Rmax=1.0152     1
 N  C  Rav=1.3668 sigma=0.0812  Rmin=1.2489  Rmax=1.4433     4
 O  C  Rav=1.3770 sigma=0.0327  Rmin=1.3301  Rmax=1.4108     8

 selected bond angles (degree)
 --------------------
H72-N1-C2=117.92               C3-C2-N1=124.79                H47-C2-N1=123.76               H47-C2-C3=111.40               
C4-C3-C2=109.55                C14-C3-C2=106.12               C14-C3-C4=109.75               C31-C3-C2=113.12               
C31-C3-C4=108.36               C31-C3-C14=109.90              C5-C4-C3=119.63                C13-C4-C3=122.02               
C13-C4-C5=118.34               C6-C5-C4=121.56                H34-C5-C4=119.36               H34-C5-C6=119.07               
O7-C6-C5=125.26                C9-C6-C5=119.51                C9-C6-O7=115.24                C8-O7-C6=119.26                
H35-C8-O7=111.48               H36-C8-O7=105.54               H36-C8-H35=109.30              H37-C8-O7=111.62               
H37-C8-H35=109.60              H37-C8-H36=109.18              O10-C9-C6=115.48               C12-C9-C6=118.66               
C12-C9-O10=125.86              C11-O10-C9=119.09              

 selected dihedral angles (degree)
 ---------------------------------
C3-C2-N1-H72=181.67           H47-C2-N1-H72=358.97          C4-C3-C2-N1=249.57            C4-C3-C2-H47= 71.98           
C14-C3-C2-N1=131.15           C14-C3-C2-H47=313.56          C31-C3-C2-N1= 10.57           C31-C3-C2-H47=192.98          
C5-C4-C3-C2=187.90            C5-C4-C3-C14=304.04           C5-C4-C3-C31= 64.06           C13-C4-C3-C2=  9.01           
C13-C4-C3-C14=125.15          C13-C4-C3-C31=245.17          C6-C5-C4-C3=181.49            C6-C5-C4-C13=  0.42           
H34-C5-C4-C3=  0.42           H34-C5-C4-C13=179.35          O7-C6-C5-C4=179.09            O7-C6-C5-H34=  0.15           
C9-C6-C5-C4=359.15            C9-C6-C5-H34=180.21           C8-O7-C6-C5=354.38            C8-O7-C6-C9=174.32            
H35-C8-O7-C6=302.72           H36-C8-O7-C6=184.15           H37-C8-O7-C6= 65.66           O10-C9-C6-C5=180.36           
O10-C9-C6-O7=  0.42           C12-C9-C6-C5=  0.65           C12-C9-C6-O7=180.70           C11-O10-C9-C6=183.98          
C11-O10-C9-C12=  3.67         
           -------------------------------------------------
          |                Final Singlepoint                |
           -------------------------------------------------

          ...................................................
          :                      SETUP                      :
          :.................................................:
          :  # basis functions                 171          :
          :  # atomic orbitals                 171          :
          :  # shells                          105          :
          :  # electrons                       180          :
          :  max. iterations                   250          :
          :  Hamiltonian                  GFN2-xTB          :
          :  restarted?                      false          :
          :  GBSA solvation                  false          :
          :  PC potential                    false          :
          :  electronic temp.         5000.0000000     K    :
          :  accuracy                    1.0000000          :
          :  -> integral cutoff          0.2500000E+02      :
          :  -> integral neglect         0.1000000E-07      :
          :  -> SCF convergence          0.1000000E-05 Eh   :
          :  -> wf. convergence          0.1000000E-03 e    :
          :  Broyden damping             0.4000000          :
          ...................................................

 iter      E             dE          RMSdq      gap      omega  full diag
   1   -100.6777182 -0.100678E+03  0.805E-05    0.73       0.0  T
   2   -100.6777182 -0.282654E-10  0.605E-05    0.73     194.9  T
   3   -100.6777182 -0.231893E-09  0.333E-05    0.73     354.3  T

   *** convergence criteria satisfied after 3 iterations ***

         #    Occupation            Energy/Eh            Energy/eV
      -------------------------------------------------------------
         1        2.0000           -0.8231025             -22.3978
       ...           ...                  ...                  ...
        84        1.9956           -0.5103017             -13.8860
        85        1.9948           -0.5074910             -13.8095
        86        1.9824           -0.4880913             -13.2816
        87        1.9443           -0.4695449             -12.7770
        88        1.9249           -0.4646405             -12.6435
        89        1.8823           -0.4571799             -12.4405
        90        1.3535           -0.4249809             -11.5643 (HOMO)
        91        0.5593           -0.3982982             -10.8382 (LUMO)
        92        0.3563           -0.3890729             -10.5872
        93        0.0162           -0.3371359              -9.1739
        94        0.0038           -0.3141141              -8.5475
        95        0.0031           -0.3110384              -8.4638
       ...           ...                  ...                  ...
       171                          0.7982875              21.7225
      -------------------------------------------------------------
                  HL-Gap            0.0266827 Eh            0.7261 eV
             Fermi-level           -0.4132818 Eh          -11.2460 eV

 SCC (total)                   0 d,  0 h,  0 min,  0.118 sec
 SCC setup                      ...        0 min,  0.001 sec (  0.737%)
 Dispersion                     ...        0 min,  0.002 sec (  1.333%)
 classical contributions        ...        0 min,  0.000 sec (  0.373%)
 integral evaluation            ...        0 min,  0.018 sec ( 15.298%)
 iterations                     ...        0 min,  0.026 sec ( 22.285%)
 molecular gradient             ...        0 min,  0.070 sec ( 59.413%)
 printout                       ...        0 min,  0.001 sec (  0.548%)

         :::::::::::::::::::::::::::::::::::::::::::::::::::::
         ::                     SUMMARY                     ::
         :::::::::::::::::::::::::::::::::::::::::::::::::::::
         :: total energy             -99.866587097101 Eh    ::
         :: gradient norm              0.002095572183 Eh/a0 ::
         :: HOMO-LUMO gap              0.726073245270 eV    ::
         ::.................................................::
         :: SCC energy              -100.677718205447 Eh    ::
         :: -> isotropic ES            0.109595459529 Eh    ::
         :: -> anisotropic ES          0.004584177245 Eh    ::
         :: -> anisotropic XC          0.041525692625 Eh    ::
         :: -> dispersion             -0.074572725105 Eh    ::
         :: repulsion energy           1.433213066487 Eh    ::
         :: add. restraining          -0.623369601632 Eh    ::
         :: total charge               1.000000000078 e     ::
         :::::::::::::::::::::::::::::::::::::::::::::::::::::

           -------------------------------------------------
          |                Property Printout                |
           -------------------------------------------------

    * Orbital Energies and Occupations

         #    Occupation            Energy/Eh            Energy/eV
      -------------------------------------------------------------
         1        2.0000           -0.8231025             -22.3978
       ...           ...                  ...                  ...
        78        1.9987           -0.5298778             -14.4187
        79        1.9984           -0.5266626             -14.3312
        80        1.9984           -0.5261600             -14.3175
        81        1.9977           -0.5206623             -14.1679
        82        1.9975           -0.5190568             -14.1243
        83        1.9963           -0.5130100             -13.9597
        84        1.9956           -0.5103017             -13.8860
        85        1.9948           -0.5074910             -13.8095
        86        1.9824           -0.4880913             -13.2816
        87        1.9443           -0.4695449             -12.7770
        88        1.9249           -0.4646405             -12.6435
        89        1.8823           -0.4571799             -12.4405
        90        1.3535           -0.4249809             -11.5643 (HOMO)
        91        0.5593           -0.3982982             -10.8382 (LUMO)
        92        0.3563           -0.3890729             -10.5872
        93        0.0162           -0.3371359              -9.1739
        94        0.0038           -0.3141141              -8.5475
        95        0.0031           -0.3110384              -8.4638
        96        0.0026           -0.3083037              -8.3894
        97        0.0000           -0.2206619              -6.0045
        98        0.0000           -0.1883336              -5.1248
        99                         -0.1384281              -3.7668
       100                         -0.0673466              -1.8326
       101                         -0.0654309              -1.7805
       ...                                ...                  ...
       171                          0.7982875              21.7225
      -------------------------------------------------------------
                  HL-Gap            0.0266827 Eh            0.7261 eV
             Fermi-level           -0.4132818 Eh          -11.2460 eV

     #   Z          covCN         q      C6AA      α(0)
     1   7 N        1.774    -0.270    27.820     7.810
     2   6 C        2.826     0.101    25.755     8.316
     3   6 C        3.907     0.006    20.413     6.422
     4   6 C        2.974     0.002    27.969     8.675
     5   6 C        2.921    -0.080    29.994     8.981
     6   6 C        2.862     0.129    25.167     8.223
     7   8 O        1.706    -0.231    17.836     5.702
     8   6 C        3.644     0.028    20.439     6.498
     9   6 C        2.864     0.128    25.193     8.227
    10   8 O        1.706    -0.230    17.819     5.699
    11   6 C        3.645     0.028    20.443     6.498
    12   6 C        2.914    -0.075    29.874     8.963
    13   6 C        2.921    -0.054    29.340     8.883
    14   6 C        3.812    -0.065    21.732     6.635
    15   6 C        3.802    -0.068    21.804     6.648
    16   6 C        2.842     0.002    27.983     8.669
    17   7 N        2.729     0.002    21.237     6.844
    18   6 C        3.754    -0.014    20.887     6.517
    19   6 C        3.806    -0.072    21.871     6.658
    20   6 C        2.954    -0.002    28.076     8.691
    21   6 C        3.815    -0.078    21.979     6.673
    22   6 C        1.979    -0.138    34.940     9.546
    23   6 C        2.862     0.135    25.056     8.205
    24   8 O        1.705    -0.235    17.898     5.712
    25   6 C        3.659     0.025    20.433     6.487
    26   6 C        2.861     0.142    24.904     8.180
    27   8 O        1.706    -0.195    17.256     5.609
    28   6 C        3.645     0.023    20.533     6.513
    29   6 C        2.902    -0.075    29.883     8.963
    30   6 C        3.699    -0.069    21.986     6.706
    31   6 C        3.853    -0.007    20.674     6.467
    32   6 C        3.756    -0.119    22.828     6.812
    33   6 C        3.755    -0.118    22.814     6.811
    34   1 H        0.926     0.052     2.301     2.372
    35   1 H        0.924     0.053     2.280     2.362
    36   1 H        0.925     0.080     1.975     2.197
    37   1 H        0.924     0.047     2.360     2.402
    38   1 H        0.924     0.054     2.268     2.355
    39   1 H        0.925     0.080     1.976     2.198
    40   1 H        0.924     0.047     2.362     2.403
    41   1 H        0.926     0.050     2.315     2.379
    42   1 H        0.926     0.037     2.490     2.468
    43   1 H        0.925     0.059     2.211     2.325
    44   1 H        0.924     0.052     2.290     2.366
    45   1 H        0.925     0.065     2.143     2.289
    46   1 H        0.923     0.077     2.013     2.219
    47   1 H        0.922     0.006     2.957     2.689
    48   1 H        0.926     0.065     2.146     2.291
    49   1 H        0.924     0.066     2.131     2.283
    50   1 H        0.924     0.065     2.146     2.291
    51   1 H        0.924     0.058     2.222     2.331
    52   1 H        0.924     0.060     2.199     2.319
    53   1 H        0.922     0.083     1.952     2.185
    54   1 H        0.930     0.124     1.579     1.965
    55   1 H        0.924     0.056     2.252     2.347
    56   1 H        0.924     0.059     2.214     2.327
    57   1 H        0.925     0.077     2.009     2.216
    58   1 H        0.925     0.088     1.896     2.153
    59   1 H        0.924     0.055     2.253     2.347
    60   1 H        0.924     0.059     2.208     2.324
    61   1 H        0.926     0.050     2.325     2.384
    62   1 H        0.924     0.074     2.044     2.236
    63   1 H        0.924     0.079     1.985     2.203
    64   1 H        0.925     0.076     2.020     2.223
    65   1 H        0.924     0.037     2.495     2.470
    66   1 H        0.925     0.069     2.096     2.264
    67   1 H        0.925     0.035     2.515     2.480
    68   1 H        0.925     0.050     2.316     2.380
    69   1 H        0.925     0.059     2.208     2.324
    70   1 H        0.925     0.034     2.534     2.489
    71   1 H        0.925     0.054     2.273     2.358
    72   1 H        0.860     0.155     1.366     1.831

 Mol. C6AA /au·bohr⁶  :      47192.316959
 Mol. C8AA /au·bohr⁸  :    1076482.463364
 Mol. α(0) /au        :        332.289090


Wiberg/Mayer (AO) data.
largest (>0.10) Wiberg bond orders for each atom

 ---------------------------------------------------------------------------
     #   Z sym  total        # sym  WBO       # sym  WBO       # sym  WBO
 ---------------------------------------------------------------------------
     1   7 N    3.040 --     2 C    1.955    72 H    0.942
     2   6 C    3.925 --     1 N    1.955     3 C    0.995    47 H    0.897
     3   6 C    3.977 --     2 C    0.995     4 C    0.968    14 C    0.958
                            31 C    0.943
     4   6 C    3.952 --    13 C    1.416     5 C    1.368     3 C    0.968
     5   6 C    3.963 --     6 C    1.403     4 C    1.368    34 H    0.958
     6   6 C    3.908 --     5 C    1.403     9 C    1.224     7 O    1.098
     7   8 O    2.254 --     6 C    1.098     8 C    0.978
     8   6 C    3.933 --     7 O    0.978    36 H    0.977    35 H    0.974
                            37 H    0.974
     9   6 C    3.904 --    12 C    1.394     6 C    1.224    10 O    1.099
    10   8 O    2.252 --     9 C    1.099    11 C    0.978
    11   6 C    3.932 --    10 O    0.978    39 H    0.977    40 H    0.974
                            38 H    0.974
    12   6 C    3.964 --    13 C    1.402     9 C    1.394    41 H    0.964
    13   6 C    3.957 --     4 C    1.416    12 C    1.402    42 H    0.963
    14   6 C    3.972 --    15 C    0.982    44 H    0.972    43 H    0.969
                             3 C    0.958
    15   6 C    3.987 --    16 C    1.059    14 C    0.982    45 H    0.962
                            46 H    0.928
    16   6 C    3.559 --    17 N    1.369    15 C    1.059    48 H    0.958
    17   7 N    3.456 --    16 C    1.369    30 C    0.999    18 C    0.995
    18   6 C    3.951 --    17 N    0.995    50 H    0.968    49 H    0.965
                            19 C    0.957
    19   6 C    3.970 --    20 C    1.020    51 H    0.972    52 H    0.966
                            18 C    0.957
    20   6 C    3.728 --    29 C    1.580    19 C    1.020    21 C    0.996
    21   6 C    3.953 --    22 C    1.063    20 C    0.996    54 H    0.925
                            53 H    0.903
    22   6 C    2.851 --    23 C    1.536    21 C    1.063
    23   6 C    3.878 --    22 C    1.536    26 C    1.122    24 O    1.085
    24   8 O    2.229 --    23 C    1.085    25 C    0.975
    25   6 C    3.922 --    57 H    0.978    24 O    0.975    55 H    0.972
                            56 H    0.972
    26   6 C    3.690 --    29 C    1.272    27 O    1.160    23 C    1.122
    27   8 O    2.291 --    26 C    1.160    28 C    0.967
    28   6 C    3.922 --    58 H    0.976    60 H    0.973    59 H    0.972
                            27 O    0.967
    29   6 C    3.967 --    20 C    1.580    26 C    1.272    61 H    0.955
    30   6 C    3.959 --    17 N    0.999    64 H    0.978    62 H    0.967
                            63 H    0.962
    31   6 C    3.973 --    33 C    1.009    32 C    1.008    65 H    0.960
                             3 C    0.943
    32   6 C    3.980 --    31 C    1.008    67 H    0.982    68 H    0.982
                            66 H    0.974
    33   6 C    3.984 --    31 C    1.009    70 H    0.983    71 H    0.980
                            69 H    0.977
    34   1 H    0.996 --     5 C    0.958
    35   1 H    0.994 --     8 C    0.974
    36   1 H    0.993 --     8 C    0.977
    37   1 H    0.994 --     8 C    0.974
    38   1 H    0.993 --    11 C    0.974
    39   1 H    0.993 --    11 C    0.977
    40   1 H    0.994 --    11 C    0.974
    41   1 H    0.996 --    12 C    0.964
    42   1 H    0.998 --    13 C    0.963
    43   1 H    0.995 --    14 C    0.969
    44   1 H    0.996 --    14 C    0.972
    45   1 H    0.995 --    15 C    0.962
    46   1 H    0.968 --    15 C    0.928
    47   1 H    0.988 --     2 C    0.897
    48   1 H    0.995 --    16 C    0.958
    49   1 H    0.991 --    18 C    0.965
    50   1 H    0.995 --    18 C    0.968
    51   1 H    0.994 --    19 C    0.972
    52   1 H    0.991 --    19 C    0.966
    53   1 H    0.958 --    21 C    0.903
    54   1 H    0.966 --    21 C    0.925
    55   1 H    0.991 --    25 C    0.972
    56   1 H    0.991 --    25 C    0.972
    57   1 H    0.993 --    25 C    0.978
    58   1 H    0.991 --    28 C    0.976
    59   1 H    0.992 --    28 C    0.972
    60   1 H    0.992 --    28 C    0.973
    61   1 H    0.990 --    29 C    0.955
    62   1 H    0.985 --    30 C    0.967
    63   1 H    0.987 --    30 C    0.962
    64   1 H    0.994 --    30 C    0.978
    65   1 H    0.993 --    31 C    0.960
    66   1 H    0.991 --    32 C    0.974
    67   1 H    0.997 --    32 C    0.982
    68   1 H    0.994 --    32 C    0.982
    69   1 H    0.994 --    33 C    0.977
    70   1 H    0.997 --    33 C    0.983
    71   1 H    0.994 --    33 C    0.980
    72   1 H    0.971 --     1 N    0.942
 ---------------------------------------------------------------------------

Topologies differ in total number of bonds
Writing topology from bond orders to xtbtopo.mol

molecular dipole:
                 x           y           z       tot (Debye)
 q only:        1.003      -0.342      -0.993
   full:        1.123      -0.674      -1.121       4.381
molecular quadrupole (traceless):
                xx          xy          yy          xz          yz          zz
 q only:       45.039      -3.376     -11.973       4.996     -11.040     -33.066
  q+dip:       35.814      -5.841     -10.106       8.558     -13.969     -25.708
   full:       35.436      -5.853     -10.221       6.082     -13.669     -25.215

           -------------------------------------------------
          |                Geometry Summary                 |
           -------------------------------------------------

      molecular mass/u    :      455.6105846
   center of mass at/Å    :        0.0274560       0.0091298       0.0083126
  moments of inertia/u·Å² :        0.2464386E+04   0.1095001E+05   0.1221577E+05
rotational constants/cm⁻¹ :        0.6840500E-02   0.1539509E-02   0.1379990E-02

 * 62 selected distances

     #   Z          #   Z                                           value/Å
     1   7 N        2   6 C                                       1.2489086
     4   6 C        5   6 C                                       1.3964391
     5   6 C        6   6 C                                       1.3845144
     6   6 C        7   8 O                                       1.3495945
     7   8 O        8   6 C                                       1.4081560
     6   6 C        9   6 C                                       1.4207634
     9   6 C       10   8 O                                       1.3488091
    10   8 O       11   6 C                                       1.4082504
     9   6 C       12   6 C                                       1.3852767
     4   6 C       13   6 C                                       1.3858291
    12   6 C       13   6 C                                       1.3897395
    14   6 C       15   6 C                                       1.5397405 (max)
    15   6 C       16   6 C                                       1.4801123
    16   6 C       17   7 N                                       1.3340288
    17   7 N       18   6 C                                       1.4411175
    22   6 C       23   6 C                                       1.3494938
    23   6 C       24   8 O                                       1.3509335
    24   8 O       25   6 C                                       1.4093086
    26   6 C       27   8 O                                       1.3300715
    27   8 O       28   6 C                                       1.4108026
    20   6 C       29   6 C                                       1.3627022
    26   6 C       29   6 C                                       1.4074212
    17   7 N       30   6 C                                       1.4433216
    31   6 C       32   6 C                                       1.5269234
    31   6 C       33   6 C                                       1.5262367
     5   6 C       34   1 H                                       1.0771796
     8   6 C       35   1 H                                       1.0941914
     8   6 C       36   1 H                                       1.0882031
     8   6 C       37   1 H                                       1.0949440
    11   6 C       38   1 H                                       1.0940428
    11   6 C       39   1 H                                       1.0882125
    11   6 C       40   1 H                                       1.0948599
    12   6 C       41   1 H                                       1.0780081
    13   6 C       42   1 H                                       1.0791195
    14   6 C       43   1 H                                       1.0893249
    14   6 C       44   1 H                                       1.0905885
    15   6 C       45   1 H                                       1.0886284
    15   6 C       46   1 H                                       1.0981566
    16   6 C       48   1 H                                       1.0798377
    18   6 C       49   1 H                                       1.0932269
    18   6 C       50   1 H                                       1.0919726
    19   6 C       51   1 H                                       1.0916379
    19   6 C       52   1 H                                       1.0914693
    21   6 C       53   1 H                                       1.1081796
    21   6 C       54   1 H                                       0.8448477 (min)
    25   6 C       55   1 H                                       1.0936914
    25   6 C       56   1 H                                       1.0932627
    25   6 C       57   1 H                                       1.0875760
    28   6 C       58   1 H                                       1.0882440
    28   6 C       59   1 H                                       1.0939611
    28   6 C       60   1 H                                       1.0935853
    29   6 C       61   1 H                                       1.0806610
    30   6 C       62   1 H                                       1.0923523
    30   6 C       63   1 H                                       1.0928936
    30   6 C       64   1 H                                       1.0870883
    31   6 C       65   1 H                                       1.0958479
    32   6 C       66   1 H                                       1.0850806
    32   6 C       67   1 H                                       1.0872674
    32   6 C       68   1 H                                       1.0868127
    33   6 C       69   1 H                                       1.0855972
    33   6 C       70   1 H                                       1.0868417
    33   6 C       71   1 H                                       1.0868071

 * 4 distinct bonds (by element types)

   Z      Z             #   av. dist./Å        max./Å        min./Å
   1 H    6 C          37     1.0830865     1.1081796     0.8448477
   6 C    6 C          13     1.4273225     1.5397405     1.3494938
   6 C    7 N           4     1.3668441     1.4433216     1.2489086
   6 C    8 O           8     1.3769908     1.4108026     1.3300715


optimized geometry written to: xtbopt.xyz


           -------------------------------------------------
          | TOTAL ENERGY              -99.866587097101 Eh   |
          | GRADIENT NORM               0.002095572183 Eh/α |
          | HOMO-LUMO GAP               0.726073245270 eV   |
           -------------------------------------------------

------------------------------------------------------------------------
 * finished run on 2024/04/06 at 11:16:58.155     
------------------------------------------------------------------------
 total:
 * wall-time:     0 d,  0 h,  0 min,  5.396 sec
 *  cpu-time:     0 d,  0 h,  0 min,  5.371 sec
 * ratio c/w:     0.995 speedup
 SCF:
 * wall-time:     0 d,  0 h,  0 min,  0.192 sec
 *  cpu-time:     0 d,  0 h,  0 min,  0.191 sec
 * ratio c/w:     0.996 speedup
 ANC optimizer:
 * wall-time:     0 d,  0 h,  0 min,  5.162 sec
 *  cpu-time:     0 d,  0 h,  0 min,  5.155 sec
 * ratio c/w:     0.999 speedup

