      -----------------------------------------------------------      
     |                   =====================                   |     
     |                           x T B                           |     
     |                   =====================                   |     
     |                         S. Grimme                         |     
     |          Mulliken Center for Theoretical Chemistry        |     
     |                    University of Bonn                     |     
      -----------------------------------------------------------      

   * xtb version 6.6.1 (8d0f1dd) compiled by 'conda@1efc2f54142f' on 2023-08-01

   xtb is free software: you can redistribute it and/or modify it under
   the terms of the GNU Lesser General Public License as published by
   the Free Software Foundation, either version 3 of the License, or
   (at your option) any later version.
   
   xtb is distributed in the hope that it will be useful,
   but WITHOUT ANY WARRANTY; without even the implied warranty of
   MERCHANTABILITY or FITNESS FOR A PARTICULAR PURPOSE.  See the
   GNU Lesser General Public License for more details.
   
   Cite this work as:
   * C. Bannwarth, E. Caldeweyher, S. Ehlert, A. Hansen, P. Pracht,
     J. Seibert, S. Spicher, S. Grimme, WIREs Comput. Mol. Sci., 2020, 11,
     e01493. DOI: 10.1002/wcms.1493
   
   for GFN2-xTB:
   * C. Bannwarth, S. Ehlert and S. Grimme., J. Chem. Theory Comput., 2019,
     15, 1652-1671. DOI: 10.1021/acs.jctc.8b01176
   for GFN1-xTB:
   * S. Grimme, C. Bannwarth, P. Shushkov, J. Chem. Theory Comput., 2017,
     13, 1989-2009. DOI: 10.1021/acs.jctc.7b00118
   for GFN0-xTB:
   * P. Pracht, E. Caldeweyher, S. Ehlert, S. Grimme, ChemRxiv, 2019, preprint.
     DOI: 10.26434/chemrxiv.8326202.v1
   for GFN-FF:
   * S. Spicher and S. Grimme, Angew. Chem. Int. Ed., 2020, 59, 15665-15673.
     DOI: 10.1002/anie.202004239
   
   for ALPB and GBSA implicit solvation:
   * S. Ehlert, M. Stahn, S. Spicher, S. Grimme, J. Chem. Theory Comput.,
     2021, 17, 4250-4261. DOI: 10.1021/acs.jctc.1c00471
   
   for DFT-D4:
   * E. Caldeweyher, C. Bannwarth and S. Grimme, J. Chem. Phys., 2017,
     147, 034112. DOI: 10.1063/1.4993215
   * E. Caldeweyher, S. Ehlert, A. Hansen, H. Neugebauer, S. Spicher,
     C. Bannwarth and S. Grimme, J. Chem. Phys., 2019, 150, 154122.
     DOI: 10.1063/1.5090222
   * E. Caldeweyher, J.-M. Mewes, S. Ehlert and S. Grimme, Phys. Chem. Chem. Phys.
     2020, 22, 8499-8512. DOI: 10.1039/D0CP00502A
   
   for sTDA-xTB:
   * S. Grimme and C. Bannwarth, J. Chem. Phys., 2016, 145, 054103.
     DOI: 10.1063/1.4959605
   
   in the mass-spec context:
   * V. Asgeirsson, C. Bauer and S. Grimme, Chem. Sci., 2017, 8, 4879.
     DOI: 10.1039/c7sc00601b
   * J. Koopman and S. Grimme, ACS Omega 2019, 4, 12, 15120-15133.
     DOI: 10.1021/acsomega.9b02011
   
   for metadynamics refer to:
   * S. Grimme, J. Chem. Theory Comput., 2019, 155, 2847-2862
     DOI: 10.1021/acs.jctc.9b00143
   
   for SPH calculations refer to:
   * S. Spicher and S. Grimme, J. Chem. Theory Comput., 2021, 17, 1701-1714
     DOI: 10.1021/acs.jctc.0c01306
   
   with help from (in alphabetical order)
   P. Atkinson, C. Bannwarth, F. Bohle, G. Brandenburg, E. Caldeweyher
   M. Checinski, S. Dohm, S. Ehlert, S. Ehrlich, I. Gerasimov, C. Hölzer
   A. Katbashev, J. Koopman, C. Lavigne, S. Lehtola, F. März, M. Müller,
   F. Musil, H. Neugebauer, J. Pisarek, C. Plett, P. Pracht, F. Pultar,
   J. Seibert, P. Shushkov, S. Spicher, M. Stahn, M. Steiner, T. Strunk,
   J. Stückrath, T. Rose, and J. Unsleber
   
 * started run on 2024/06/05 at 19:57:58.907     

           -------------------------------------------------
          |                Calculation Setup                |
           -------------------------------------------------

          program call               : xtb struc.xyz --opt loose --input .xc1 --gfn2
          hostname                   : n-62-30-26
          coordinate file            : struc.xyz
          omp threads                :                     1

   ID    Z sym.   atoms
    1    6 C      1, 3, 5-7, 10, 11, 14
    2    7 N      2, 4, 9, 13
    3    8 O      8, 12
    4    1 H      15-25
constraining bond 11 22 to    3.7133300 Å, actual value:    3.1884051 Å

           -------------------------------------------------
          |                 G F N 2 - x T B                 |
           -------------------------------------------------

        Reference                      10.1021/acs.jctc.8b01176
      * Hamiltonian:
        H0-scaling (s, p, d)           1.850000    2.230000    2.230000
        zeta-weighting                 0.500000
      * Dispersion:
        s8                             2.700000
        a1                             0.520000
        a2                             5.000000
        s9                             5.000000
      * Repulsion:
        kExp                           1.500000    1.000000
        rExp                           1.000000
      * Coulomb:
        alpha                          2.000000
        third order                    shell-resolved
        anisotropic                    true
        a3                             3.000000
        a5                             4.000000
        cn-shift                       1.200000
        cn-exp                         4.000000
        max-rad                        5.000000


          ...................................................
          :                      SETUP                      :
          :.................................................:
          :  # basis functions                  67          :
          :  # atomic orbitals                  67          :
          :  # shells                           39          :
          :  # electrons                        74          :
          :  max. iterations                   250          :
          :  Hamiltonian                  GFN2-xTB          :
          :  restarted?                      false          :
          :  GBSA solvation                  false          :
          :  PC potential                    false          :
          :  electronic temp.         5000.0000000     K    :
          :  accuracy                    1.0000000          :
          :  -> integral cutoff          0.2500000E+02      :
          :  -> integral neglect         0.1000000E-07      :
          :  -> SCF convergence          0.1000000E-05 Eh   :
          :  -> wf. convergence          0.1000000E-03 e    :
          :  Broyden damping             0.4000000          :
          ...................................................

 iter      E             dE          RMSdq      gap      omega  full diag
   1    -42.5894031 -0.425894E+02  0.445E+00    3.52       0.0  T
   2    -42.7683054 -0.178902E+00  0.251E+00    3.36       1.0  T
   3    -42.7759211 -0.761567E-02  0.147E+00    3.35       1.0  T
   4    -42.7728404  0.308066E-02  0.553E-01    3.33       1.0  T
   5    -42.7789548 -0.611444E-02  0.112E-01    3.35       1.0  T
   6    -42.7790473 -0.924914E-04  0.614E-02    3.33       1.0  T
   7    -42.7790721 -0.247928E-04  0.258E-02    3.34       1.0  T
   8    -42.7790772 -0.508996E-05  0.938E-03    3.34       2.1  T
   9    -42.7790779 -0.669422E-06  0.448E-03    3.34       4.5  T
  10    -42.7790780 -0.821510E-07  0.115E-03    3.34      17.4  T
  11    -42.7790780 -0.322663E-08  0.553E-04    3.34      36.2  T
  12    -42.7790780 -0.287051E-08  0.180E-04    3.34     111.1  T

   *** convergence criteria satisfied after 12 iterations ***

         #    Occupation            Energy/Eh            Energy/eV
      -------------------------------------------------------------
         1        2.0000           -0.9185990             -24.9964
       ...           ...                  ...                  ...
        31        1.9996           -0.6230278             -16.9534
        32        1.9995           -0.6194601             -16.8564
        33        1.9979           -0.5974976             -16.2587
        34        1.9932           -0.5789629             -15.7544
        35        1.9817           -0.5631863             -15.3251
        36        1.9779           -0.5602245             -15.2445
        37        1.9748           -0.5581234             -15.1873 (HOMO)
        38        0.0652           -0.4353579             -11.8467 (LUMO)
        39        0.0099           -0.4050467             -11.0219
        40        0.0013           -0.3732218             -10.1559
        41        0.0000           -0.2886859              -7.8555
        42                         -0.2065804              -5.6213
       ...                                ...                  ...
        67                          0.5625656              15.3082
      -------------------------------------------------------------
                  HL-Gap            0.1227656 Eh            3.3406 eV
             Fermi-level           -0.4890455 Eh          -13.3076 eV

 SCC (total)                   0 d,  0 h,  0 min,  0.034 sec
 SCC setup                      ...        0 min,  0.000 sec (  0.775%)
 Dispersion                     ...        0 min,  0.000 sec (  0.914%)
 classical contributions        ...        0 min,  0.000 sec (  0.249%)
 integral evaluation            ...        0 min,  0.005 sec ( 13.721%)
 iterations                     ...        0 min,  0.016 sec ( 47.474%)
 molecular gradient             ...        0 min,  0.013 sec ( 36.419%)
 printout                       ...        0 min,  0.000 sec (  0.415%)

         :::::::::::::::::::::::::::::::::::::::::::::::::::::
         ::                     SUMMARY                     ::
         :::::::::::::::::::::::::::::::::::::::::::::::::::::
         :: total energy             -43.231851539479 Eh    ::
         :: gradient norm              2.806666179904 Eh/a0 ::
         :: HOMO-LUMO gap              3.340621582928 eV    ::
         ::.................................................::
         :: SCC energy               -42.779077977399 Eh    ::
         :: -> isotropic ES            0.141123876439 Eh    ::
         :: -> anisotropic ES         -0.005230418907 Eh    ::
         :: -> anisotropic XC          0.011966818540 Eh    ::
         :: -> dispersion             -0.022657731803 Eh    ::
         :: repulsion energy           0.531105277918 Eh    ::
         :: add. restraining          -0.983992999007 Eh    ::
         :: total charge               1.000000000002 e     ::
         :::::::::::::::::::::::::::::::::::::::::::::::::::::

      ----------------------------------------------------------- 
     |                   =====================                   |
     |                        A N C O P T                        |
     |                   =====================                   |
     |               Approximate Normal Coordinate               |
     |                Rational Function Optimizer                |
      ----------------------------------------------------------- 

          ...................................................
          :                      SETUP                      :
          :.................................................:
          :   optimization level             loose          :
          :   max. optcycles                   200          :
          :   ANC micro-cycles                  20          :
          :   degrees of freedom                69          :
          :.................................................:
          :   RF solver                   davidson          :
          :   write xtbopt.log                true          :
          :   linear?                        false          :
          :   energy convergence         0.5000000E-04 Eh   :
          :   grad. convergence          0.4000000E-02 Eh/α :
          :   maxmium RF displ.          1.0000000          :
          :   Hlow (freq-cutoff)         0.1000000E-01      :
          :   Hmax (freq-cutoff)         5.0000000          :
          :   S6 in model hess.         20.0000000          :
          ...................................................

generating ANC from model Hessian ...
Using Lindh-Hessian (1995)
 Shifting diagonal of input Hessian by    3.4032973205081141     
 Lowest  eigenvalues of input Hessian
    0.010000    0.000000    0.000000    0.000000    0.000000    0.000000
    0.000000    3.406294    3.407688    3.412001    3.413230    3.415103
    3.416439    3.422155    3.425438    3.428931    3.440292    3.444990
 Highest eigenvalues
    5.494540    5.553967    5.623639    5.719549    5.823975    6.138215


........................................................................
.............................. CYCLE    1 ..............................
........................................................................

 iter      E             dE          RMSdq      gap      omega  full diag
   1    -42.7790780 -0.427791E+02  0.626E-05    3.34       0.0  T
   2    -42.7790780 -0.124416E-10  0.329E-05    3.34     607.4  T
   3    -42.7790780  0.127898E-12  0.193E-05    3.34    1034.2  T
     SCC iter.                  ...        0 min,  0.005 sec
     gradient                   ...        0 min,  0.012 sec
 * total energy  :   -43.2318515 Eh     change       -0.6650680E-10 Eh
   gradient norm :     2.8066660 Eh/α   predicted     0.0000000E+00 (-100.00%)
   displ. norm   :     0.9950401 α      lambda       -0.2760179E+01
   maximum displ.:     0.9931207 α      in ANC's #1, #63, #51, ...

........................................................................
.............................. CYCLE    2 ..............................
........................................................................

 iter      E             dE          RMSdq      gap      omega  full diag
   1    -42.7240820 -0.427241E+02  0.121E+00    3.21       0.0  T
   2    -42.7369868 -0.129048E-01  0.832E-01    2.50       1.0  T
   3    -42.7394097 -0.242287E-02  0.440E-01    2.86       1.0  T
   4    -42.7395079 -0.981856E-04  0.195E-01    2.61       1.0  T
   5    -42.7400123 -0.504413E-03  0.599E-02    2.74       1.0  T
   6    -42.7400832 -0.708934E-04  0.185E-02    2.72       1.1  T
   7    -42.7400838 -0.601502E-06  0.479E-03    2.73       4.2  T
   8    -42.7400839 -0.145027E-06  0.131E-03    2.73      15.3  T
   9    -42.7400840 -0.116855E-07  0.647E-04    2.73      30.9  T
  10    -42.7400840 -0.319422E-08  0.247E-04    2.73      80.8  T
     SCC iter.                  ...        0 min,  0.013 sec
     gradient                   ...        0 min,  0.011 sec
 * total energy  :   -47.8043523 Eh     change       -0.4572501E+01 Eh
   gradient norm :     6.3823828 Eh/α   predicted    -0.2764491E+01 ( -39.54%)
   displ. norm   :     0.9972616 α      lambda       -0.6355605E+01
   maximum displ.:     0.9946387 α      in ANC's #1, #63, #62, ...

........................................................................
.............................. CYCLE    3 ..............................
........................................................................

 iter      E             dE          RMSdq      gap      omega  full diag
   1    -42.5176804 -0.425177E+02  0.151E+00    2.46       0.0  T
   2    -42.5120391  0.564126E-02  0.144E+00    1.45       1.0  T
   3    -42.5474520 -0.354128E-01  0.646E-01    2.22       1.0  T
   4    -42.5485444 -0.109246E-02  0.403E-01    1.81       1.0  T
   5    -42.5514840 -0.293952E-02  0.162E-01    1.98       1.0  T
   6    -42.5519201 -0.436084E-03  0.358E-02    2.00       1.0  T
   7    -42.5519324 -0.123635E-04  0.176E-02    2.00       1.1  T
   8    -42.5519338 -0.140979E-05  0.476E-03    2.00       4.2  T
   9    -42.5519341 -0.321585E-06  0.192E-03    2.00      10.4  T
  10    -42.5519342 -0.562691E-07  0.798E-04    2.00      25.1  T
  11    -42.5519342 -0.560190E-08  0.305E-04    2.00      65.6  T
     SCC iter.                  ...        0 min,  0.015 sec
     gradient                   ...        0 min,  0.011 sec
 * total energy  :   -55.9398681 Eh     change       -0.8135516E+01 Eh
   gradient norm :    10.0582020 Eh/α   predicted    -0.6338270E+01 ( -22.09%)
   displ. norm   :     0.9968378 α      lambda       -0.1001422E+02
   maximum displ.:     0.9909033 α      in ANC's #1, #61, #63, ...

........................................................................
.............................. CYCLE    4 ..............................
........................................................................

 iter      E             dE          RMSdq      gap      omega  full diag
   1    -42.2525308 -0.422525E+02  0.167E+00    1.23       0.0  T
   2    -42.2433341  0.919671E-02  0.137E+00    0.70       1.0  T
   3    -42.2449973 -0.166319E-02  0.901E-01    1.33       1.0  T
   4    -42.2651940 -0.201967E-01  0.294E-01    0.94       1.0  T
   5    -42.2666464 -0.145243E-02  0.136E-01    0.98       1.0  T
   6    -42.2669279 -0.281444E-03  0.426E-02    0.98       1.0  T
   7    -42.2669477 -0.198226E-04  0.219E-02    0.98       1.0  T
   8    -42.2669545 -0.684487E-05  0.846E-03    0.98       2.4  T
   9    -42.2669564 -0.184677E-05  0.379E-03    0.98       5.3  T
  10    -42.2669566 -0.235264E-06  0.161E-03    0.98      12.5  T
  11    -42.2669566 -0.220592E-08  0.781E-04    0.98      25.6  T
  12    -42.2669566 -0.198016E-07  0.258E-04    0.98      77.5  T
     SCC iter.                  ...        0 min,  0.016 sec
     gradient                   ...        0 min,  0.011 sec
 * total energy  :   -67.9331721 Eh     change       -0.1199330E+02 Eh
   gradient norm :    14.0423836 Eh/α   predicted    -0.9982786E+01 ( -16.76%)
   displ. norm   :     0.9960140 α      lambda       -0.1397058E+02
   maximum displ.:     0.9843820 α      in ANC's #1, #61, #50, ...

........................................................................
.............................. CYCLE    5 ..............................
........................................................................

 iter      E             dE          RMSdq      gap      omega  full diag
   1    -42.0333558 -0.420334E+02  0.280E+00    0.07       0.0  T
   2    -41.4607891  0.572567E+00  0.429E+00    0.11       1.0  T
   3    -42.1043236 -0.643534E+00  0.171E+00    0.11       1.0  T
   4    -42.1697273 -0.654038E-01  0.102E+00    0.29       1.0  T
   5    -42.1964085 -0.266812E-01  0.404E-01    0.20       1.0  T
   6    -42.1969542 -0.545679E-03  0.242E-01    0.26       1.0  T
   7    -42.1984926 -0.153840E-02  0.913E-02    0.26       1.0  T
   8    -42.1986708 -0.178218E-03  0.323E-02    0.24       1.0  T
   9    -42.1986773 -0.643927E-05  0.151E-02    0.24       1.3  T
  10    -42.1986818 -0.454168E-05  0.582E-03    0.24       3.4  T
  11    -42.1986822 -0.369498E-06  0.263E-03    0.24       7.6  T
  12    -42.1986823 -0.566394E-07  0.181E-03    0.24      11.0  T
  13    -42.1986823 -0.694102E-07  0.504E-04    0.24      39.7  T
  14    -42.1986823 -0.459575E-08  0.248E-04    0.24      80.6  T
     SCC iter.                  ...        0 min,  0.018 sec
     gradient                   ...        0 min,  0.012 sec
 * total energy  :   -78.2185015 Eh     change       -0.1028533E+02 Eh
   gradient norm :    14.3914983 Eh/α   predicted    -0.1391515E+02 (  35.29%)
   displ. norm   :     0.5340200 α      lambda       -0.6667770E+01
   maximum displ.:     0.3504016 α      in ANC's #1, #61, #44, ...

........................................................................
.............................. CYCLE    6 ..............................
........................................................................

 iter      E             dE          RMSdq      gap      omega  full diag
   1    -42.1762875 -0.421763E+02  0.161E+00    0.30       0.0  T
   2    -42.1026515  0.736359E-01  0.214E+00    0.14       1.0  T
   3    -42.2306349 -0.127983E+00  0.740E-01    0.11       1.0  T
   4    -42.2077390  0.228959E-01  0.102E+00    0.22       1.0  T
   5    -42.2423890 -0.346500E-01  0.231E-01    0.09       1.0  T
   6    -42.2419901  0.398860E-03  0.171E-01    0.08       1.0  T
   7    -42.2432177 -0.122762E-02  0.277E-02    0.10       1.0  T
   8    -42.2432361 -0.183376E-04  0.141E-02    0.10       1.4  T
   9    -42.2432347  0.132494E-05  0.989E-03    0.10       2.0  T
  10    -42.2432379 -0.318766E-05  0.289E-03    0.10       6.9  T
  11    -42.2432380 -0.523247E-07  0.195E-03    0.10      10.3  T
  12    -42.2432381 -0.852293E-07  0.923E-04    0.10      21.7  T
  13    -42.2432381 -0.264478E-07  0.270E-04    0.10      74.1  T
     SCC iter.                  ...        0 min,  0.017 sec
     gradient                   ...        0 min,  0.012 sec
 * total energy  :   -76.1039222 Eh     change        0.2114579E+01 Eh
   gradient norm :    13.3846148 Eh/α   predicted    -0.4284728E+01 (-302.63%)
   displ. norm   :     0.3427239 α      lambda       -0.3212769E+01
   maximum displ.:     0.1734663 α      in ANC's #44, #1, #41, ...

........................................................................
.............................. CYCLE    7 ..............................
........................................................................

 iter      E             dE          RMSdq      gap      omega  full diag
   1    -42.2671513 -0.422672E+02  0.674E-01    0.20       0.0  T
   2    -42.2079232  0.592282E-01  0.139E+00    0.13       1.0  T
   3    -42.2784206 -0.704975E-01  0.311E-01    0.25       1.0  T
   4    -42.2776119  0.808698E-03  0.228E-01    0.30       1.0  T
   5    -42.2770791  0.532787E-03  0.249E-01    0.23       1.0  T
   6    -42.2791558 -0.207667E-02  0.221E-02    0.27       1.0  T
   7    -42.2791601 -0.433499E-05  0.172E-02    0.27       1.2  T
   8    -42.2791665 -0.633933E-05  0.796E-03    0.27       2.5  T
   9    -42.2791675 -0.981474E-06  0.327E-03    0.27       6.1  T
  10    -42.2791678 -0.353602E-06  0.142E-03    0.27      14.1  T
  11    -42.2791679 -0.294080E-07  0.791E-04    0.27      25.3  T
  12    -42.2791679 -0.129651E-07  0.228E-04    0.27      87.6  T
     SCC iter.                  ...        0 min,  0.016 sec
     gradient                   ...        0 min,  0.012 sec
 * total energy  :   -78.5996856 Eh     change       -0.2495763E+01 Eh
   gradient norm :     8.3881613 Eh/α   predicted    -0.1795078E+01 ( -28.08%)
   displ. norm   :     0.5065221 α      lambda       -0.3752507E+01
   maximum displ.:     0.4677514 α      in ANC's #1, #61, #63, ...

........................................................................
.............................. CYCLE    8 ..............................
........................................................................

 iter      E             dE          RMSdq      gap      omega  full diag
   1    -42.2362014 -0.422362E+02  0.143E+00    0.29       0.0  T
   2    -42.1729145  0.632869E-01  0.163E+00    0.42       1.0  T
   3    -42.2071323 -0.342178E-01  0.128E+00    0.18       1.0  T
   4    -42.2591658 -0.520334E-01  0.534E-01    0.40       1.0  T
   5    -42.2628021 -0.363633E-02  0.268E-01    0.36       1.0  T
   6    -42.2655726 -0.277054E-02  0.527E-02    0.40       1.0  T
   7    -42.2656060 -0.333242E-04  0.294E-02    0.40       1.0  T
   8    -42.2656368 -0.308905E-04  0.101E-02    0.39       2.0  T
   9    -42.2656387 -0.186237E-05  0.382E-03    0.39       5.2  T
  10    -42.2656390 -0.246171E-06  0.153E-03    0.39      13.1  T
  11    -42.2656390 -0.288452E-07  0.563E-04    0.39      35.5  T
  12    -42.2656390 -0.280735E-08  0.260E-04    0.39      76.8  T
     SCC iter.                  ...        0 min,  0.016 sec
     gradient                   ...        0 min,  0.012 sec
 * total energy  :   -75.5617693 Eh     change        0.3037916E+01 Eh
   gradient norm :    51.3787589 Eh/α   predicted    -0.2357634E+01 (-177.61%)
   displ. norm   :     0.6080887 α      lambda       -0.9355938E+01
   maximum displ.:     0.4915278 α      in ANC's #1, #61, #44, ...

........................................................................
.............................. CYCLE    9 ..............................
........................................................................

 iter      E             dE          RMSdq      gap      omega  full diag
   1    -42.1969576 -0.421970E+02  0.157E+00    0.41       0.0  T
   2    -42.1606426  0.363150E-01  0.146E+00    0.54       1.0  T
   3    -42.1757440 -0.151015E-01  0.131E+00    0.25       1.0  T
   4    -42.2187099 -0.429659E-01  0.689E-01    0.43       1.0  T
   5    -42.2296460 -0.109360E-01  0.275E-01    0.43       1.0  T
   6    -42.2322273 -0.258130E-02  0.430E-02    0.47       1.0  T
   7    -42.2322235  0.372495E-05  0.319E-02    0.47       1.0  T
   8    -42.2322591 -0.355136E-04  0.936E-03    0.47       2.1  T
   9    -42.2322595 -0.425232E-06  0.275E-03    0.47       7.3  T
  10    -42.2322596 -0.880564E-07  0.127E-03    0.47      15.8  T
  11    -42.2322596 -0.104122E-07  0.414E-04    0.47      48.3  T
  12    -42.2322596 -0.142391E-08  0.211E-04    0.47      94.7  T
     SCC iter.                  ...        0 min,  0.016 sec
     gradient                   ...        0 min,  0.012 sec
 * total energy  :   -77.0114582 Eh     change       -0.1449689E+01 Eh
   gradient norm :    12.5242194 Eh/α   predicted    -0.6407746E+01 ( 342.01%)
   displ. norm   :     0.7469667 α      lambda       -0.7232687E+01
   maximum displ.:     0.7127537 α      in ANC's #1, #61, #44, ...

........................................................................
.............................. CYCLE   10 ..............................
........................................................................

 iter      E             dE          RMSdq      gap      omega  full diag
   1    -42.1833042 -0.421833E+02  0.207E+00    0.49       0.0  T
   2    -42.0422623  0.141042E+00  0.234E+00    0.44       1.0  T
   3    -42.2244410 -0.182179E+00  0.108E+00    0.33       1.0  T
   4    -42.2127099  0.117312E-01  0.106E+00    0.26       1.0  T
   5    -42.2482385 -0.355287E-01  0.425E-01    0.26       1.0  T
   6    -42.2536836 -0.544502E-02  0.806E-02    0.33       1.0  T
   7    -42.2536719  0.116419E-04  0.548E-02    0.32       1.0  T
   8    -42.2537588 -0.869106E-04  0.210E-02    0.33       1.0  T
   9    -42.2537626 -0.375451E-05  0.119E-02    0.32       1.7  T
  10    -42.2537673 -0.466575E-05  0.376E-03    0.33       5.3  T
  11    -42.2537673 -0.849048E-07  0.293E-03    0.33       6.8  T
  12    -42.2537676 -0.298822E-06  0.601E-04    0.32      33.3  T
  13    -42.2537677 -0.942912E-08  0.256E-04    0.32      78.1  T
     SCC iter.                  ...        0 min,  0.017 sec
     gradient                   ...        0 min,  0.013 sec
 * total energy  :   -79.0942271 Eh     change       -0.2082769E+01 Eh
   gradient norm :     4.9987529 Eh/α   predicted    -0.5634123E+01 ( 170.51%)
   displ. norm   :     0.1737146 α      lambda       -0.4129548E+00
   maximum displ.:     0.1336282 α      in ANC's #1, #39, #68, ...

........................................................................
.............................. CYCLE   11 ..............................
........................................................................

 iter      E             dE          RMSdq      gap      omega  full diag
   1    -42.2569477 -0.422569E+02  0.406E-01    0.32       0.0  T
   2    -42.2520076  0.494006E-02  0.462E-01    0.43       1.0  T
   3    -42.2555683 -0.356070E-02  0.345E-01    0.29       1.0  T
   4    -42.2590946 -0.352626E-02  0.141E-01    0.36       1.0  T
   5    -42.2588822  0.212355E-03  0.109E-01    0.34       1.0  T
   6    -42.2594532 -0.570936E-03  0.181E-02    0.35       1.1  T
   7    -42.2594645 -0.113281E-04  0.472E-03    0.35       4.2  T
   8    -42.2594645 -0.347582E-07  0.310E-03    0.35       6.5  T
   9    -42.2594647 -0.195982E-06  0.815E-04    0.35      24.5  T
  10    -42.2594647 -0.177852E-07  0.341E-04    0.35      58.6  T
     SCC iter.                  ...        0 min,  0.013 sec
     gradient                   ...        0 min,  0.012 sec
 * total energy  :   -79.2943025 Eh     change       -0.2000754E+00 Eh
   gradient norm :     0.4672954 Eh/α   predicted    -0.2127092E+00 (   6.31%)
   displ. norm   :     0.1099231 α      lambda       -0.3139393E-01
   maximum displ.:     0.0398056 α      in ANC's #46, #39, #50, ...

........................................................................
.............................. CYCLE   12 ..............................
........................................................................

 iter      E             dE          RMSdq      gap      omega  full diag
   1    -42.2695038 -0.422695E+02  0.174E-01    0.34       0.0  T
   2    -42.2695761 -0.722451E-04  0.124E-01    0.33       1.0  T
   3    -42.2693353  0.240798E-03  0.118E-01    0.36       1.0  T
   4    -42.2694262 -0.909008E-04  0.101E-01    0.32       1.0  T
   5    -42.2697585 -0.332312E-03  0.211E-02    0.34       1.0  T
   6    -42.2697677 -0.923126E-05  0.133E-02    0.34       1.5  T
   7    -42.2697726 -0.487290E-05  0.868E-03    0.34       2.3  T
   8    -42.2697747 -0.206735E-05  0.232E-03    0.34       8.6  T
   9    -42.2697747 -0.738372E-07  0.728E-04    0.34      27.5  T
  10    -42.2697747 -0.234571E-08  0.464E-04    0.34      43.1  T
     SCC iter.                  ...        0 min,  0.013 sec
     gradient                   ...        0 min,  0.012 sec
 * total energy  :   -79.3219820 Eh     change       -0.2767951E-01 Eh
   gradient norm :     0.3574765 Eh/α   predicted    -0.1588703E-01 ( -42.60%)
   displ. norm   :     0.4978753 α      lambda       -0.1373298E+00
   maximum displ.:     0.1923543 α      in ANC's #39, #36, #46, ...

........................................................................
.............................. CYCLE   13 ..............................
........................................................................

 iter      E             dE          RMSdq      gap      omega  full diag
   1    -42.3128321 -0.423128E+02  0.781E-01    0.24       0.0  T
   2    -42.2962256  0.166065E-01  0.972E-01    0.10       1.0  T
   3    -42.3158296 -0.196040E-01  0.437E-01    0.25       1.0  T
   4    -42.3093219  0.650775E-02  0.604E-01    0.03       1.0  T
   5    -42.3208874 -0.115655E-01  0.916E-02    0.23       1.0  T
   6    -42.3209818 -0.944772E-04  0.844E-02    0.21       1.0  T
   7    -42.3211868 -0.205017E-03  0.187E-02    0.23       1.1  T
   8    -42.3211895 -0.261709E-05  0.887E-03    0.23       2.3  T
   9    -42.3211906 -0.118246E-05  0.276E-03    0.23       7.2  T
  10    -42.3211906  0.400134E-07  0.194E-03    0.23      10.3  T
  11    -42.3211907 -0.105009E-06  0.622E-04    0.23      32.1  T
  12    -42.3211907 -0.279661E-08  0.329E-04    0.23      60.8  T
     SCC iter.                  ...        0 min,  0.016 sec
     gradient                   ...        0 min,  0.012 sec
 * total energy  :   -79.4036070 Eh     change       -0.8162498E-01 Eh
   gradient norm :     2.0050842 Eh/α   predicted    -0.8568657E-01 (   4.98%)
   displ. norm   :     0.3542647 α      lambda       -0.1203345E+00
   maximum displ.:     0.1290465 α      in ANC's #39, #30, #35, ...

........................................................................
.............................. CYCLE   14 ..............................
........................................................................

 iter      E             dE          RMSdq      gap      omega  full diag
   1    -42.3102958 -0.423103E+02  0.610E-01    0.23       0.0  T
   2    -42.2300731  0.802227E-01  0.155E+00    0.56       1.0  T
   3    -42.3178069 -0.877338E-01  0.528E-01    0.08       1.0  T
   4    -42.3096335  0.817347E-02  0.632E-01    0.15       1.0  T
   5    -42.3212380 -0.116045E-01  0.173E-01    0.08       1.0  T
   6    -42.3221458 -0.907872E-03  0.850E-02    0.11       1.0  T
   7    -42.3222941 -0.148261E-03  0.368E-02    0.11       1.0  T
   8    -42.3223376 -0.435160E-04  0.109E-02    0.12       1.8  T
   9    -42.3223403 -0.270938E-05  0.408E-03    0.12       4.9  T
  10    -42.3223406 -0.241168E-06  0.184E-03    0.12      10.9  T
  11    -42.3223406 -0.590438E-07  0.405E-04    0.12      49.4  T
  12    -42.3223406 -0.859259E-09  0.219E-04    0.12      91.3  T
     SCC iter.                  ...        0 min,  0.016 sec
     gradient                   ...        0 min,  0.012 sec
 * total energy  :   -79.4314744 Eh     change       -0.2786738E-01 Eh
   gradient norm :     1.8425986 Eh/α   predicted    -0.6771826E-01 ( 143.00%)
   displ. norm   :     0.2297527 α      lambda       -0.6548084E-01
   maximum displ.:     0.0912500 α      in ANC's #46, #39, #41, ...

........................................................................
.............................. CYCLE   15 ..............................
........................................................................

 iter      E             dE          RMSdq      gap      omega  full diag
   1    -42.3456573 -0.423457E+02  0.415E-01    0.13       0.0  T
   2    -42.3357071  0.995020E-02  0.514E-01    0.14       1.0  T
   3    -42.3384166 -0.270955E-02  0.542E-01    0.29       1.0  T
   4    -42.3468552 -0.843860E-02  0.268E-01    0.17       1.0  T
   5    -42.3481793 -0.132407E-02  0.148E-01    0.14       1.0  T
   6    -42.3487815 -0.602192E-03  0.306E-02    0.11       1.0  T
   7    -42.3488041 -0.226036E-04  0.117E-02    0.10       1.7  T
   8    -42.3488075 -0.339196E-05  0.365E-03    0.10       5.5  T
   9    -42.3488076 -0.122176E-06  0.186E-03    0.10      10.8  T
  10    -42.3488076 -0.259392E-07  0.771E-04    0.10      25.9  T
  11    -42.3488076 -0.608969E-08  0.320E-04    0.10      62.6  T
     SCC iter.                  ...        0 min,  0.015 sec
     gradient                   ...        0 min,  0.012 sec
 * total energy  :   -79.4787411 Eh     change       -0.4726669E-01 Eh
   gradient norm :     0.4067929 Eh/α   predicted    -0.3446851E-01 ( -27.08%)
   displ. norm   :     0.3139296 α      lambda       -0.3658188E-01
   maximum displ.:     0.1196087 α      in ANC's #46, #39, #63, ...

........................................................................
.............................. CYCLE   16 ..............................
........................................................................

 iter      E             dE          RMSdq      gap      omega  full diag
   1    -42.3722842 -0.423723E+02  0.721E-01    0.40       0.0  T
   2    -42.3538351  0.184490E-01  0.773E-01    0.06       1.0  T
   3    -42.3406254  0.132097E-01  0.106E+00    0.78       1.0  T
   4    -42.3747839 -0.341585E-01  0.541E-01    0.54       1.0  T
   5    -42.3822963 -0.751236E-02  0.223E-01    0.40       1.0  T
   6    -42.3836240 -0.132765E-02  0.495E-02    0.35       1.0  T
   7    -42.3836943 -0.703423E-04  0.216E-02    0.34       1.0  T
   8    -42.3837026 -0.832257E-05  0.100E-02    0.33       2.0  T
   9    -42.3837047 -0.204070E-05  0.365E-03    0.33       5.5  T
  10    -42.3837049 -0.239361E-06  0.142E-03    0.33      14.1  T
  11    -42.3837049 -0.172397E-07  0.610E-04    0.33      32.8  T
  12    -42.3837049 -0.386387E-08  0.245E-04    0.33      81.5  T
     SCC iter.                  ...        0 min,  0.016 sec
     gradient                   ...        0 min,  0.012 sec
 * total energy  :   -79.4988982 Eh     change       -0.2015711E-01 Eh
   gradient norm :     1.3773837 Eh/α   predicted    -0.2009368E-01 (  -0.31%)
   displ. norm   :     0.1771371 α      lambda       -0.3547395E-01
   maximum displ.:     0.0814292 α      in ANC's #63, #46, #41, ...

........................................................................
.............................. CYCLE   17 ..............................
........................................................................

 iter      E             dE          RMSdq      gap      omega  full diag
   1    -42.3985705 -0.423986E+02  0.659E-01    0.73       0.0  T
   2    -42.2916301  0.106940E+00  0.158E+00    0.02       1.0  T
   3    -42.4042382 -0.112608E+00  0.479E-01    0.67       1.0  T
   4    -42.4110065 -0.676837E-02  0.188E-01    0.56       1.0  T
   5    -42.4116384 -0.631900E-03  0.678E-02    0.51       1.0  T
   6    -42.4117303 -0.918245E-04  0.135E-02    0.50       1.5  T
   7    -42.4117335 -0.318735E-05  0.571E-03    0.50       3.5  T
   8    -42.4117337 -0.277328E-06  0.258E-03    0.50       7.8  T
   9    -42.4117338 -0.581434E-07  0.116E-03    0.50      17.3  T
  10    -42.4117338 -0.861876E-08  0.691E-04    0.50      28.9  T
  11    -42.4117338 -0.102675E-07  0.216E-04    0.50      92.7  T
     SCC iter.                  ...        0 min,  0.015 sec
     gradient                   ...        0 min,  0.012 sec
 * total energy  :   -79.5252647 Eh     change       -0.2636647E-01 Eh
   gradient norm :     0.6608499 Eh/α   predicted    -0.1829411E-01 ( -30.62%)
   displ. norm   :     0.1980625 α      lambda       -0.3516898E-01
   maximum displ.:     0.0795612 α      in ANC's #63, #42, #36, ...

........................................................................
.............................. CYCLE   18 ..............................
........................................................................

 iter      E             dE          RMSdq      gap      omega  full diag
   1    -42.4276653 -0.424277E+02  0.729E-01    0.92       0.0  T
   2    -42.2618593  0.165806E+00  0.203E+00    0.03       1.0  T
   3    -42.4452655 -0.183406E+00  0.259E-01    0.65       1.0  T
   4    -42.4461859 -0.920363E-03  0.123E-01    0.59       1.0  T
   5    -42.4462315 -0.456029E-04  0.422E-02    0.58       1.0  T
   6    -42.4462772 -0.456654E-04  0.105E-02    0.59       1.9  T
   7    -42.4462781 -0.953688E-06  0.524E-03    0.59       3.8  T
   8    -42.4462784 -0.324878E-06  0.226E-03    0.59       8.9  T
   9    -42.4462785 -0.443469E-07  0.123E-03    0.59      16.3  T
  10    -42.4462785 -0.347860E-07  0.391E-04    0.59      51.1  T
  11    -42.4462785 -0.198593E-08  0.163E-04    0.59     122.4  T
     SCC iter.                  ...        0 min,  0.014 sec
     gradient                   ...        0 min,  0.012 sec
 * total energy  :   -79.5513288 Eh     change       -0.2606411E-01 Eh
   gradient norm :     0.2455544 Eh/α   predicted    -0.1827466E-01 ( -29.89%)
   displ. norm   :     0.2480567 α      lambda       -0.3685557E-01
   maximum displ.:     0.0868103 α      in ANC's #59, #63, #68, ...

........................................................................
.............................. CYCLE   19 ..............................
........................................................................

 iter      E             dE          RMSdq      gap      omega  full diag
   1    -42.4785263 -0.424785E+02  0.736E-01    0.98       0.0  T
   2    -42.3684787  0.110048E+00  0.169E+00    0.11       1.0  T
   3    -42.4887881 -0.120309E+00  0.384E-01    0.83       1.0  T
   4    -42.4929412 -0.415311E-02  0.129E-01    0.70       1.0  T
   5    -42.4930054 -0.641769E-04  0.634E-02    0.67       1.0  T
   6    -42.4930844 -0.790756E-04  0.200E-02    0.68       1.0  T
   7    -42.4930928 -0.832659E-05  0.706E-03    0.68       2.8  T
   8    -42.4930933 -0.510907E-06  0.308E-03    0.68       6.5  T
   9    -42.4930933 -0.505760E-07  0.137E-03    0.68      14.6  T
  10    -42.4930933 -0.249205E-07  0.404E-04    0.68      49.5  T
  11    -42.4930933 -0.459849E-09  0.181E-04    0.68     110.5  T
     SCC iter.                  ...        0 min,  0.015 sec
     gradient                   ...        0 min,  0.013 sec
 * total energy  :   -79.5791465 Eh     change       -0.2781771E-01 Eh
   gradient norm :     0.2193097 Eh/α   predicted    -0.1956156E-01 ( -29.68%)
   displ. norm   :     0.2678216 α      lambda       -0.3287017E-01
   maximum displ.:     0.1128586 α      in ANC's #59, #12, #68, ...

........................................................................
.............................. CYCLE   20 ..............................
........................................................................

 iter      E             dE          RMSdq      gap      omega  full diag
   1    -42.5284504 -0.425285E+02  0.538E-01    0.79       0.0  T
   2    -42.5274573  0.993162E-03  0.369E-01    0.61       1.0  T
   3    -42.5190588  0.839849E-02  0.568E-01    0.99       1.0  T
   4    -42.5316302 -0.125714E-01  0.128E-01    0.71       1.0  T
   5    -42.5317488 -0.118565E-03  0.735E-02    0.74       1.0  T
   6    -42.5318450 -0.962607E-04  0.203E-02    0.73       1.0  T
   7    -42.5318513 -0.628528E-05  0.862E-03    0.73       2.3  T
   8    -42.5318521 -0.798171E-06  0.278E-03    0.73       7.2  T
   9    -42.5318522 -0.455902E-07  0.118E-03    0.73      17.0  T
  10    -42.5318522 -0.809658E-08  0.537E-04    0.73      37.2  T
  11    -42.5318522 -0.209415E-08  0.231E-04    0.73      86.4  T
     SCC iter.                  ...        0 min,  0.015 sec
     gradient                   ...        0 min,  0.010 sec
 * total energy  :   -79.5978156 Eh     change       -0.1866912E-01 Eh
   gradient norm :     0.3197421 Eh/α   predicted    -0.1761393E-01 (  -5.65%)
   displ. norm   :     0.1930632 α      lambda       -0.1601402E-01
   maximum displ.:     0.0675327 α      in ANC's #12, #30, #39, ...
 * RMSD in coord.:     0.9532924 α      energy gain  -0.3636596E+02 Eh

generating ANC from model Hessian ...
Using Lindh-Hessian (1995)
 Shifting diagonal of input Hessian by    8.1352639986820678E-003
 Lowest  eigenvalues of input Hessian
    0.000000    0.000000    0.000000    0.000000    0.000000    0.000000
    0.010000    0.011750    0.011885    0.012637    0.016329    0.018236
    0.018941    0.024441    0.026917    0.029133    0.030676    0.031943
 Highest eigenvalues
    2.135486    2.306742    2.332644    2.484925   45.222081   57.295622


........................................................................
.............................. CYCLE   21 ..............................
........................................................................

 iter      E             dE          RMSdq      gap      omega  full diag
   1    -42.5480136 -0.425480E+02  0.374E-01    0.77       0.0  T
   2    -42.5486515 -0.637896E-03  0.316E-01    0.89       1.0  T
   3    -42.5474229  0.122856E-02  0.266E-01    0.65       1.0  T
   4    -42.5490288 -0.160590E-02  0.253E-01    0.89       1.0  T
   5    -42.5506953 -0.166644E-02  0.104E-01    0.83       1.0  T
   6    -42.5509510 -0.255708E-03  0.279E-02    0.80       1.0  T
   7    -42.5509744 -0.233989E-04  0.713E-03    0.79       2.8  T
   8    -42.5509751 -0.716238E-06  0.174E-03    0.79      11.5  T
   9    -42.5509751 -0.345540E-07  0.829E-04    0.79      24.1  T
  10    -42.5509751 -0.649591E-08  0.365E-04    0.79      54.8  T
     SCC iter.                  ...        0 min,  0.013 sec
     gradient                   ...        0 min,  0.013 sec
 * total energy  :   -79.6102030 Eh     change       -0.1238741E-01 Eh
   gradient norm :     0.2270120 Eh/α   predicted     0.0000000E+00 (-100.00%)
   displ. norm   :     0.5137251 α      lambda       -0.5425958E-01
   maximum displ.:     0.3767314 α      in ANC's #17, #34, #12, ...

........................................................................
.............................. CYCLE   22 ..............................
........................................................................

 iter      E             dE          RMSdq      gap      omega  full diag
   1    -42.5261437 -0.425261E+02  0.892E-01    0.96       0.0  T
   2    -42.5128580  0.132857E-01  0.959E-01    0.58       1.0  T
   3    -42.5254670 -0.126090E-01  0.738E-01    1.23       1.0  T
   4    -42.5420650 -0.165980E-01  0.305E-01    0.98       1.0  T
   5    -42.5433381 -0.127311E-02  0.127E-01    0.90       1.0  T
   6    -42.5435794 -0.241230E-03  0.470E-02    0.87       1.0  T
   7    -42.5436508 -0.714494E-04  0.183E-02    0.88       1.1  T
   8    -42.5436557 -0.486084E-05  0.854E-03    0.88       2.3  T
   9    -42.5436571 -0.143307E-05  0.291E-03    0.88       6.9  T
  10    -42.5436572 -0.135980E-06  0.145E-03    0.88      13.8  T
  11    -42.5436573 -0.429868E-07  0.474E-04    0.88      42.2  T
  12    -42.5436573 -0.223852E-08  0.191E-04    0.88     104.6  T
     SCC iter.                  ...        0 min,  0.016 sec
     gradient                   ...        0 min,  0.013 sec
 * total energy  :   -77.8167995 Eh     change        0.1793404E+01 Eh
   gradient norm :    29.8667059 Eh/α   predicted    -0.3428970E-01 (-101.91%)
   displ. norm   :     0.1580402 α      lambda       -0.4544304E+01
   maximum displ.:     0.1185366 α      in ANC's #33, #32, #25, ...

........................................................................
.............................. CYCLE   23 ..............................
........................................................................

 iter      E             dE          RMSdq      gap      omega  full diag
   1    -42.5682364 -0.425682E+02  0.381E-01    0.91       0.0  T
   2    -42.5698938 -0.165739E-02  0.235E-01    0.92       1.0  T
   3    -42.5710365 -0.114271E-02  0.108E-01    0.88       1.0  T
   4    -42.5706613  0.375144E-03  0.128E-01    0.96       1.0  T
   5    -42.5711260 -0.464647E-03  0.534E-02    0.88       1.0  T
   6    -42.5712397 -0.113755E-03  0.114E-02    0.91       1.8  T
   7    -42.5712426 -0.281594E-05  0.505E-03    0.90       4.0  T
   8    -42.5712426 -0.494866E-07  0.315E-03    0.90       6.3  T
   9    -42.5712428 -0.164786E-06  0.138E-03    0.90      14.5  T
  10    -42.5712428 -0.282870E-07  0.444E-04    0.90      45.1  T
  11    -42.5712428 -0.298778E-08  0.137E-04    0.90     145.7  T
     SCC iter.                  ...        0 min,  0.015 sec
     gradient                   ...        0 min,  0.012 sec
 * total energy  :   -79.6465886 Eh     change       -0.1829789E+01 Eh
   gradient norm :     0.4092069 Eh/α   predicted    -0.2328904E+01 (  27.28%)
   displ. norm   :     0.7547386 α      lambda       -0.4946418E-01
   maximum displ.:     0.4790023 α      in ANC's #17, #34, #33, ...

........................................................................
.............................. CYCLE   24 ..............................
........................................................................

 iter      E             dE          RMSdq      gap      omega  full diag
   1    -42.4883233 -0.424883E+02  0.160E+00    0.88       0.0  T
   2    -42.4823381  0.598517E-02  0.171E+00    0.86       1.0  T
   3    -42.5420570 -0.597189E-01  0.839E-01    1.37       1.0  T
   4    -42.5548781 -0.128211E-01  0.501E-01    1.11       1.0  T
   5    -42.5546738  0.204370E-03  0.377E-01    1.24       1.0  T
   6    -42.5573054 -0.263169E-02  0.180E-01    1.07       1.0  T
   7    -42.5583638 -0.105831E-02  0.329E-02    1.10       1.0  T
   8    -42.5583906 -0.268388E-04  0.174E-02    1.09       1.1  T
   9    -42.5583972 -0.661301E-05  0.501E-03    1.09       4.0  T
  10    -42.5583976 -0.412758E-06  0.299E-03    1.09       6.7  T
  11    -42.5583978 -0.212995E-06  0.904E-04    1.09      22.1  T
  12    -42.5583978 -0.519243E-08  0.366E-04    1.09      54.6  T
     SCC iter.                  ...        0 min,  0.016 sec
     gradient                   ...        0 min,  0.013 sec
 * total energy  :   -79.6652658 Eh     change       -0.1867722E-01 Eh
   gradient norm :     0.1653566 Eh/α   predicted    -0.3882134E-01 ( 107.85%)
   displ. norm   :     0.3083340 α      lambda       -0.1920685E-01
   maximum displ.:     0.1083820 α      in ANC's #34, #5, #9, ...

........................................................................
.............................. CYCLE   25 ..............................
........................................................................

 iter      E             dE          RMSdq      gap      omega  full diag
   1    -42.5795613 -0.425796E+02  0.393E-01    1.28       0.0  T
   2    -42.5656132  0.139481E-01  0.679E-01    0.87       1.0  T
   3    -42.5823056 -0.166925E-01  0.224E-01    1.25       1.0  T
   4    -42.5831080 -0.802410E-03  0.114E-01    1.14       1.0  T
   5    -42.5832945 -0.186484E-03  0.520E-02    1.17       1.0  T
   6    -42.5833536 -0.590665E-04  0.114E-02    1.16       1.8  T
   7    -42.5833557 -0.208338E-05  0.416E-03    1.16       4.8  T
   8    -42.5833556  0.782626E-07  0.293E-03    1.17       6.8  T
   9    -42.5833557 -0.141280E-06  0.144E-03    1.17      13.9  T
  10    -42.5833558 -0.512536E-07  0.486E-04    1.16      41.1  T
  11    -42.5833558 -0.260227E-08  0.231E-04    1.16      86.5  T
     SCC iter.                  ...        0 min,  0.015 sec
     gradient                   ...        0 min,  0.013 sec
 * total energy  :   -79.6803964 Eh     change       -0.1513056E-01 Eh
   gradient norm :     0.2812426 Eh/α   predicted    -0.1051652E-01 ( -30.49%)
   displ. norm   :     0.4612244 α      lambda       -0.2053285E-01
   maximum displ.:     0.1699928 α      in ANC's #14, #17, #34, ...

........................................................................
.............................. CYCLE   26 ..............................
........................................................................

 iter      E             dE          RMSdq      gap      omega  full diag
   1    -42.6124486 -0.426124E+02  0.468E-01    1.46       0.0  T
   2    -42.5963920  0.160566E-01  0.803E-01    0.94       1.0  T
   3    -42.6180834 -0.216914E-01  0.222E-01    1.38       1.0  T
   4    -42.6186443 -0.560846E-03  0.119E-01    1.26       1.0  T
   5    -42.6187375 -0.931922E-04  0.659E-02    1.28       1.0  T
   6    -42.6188378 -0.100364E-03  0.163E-02    1.29       1.2  T
   7    -42.6188425 -0.461346E-05  0.531E-03    1.29       3.8  T
   8    -42.6188423  0.168032E-06  0.381E-03    1.29       5.2  T
   9    -42.6188426 -0.278600E-06  0.174E-03    1.29      11.5  T
  10    -42.6188426 -0.617647E-07  0.653E-04    1.29      30.6  T
  11    -42.6188426 -0.918702E-08  0.289E-04    1.29      69.2  T
     SCC iter.                  ...        0 min,  0.015 sec
     gradient                   ...        0 min,  0.013 sec
 * total energy  :   -79.6949021 Eh     change       -0.1450572E-01 Eh
   gradient norm :     0.3231008 Eh/α   predicted    -0.1245038E-01 ( -14.17%)
   displ. norm   :     0.6239241 α      lambda       -0.1562002E-01
   maximum displ.:     0.2250523 α      in ANC's #5, #8, #14, ...

........................................................................
.............................. CYCLE   27 ..............................
........................................................................

 iter      E             dE          RMSdq      gap      omega  full diag
   1    -42.6315714 -0.426316E+02  0.522E-01    1.59       0.0  T
   2    -42.6302366  0.133479E-02  0.373E-01    1.30       1.0  T
   3    -42.6313055 -0.106884E-02  0.325E-01    1.65       1.0  T
   4    -42.6336700 -0.236454E-02  0.115E-01    1.46       1.0  T
   5    -42.6338337 -0.163670E-03  0.318E-02    1.48       1.0  T
   6    -42.6338563 -0.226692E-04  0.819E-03    1.48       2.4  T
   7    -42.6338565 -0.109104E-06  0.423E-03    1.48       4.7  T
   8    -42.6338566 -0.196679E-06  0.142E-03    1.48      14.1  T
   9    -42.6338567 -0.250126E-07  0.720E-04    1.48      27.8  T
  10    -42.6338567 -0.211412E-08  0.292E-04    1.48      68.6  T
     SCC iter.                  ...        0 min,  0.014 sec
     gradient                   ...        0 min,  0.013 sec
 * total energy  :   -79.7095736 Eh     change       -0.1467150E-01 Eh
   gradient norm :     0.4473749 Eh/α   predicted    -0.1085037E-01 ( -26.04%)
   displ. norm   :     0.8494394 α      lambda       -0.2561642E-01
   maximum displ.:     0.3064352 α      in ANC's #14, #5, #11, ...

........................................................................
.............................. CYCLE   28 ..............................
........................................................................

 iter      E             dE          RMSdq      gap      omega  full diag
   1    -42.6289255 -0.426289E+02  0.891E-01    1.75       0.0  T
   2    -42.6368854 -0.795983E-02  0.464E-01    1.80       1.0  T
   3    -42.6381825 -0.129716E-02  0.240E-01    1.75       1.0  T
   4    -42.6380796  0.102954E-03  0.116E-01    1.78       1.0  T
   5    -42.6383415 -0.261914E-03  0.192E-02    1.75       1.0  T
   6    -42.6383437 -0.221249E-05  0.136E-02    1.76       1.5  T
   7    -42.6383466 -0.289076E-05  0.603E-03    1.75       3.3  T
   8    -42.6383471 -0.535333E-06  0.244E-03    1.75       8.2  T
   9    -42.6383472 -0.129356E-06  0.705E-04    1.75      28.4  T
  10    -42.6383472 -0.255744E-08  0.325E-04    1.75      61.6  T
     SCC iter.                  ...        0 min,  0.014 sec
     gradient                   ...        0 min,  0.013 sec
 * total energy  :   -79.7279155 Eh     change       -0.1834187E-01 Eh
   gradient norm :     0.2233795 Eh/α   predicted    -0.2204988E-01 (  20.22%)
   displ. norm   :     0.4868347 α      lambda       -0.1747750E-01
   maximum displ.:     0.2656365 α      in ANC's #11, #14, #17, ...

........................................................................
.............................. CYCLE   29 ..............................
........................................................................

 iter      E             dE          RMSdq      gap      omega  full diag
   1    -42.6605277 -0.426605E+02  0.476E-01    1.82       0.0  T
   2    -42.6619683 -0.144060E-02  0.270E-01    1.99       1.0  T
   3    -42.6619851 -0.167926E-04  0.160E-01    1.83       1.0  T
   4    -42.6620402 -0.550592E-04  0.126E-01    1.97       1.0  T
   5    -42.6623950 -0.354869E-03  0.157E-02    1.91       1.3  T
   6    -42.6623985 -0.348887E-05  0.728E-03    1.90       2.7  T
   7    -42.6623987 -0.136547E-06  0.246E-03    1.90       8.1  T
   8    -42.6623987 -0.851654E-07  0.843E-04    1.90      23.7  T
   9    -42.6623987 -0.512955E-08  0.498E-04    1.90      40.2  T
     SCC iter.                  ...        0 min,  0.012 sec
     gradient                   ...        0 min,  0.013 sec
 * total energy  :   -79.7388792 Eh     change       -0.1096369E-01 Eh
   gradient norm :     0.1104610 Eh/α   predicted    -0.1080992E-01 (  -1.40%)
   displ. norm   :     0.3405082 α      lambda       -0.9712352E-02
   maximum displ.:     0.1943648 α      in ANC's #11, #2, #12, ...

........................................................................
.............................. CYCLE   30 ..............................
........................................................................

 iter      E             dE          RMSdq      gap      omega  full diag
   1    -42.6777711 -0.426778E+02  0.341E-01    1.95       0.0  T
   2    -42.6783974 -0.626315E-03  0.194E-01    2.03       1.0  T
   3    -42.6784867 -0.892453E-04  0.106E-01    1.97       1.0  T
   4    -42.6784778  0.892158E-05  0.524E-02    2.02       1.0  T
   5    -42.6785466 -0.688636E-04  0.119E-02    1.99       1.7  T
   6    -42.6785495 -0.286336E-05  0.451E-03    1.99       4.4  T
   7    -42.6785496 -0.537260E-07  0.135E-03    1.99      14.8  T
   8    -42.6785496 -0.138877E-07  0.575E-04    1.99      34.8  T
   9    -42.6785496 -0.234980E-08  0.306E-04    1.99      65.4  T
     SCC iter.                  ...        0 min,  0.013 sec
     gradient                   ...        0 min,  0.011 sec
 * total energy  :   -79.7446368 Eh     change       -0.5757695E-02 Eh
   gradient norm :     0.3617916 Eh/α   predicted    -0.5419245E-02 (  -5.88%)
   displ. norm   :     0.3988622 α      lambda       -0.8231852E-02
   maximum displ.:     0.1602409 α      in ANC's #2, #13, #45, ...

........................................................................
.............................. CYCLE   31 ..............................
........................................................................

 iter      E             dE          RMSdq      gap      omega  full diag
   1    -42.6748115 -0.426748E+02  0.318E-01    1.93       0.0  T
   2    -42.6749508 -0.139286E-03  0.187E-01    1.97       1.0  T
   3    -42.6748331  0.117696E-03  0.108E-01    1.91       1.0  T
   4    -42.6750052 -0.172076E-03  0.363E-02    1.97       1.0  T
   5    -42.6750404 -0.351913E-04  0.808E-03    1.95       2.5  T
   6    -42.6750406 -0.224788E-06  0.527E-03    1.95       3.8  T
   7    -42.6750409 -0.295123E-06  0.134E-03    1.95      14.9  T
   8    -42.6750409 -0.173548E-07  0.619E-04    1.95      32.3  T
   9    -42.6750409 -0.158943E-08  0.334E-04    1.95      59.8  T
     SCC iter.                  ...        0 min,  0.012 sec
     gradient                   ...        0 min,  0.013 sec
 * total energy  :   -79.7455279 Eh     change       -0.8910817E-03 Eh
   gradient norm :     0.4806345 Eh/α   predicted    -0.4770735E-02 ( 435.39%)
   displ. norm   :     0.3864900 α      lambda       -0.8635814E-02
   maximum displ.:     0.1868407 α      in ANC's #5, #8, #3, ...

........................................................................
.............................. CYCLE   32 ..............................
........................................................................

 iter      E             dE          RMSdq      gap      omega  full diag
   1    -42.6651217 -0.426651E+02  0.393E-01    2.02       0.0  T
   2    -42.6665986 -0.147696E-02  0.232E-01    2.07       1.0  T
   3    -42.6668094 -0.210744E-03  0.116E-01    2.04       1.0  T
   4    -42.6667647  0.446864E-04  0.609E-02    2.07       1.0  T
   5    -42.6668337 -0.689595E-04  0.123E-02    2.05       1.6  T
   6    -42.6668355 -0.184080E-05  0.722E-03    2.05       2.8  T
   7    -42.6668358 -0.339790E-06  0.255E-03    2.05       7.8  T
   8    -42.6668360 -0.117935E-06  0.784E-04    2.05      25.5  T
   9    -42.6668360 -0.278723E-08  0.434E-04    2.05      46.1  T
     SCC iter.                  ...        0 min,  0.012 sec
     gradient                   ...        0 min,  0.011 sec
 * total energy  :   -79.7486396 Eh     change       -0.3111681E-02 Eh
   gradient norm :     0.0787292 Eh/α   predicted    -0.4962877E-02 (  59.49%)
   displ. norm   :     0.3345070 α      lambda       -0.6987731E-02
   maximum displ.:     0.1375711 α      in ANC's #5, #9, #8, ...

........................................................................
.............................. CYCLE   33 ..............................
........................................................................

 iter      E             dE          RMSdq      gap      omega  full diag
   1    -42.6767711 -0.426768E+02  0.360E-01    2.02       0.0  T
   2    -42.6770418 -0.270774E-03  0.206E-01    2.03       1.0  T
   3    -42.6770050  0.368148E-04  0.118E-01    2.01       1.0  T
   4    -42.6770794 -0.743563E-04  0.377E-02    2.04       1.0  T
   5    -42.6771222 -0.428355E-04  0.116E-02    2.02       1.7  T
   6    -42.6771241 -0.188835E-05  0.434E-03    2.03       4.6  T
   7    -42.6771242 -0.711621E-07  0.163E-03    2.03      12.2  T
   8    -42.6771242 -0.499853E-07  0.432E-04    2.03      46.3  T
   9    -42.6771242 -0.810147E-09  0.174E-04    2.03     114.9  T
     SCC iter.                  ...        0 min,  0.012 sec
     gradient                   ...        0 min,  0.013 sec
 * total energy  :   -79.7494193 Eh     change       -0.7797372E-03 Eh
   gradient norm :     0.4276601 Eh/α   predicted    -0.3884845E-02 ( 398.22%)
   displ. norm   :     0.1686543 α      lambda       -0.4479954E-02
   maximum displ.:     0.0901842 α      in ANC's #10, #2, #1, ...

........................................................................
.............................. CYCLE   34 ..............................
........................................................................

 iter      E             dE          RMSdq      gap      omega  full diag
   1    -42.6772753 -0.426773E+02  0.178E-01    2.07       0.0  T
   2    -42.6773195 -0.441847E-04  0.998E-02    2.03       1.0  T
   3    -42.6772543  0.651613E-04  0.806E-02    2.08       1.0  T
   4    -42.6773561 -0.101804E-03  0.174E-02    2.05       1.1  T
   5    -42.6773628 -0.667750E-05  0.550E-03    2.05       3.6  T
   6    -42.6773631 -0.318461E-06  0.253E-03    2.05       7.9  T
   7    -42.6773632 -0.657060E-07  0.660E-04    2.05      30.3  T
   8    -42.6773632 -0.393644E-08  0.312E-04    2.05      64.1  T
     SCC iter.                  ...        0 min,  0.011 sec
     gradient                   ...        0 min,  0.013 sec
 * total energy  :   -79.7516892 Eh     change       -0.2269860E-02 Eh
   gradient norm :     0.0549875 Eh/α   predicted    -0.2303795E-02 (   1.50%)
   displ. norm   :     0.2123369 α      lambda       -0.1305384E-02
   maximum displ.:     0.1214909 α      in ANC's #1, #11, #2, ...

........................................................................
.............................. CYCLE   35 ..............................
........................................................................

 iter      E             dE          RMSdq      gap      omega  full diag
   1    -42.6707024 -0.426707E+02  0.164E-01    2.05       0.0  T
   2    -42.6710369 -0.334449E-03  0.914E-02    2.08       1.0  T
   3    -42.6710842 -0.473643E-04  0.465E-02    2.06       1.0  T
   4    -42.6710610  0.232762E-04  0.374E-02    2.08       1.0  T
   5    -42.6710920 -0.310266E-04  0.436E-03    2.07       4.6  T
   6    -42.6710922 -0.186263E-06  0.192E-03    2.07      10.4  T
   7    -42.6710922 -0.137473E-07  0.558E-04    2.07      35.8  T
   8    -42.6710922 -0.159349E-08  0.182E-04    2.07     110.1  T
     SCC iter.                  ...        0 min,  0.011 sec
     gradient                   ...        0 min,  0.012 sec
 * total energy  :   -79.7522468 Eh     change       -0.5576418E-03 Eh
   gradient norm :     0.0926575 Eh/α   predicted    -0.6821540E-03 (  22.33%)
   displ. norm   :     0.1472045 α      lambda       -0.7831939E-03
   maximum displ.:     0.0993793 α      in ANC's #1, #3, #6, ...

........................................................................
.............................. CYCLE   36 ..............................
........................................................................

 iter      E             dE          RMSdq      gap      omega  full diag
   1    -42.6718332 -0.426718E+02  0.624E-02    2.07       0.0  T
   2    -42.6718506 -0.173747E-04  0.383E-02    2.08       1.0  T
   3    -42.6718517 -0.110621E-05  0.201E-02    2.07       1.0  T
   4    -42.6718540 -0.224782E-05  0.107E-02    2.08       1.9  T
   5    -42.6718564 -0.247662E-05  0.182E-03    2.08      11.0  T
   6    -42.6718565 -0.522942E-07  0.105E-03    2.08      19.1  T
   7    -42.6718565 -0.101290E-07  0.382E-04    2.08      52.3  T
   8    -42.6718565 -0.157412E-08  0.116E-04    2.08     172.9  T
     SCC iter.                  ...        0 min,  0.011 sec
     gradient                   ...        0 min,  0.011 sec
 * total energy  :   -79.7528258 Eh     change       -0.5789062E-03 Eh
   gradient norm :     0.0186622 Eh/α   predicted    -0.4001034E-03 ( -30.89%)
   displ. norm   :     0.3007023 α      lambda       -0.9391931E-03
   maximum displ.:     0.2020994 α      in ANC's #1, #3, #6, ...

........................................................................
.............................. CYCLE   37 ..............................
........................................................................

 iter      E             dE          RMSdq      gap      omega  full diag
   1    -42.6756747 -0.426757E+02  0.102E-01    2.11       0.0  T
   2    -42.6756973 -0.226174E-04  0.593E-02    2.12       1.0  T
   3    -42.6756951  0.217006E-05  0.272E-02    2.11       1.0  T
   4    -42.6757025 -0.731950E-05  0.518E-03    2.11       3.9  T
   5    -42.6757030 -0.485054E-06  0.191E-03    2.11      10.5  T
   6    -42.6757030 -0.151632E-07  0.130E-03    2.11      15.3  T
   7    -42.6757030 -0.128379E-07  0.468E-04    2.11      42.7  T
   8    -42.6757030 -0.485712E-08  0.164E-04    2.11     122.2  T
     SCC iter.                  ...        0 min,  0.011 sec
     gradient                   ...        0 min,  0.013 sec
 * total energy  :   -79.7534176 Eh     change       -0.5918259E-03 Eh
   gradient norm :     0.0446186 Eh/α   predicted    -0.5120954E-03 ( -13.47%)
   displ. norm   :     0.2559650 α      lambda       -0.5166359E-03
   maximum displ.:     0.1675795 α      in ANC's #1, #3, #6, ...

........................................................................
.............................. CYCLE   38 ..............................
........................................................................

 iter      E             dE          RMSdq      gap      omega  full diag
   1    -42.6746902 -0.426747E+02  0.775E-02    2.11       0.0  T
   2    -42.6747110 -0.207288E-04  0.467E-02    2.13       1.0  T
   3    -42.6747042  0.681032E-05  0.296E-02    2.11       1.0  T
   4    -42.6747181 -0.139589E-04  0.130E-02    2.12       1.5  T
   5    -42.6747214 -0.328885E-05  0.222E-03    2.12       9.0  T
   6    -42.6747215 -0.694587E-07  0.120E-03    2.12      16.7  T
   7    -42.6747215 -0.509419E-08  0.449E-04    2.12      44.5  T
   8    -42.6747215 -0.238366E-08  0.149E-04    2.12     134.0  T
     SCC iter.                  ...        0 min,  0.011 sec
     gradient                   ...        0 min,  0.013 sec
 * total energy  :   -79.7537806 Eh     change       -0.3629823E-03 Eh
   gradient norm :     0.0501270 Eh/α   predicted    -0.2752553E-03 ( -24.17%)
   displ. norm   :     0.3312470 α      lambda       -0.6048711E-03
   maximum displ.:     0.1956599 α      in ANC's #1, #3, #6, ...

........................................................................
.............................. CYCLE   39 ..............................
........................................................................

 iter      E             dE          RMSdq      gap      omega  full diag
   1    -42.6770927 -0.426771E+02  0.110E-01    2.14       0.0  T
   2    -42.6771543 -0.615600E-04  0.610E-02    2.15       1.0  T
   3    -42.6771550 -0.695830E-06  0.356E-02    2.14       1.0  T
   4    -42.6771589 -0.390177E-05  0.201E-02    2.15       1.0  T
   5    -42.6771690 -0.100785E-04  0.274E-03    2.14       7.3  T
   6    -42.6771691 -0.906286E-07  0.131E-03    2.14      15.3  T
   7    -42.6771691 -0.541156E-08  0.545E-04    2.14      36.7  T
   8    -42.6771691 -0.303474E-08  0.169E-04    2.14     118.3  T
     SCC iter.                  ...        0 min,  0.011 sec
     gradient                   ...        0 min,  0.012 sec
 * total energy  :   -79.7541760 Eh     change       -0.3954337E-03 Eh
   gradient norm :     0.0223116 Eh/α   predicted    -0.3356309E-03 ( -15.12%)
   displ. norm   :     0.2982532 α      lambda       -0.4513977E-03
   maximum displ.:     0.1506275 α      in ANC's #3, #1, #6, ...

........................................................................
.............................. CYCLE   40 ..............................
........................................................................

 iter      E             dE          RMSdq      gap      omega  full diag
   1    -42.6742957 -0.426743E+02  0.115E-01    2.15       0.0  T
   2    -42.6743145 -0.188101E-04  0.686E-02    2.15       1.0  T
   3    -42.6743093  0.520142E-05  0.283E-02    2.14       1.0  T
   4    -42.6743181 -0.873537E-05  0.680E-03    2.15       2.9  T
   5    -42.6743192 -0.108745E-05  0.239E-03    2.15       8.4  T
   6    -42.6743192 -0.617028E-07  0.124E-03    2.15      16.1  T
   7    -42.6743192 -0.114390E-07  0.346E-04    2.15      57.8  T
   8    -42.6743192 -0.160374E-08  0.174E-04    2.15     114.7  T
     SCC iter.                  ...        0 min,  0.011 sec
     gradient                   ...        0 min,  0.012 sec
 * total energy  :   -79.7543294 Eh     change       -0.1533722E-03 Eh
   gradient norm :     0.0288666 Eh/α   predicted    -0.2457929E-03 (  60.26%)
   displ. norm   :     0.1037158 α      lambda       -0.2990561E-03
   maximum displ.:     0.0588607 α      in ANC's #6, #3, #1, ...

........................................................................
.............................. CYCLE   41 ..............................
........................................................................

 iter      E             dE          RMSdq      gap      omega  full diag
   1    -42.6773237 -0.426773E+02  0.491E-02    2.15       0.0  T
   2    -42.6773539 -0.301885E-04  0.331E-02    2.15       1.0  T
   3    -42.6773604 -0.657151E-05  0.176E-02    2.15       1.1  T
   4    -42.6773581  0.235027E-05  0.137E-02    2.16       1.5  T
   5    -42.6773620 -0.389781E-05  0.167E-03    2.15      11.9  T
   6    -42.6773620 -0.368538E-07  0.823E-04    2.15      24.3  T
   7    -42.6773620 -0.228381E-08  0.376E-04    2.15      53.2  T
     SCC iter.                  ...        0 min,  0.010 sec
     gradient                   ...        0 min,  0.012 sec
 * total energy  :   -79.7545100 Eh     change       -0.1806127E-03 Eh
   gradient norm :     0.0479555 Eh/α   predicted    -0.1511606E-03 ( -16.31%)
   displ. norm   :     0.1161786 α      lambda       -0.1527767E-03
   maximum displ.:     0.0734497 α      in ANC's #6, #3, #1, ...

........................................................................
.............................. CYCLE   42 ..............................
........................................................................

 iter      E             dE          RMSdq      gap      omega  full diag
   1    -42.6774620 -0.426775E+02  0.494E-02    2.15       0.0  T
   2    -42.6774778 -0.157867E-04  0.284E-02    2.16       1.0  T
   3    -42.6774797 -0.188610E-05  0.174E-02    2.15       1.2  T
   4    -42.6774815 -0.180041E-05  0.101E-02    2.16       2.0  T
   5    -42.6774835 -0.203917E-05  0.128E-03    2.16      15.6  T
   6    -42.6774835 -0.176604E-07  0.721E-04    2.16      27.8  T
   7    -42.6774835 -0.312496E-08  0.285E-04    2.16      70.1  T
     SCC iter.                  ...        0 min,  0.010 sec
     gradient                   ...        0 min,  0.011 sec
 * total energy  :   -79.7546128 Eh     change       -0.1028218E-03 Eh
   gradient norm :     0.0286636 Eh/α   predicted    -0.7742354E-04 ( -24.70%)
   displ. norm   :     0.1517945 α      lambda       -0.2035376E-03
   maximum displ.:     0.1032217 α      in ANC's #6, #3, #12, ...
 * RMSD in coord.:     0.8460437 α      energy gain  -0.1567972E+00 Eh

generating ANC from model Hessian ...
Using Lindh-Hessian (1995)
 Shifting diagonal of input Hessian by    7.5133274913490710E-003
 Lowest  eigenvalues of input Hessian
    0.000000    0.000000    0.000000    0.000000    0.000000    0.000000
    0.010000    0.011144    0.013656    0.014068    0.015497    0.017788
    0.018631    0.020647    0.023677    0.026098    0.029524    0.032546
 Highest eigenvalues
    2.148240    2.200069    2.344402    2.396133   44.287789   57.384435


........................................................................
.............................. CYCLE   43 ..............................
........................................................................

 iter      E             dE          RMSdq      gap      omega  full diag
   1    -42.6781567 -0.426782E+02  0.575E-02    2.15       0.0  T
   2    -42.6781606 -0.396023E-05  0.345E-02    2.16       1.0  T
   3    -42.6781544  0.619492E-05  0.234E-02    2.15       1.0  T
   4    -42.6781647 -0.103015E-04  0.541E-03    2.16       3.7  T
   5    -42.6781654 -0.606429E-06  0.159E-03    2.16      12.6  T
   6    -42.6781654 -0.306417E-07  0.788E-04    2.16      25.4  T
   7    -42.6781654 -0.406003E-08  0.267E-04    2.16      75.0  T
     SCC iter.                  ...        0 min,  0.010 sec
     gradient                   ...        0 min,  0.011 sec
 * total energy  :   -79.7547420 Eh     change       -0.1292215E-03 Eh
   gradient norm :     0.0421917 Eh/α   predicted     0.0000000E+00 (-100.00%)
   displ. norm   :     0.2770194 α      lambda       -0.8934123E-02
   maximum displ.:     0.1839613 α      in ANC's #25, #17, #26, ...

........................................................................
.............................. CYCLE   44 ..............................
........................................................................

 iter      E             dE          RMSdq      gap      omega  full diag
   1    -42.7026687 -0.427027E+02  0.268E-01    2.16       0.0  T
   2    -42.7029015 -0.232850E-03  0.133E-01    2.18       1.0  T
   3    -42.7029004  0.111517E-05  0.778E-02    2.16       1.0  T
   4    -42.7029336 -0.331593E-04  0.265E-02    2.18       1.0  T
   5    -42.7029438 -0.102514E-04  0.120E-02    2.17       1.7  T
   6    -42.7029448 -0.938119E-06  0.571E-03    2.17       3.5  T
   7    -42.7029451 -0.295571E-06  0.103E-03    2.17      19.4  T
   8    -42.7029451 -0.193637E-07  0.469E-04    2.17      42.6  T
   9    -42.7029451 -0.717911E-09  0.190E-04    2.17     105.5  T
     SCC iter.                  ...        0 min,  0.012 sec
     gradient                   ...        0 min,  0.013 sec
 * total energy  :   -78.1274657 Eh     change        0.1627276E+01 Eh
   gradient norm :    11.5622759 Eh/α   predicted    -0.4810045E-02 (-100.30%)
   displ. norm   :     0.2198513 α      lambda       -0.2513992E+01
   maximum displ.:     0.1544331 α      in ANC's #25, #26, #17, ...

........................................................................
.............................. CYCLE   45 ..............................
........................................................................

 iter      E             dE          RMSdq      gap      omega  full diag
   1    -42.6705608 -0.426706E+02  0.258E-01    2.19       0.0  T
   2    -42.6709060 -0.345192E-03  0.126E-01    2.15       1.0  T
   3    -42.6709211 -0.150814E-04  0.841E-02    2.18       1.0  T
   4    -42.6709496 -0.284990E-04  0.398E-02    2.16       1.0  T
   5    -42.6709808 -0.312556E-04  0.992E-03    2.17       2.0  T
   6    -42.6709815 -0.693276E-06  0.599E-03    2.17       3.3  T
   7    -42.6709817 -0.217236E-06  0.133E-03    2.17      15.0  T
   8    -42.6709818 -0.228513E-07  0.641E-04    2.17      31.2  T
   9    -42.6709818 -0.193240E-08  0.235E-04    2.17      85.0  T
     SCC iter.                  ...        0 min,  0.012 sec
     gradient                   ...        0 min,  0.013 sec
 * total energy  :   -79.7463871 Eh     change       -0.1618921E+01 Eh
   gradient norm :     1.0842090 Eh/α   predicted    -0.1317753E+01 ( -18.60%)
   displ. norm   :     0.0698177 α      lambda       -0.2693978E-01
   maximum displ.:     0.0396860 α      in ANC's #17, #25, #21, ...

........................................................................
.............................. CYCLE   46 ..............................
........................................................................

 iter      E             dE          RMSdq      gap      omega  full diag
   1    -42.6729720 -0.426730E+02  0.715E-02    2.16       0.0  T
   2    -42.6730318 -0.597193E-04  0.496E-02    2.17       1.0  T
   3    -42.6730409 -0.912215E-05  0.268E-02    2.16       1.0  T
   4    -42.6730394  0.148545E-05  0.106E-02    2.17       1.9  T
   5    -42.6730416 -0.216891E-05  0.318E-03    2.17       6.3  T
   6    -42.6730417 -0.120149E-06  0.181E-03    2.17      11.0  T
   7    -42.6730417 -0.315515E-07  0.455E-04    2.17      43.9  T
   8    -42.6730417 -0.247763E-08  0.216E-04    2.17      92.5  T
     SCC iter.                  ...        0 min,  0.011 sec
     gradient                   ...        0 min,  0.013 sec
 * total energy  :   -79.7487476 Eh     change       -0.2360484E-02 Eh
   gradient norm :     1.0810079 Eh/α   predicted    -0.1353543E-01 ( 473.42%)
   displ. norm   :     0.0310807 α      lambda       -0.1215619E-01
   maximum displ.:     0.0150063 α      in ANC's #9, #17, #2, ...

........................................................................
.............................. CYCLE   47 ..............................
........................................................................

 iter      E             dE          RMSdq      gap      omega  full diag
   1    -42.6764452 -0.426764E+02  0.327E-02    2.16       0.0  T
   2    -42.6764544 -0.913805E-05  0.172E-02    2.17       1.2  T
   3    -42.6764551 -0.765210E-06  0.955E-03    2.17       2.1  T
   4    -42.6764549  0.257529E-06  0.585E-03    2.17       3.4  T
   5    -42.6764557 -0.769899E-06  0.101E-03    2.17      19.8  T
   6    -42.6764557 -0.938964E-08  0.505E-04    2.17      39.6  T
   7    -42.6764557 -0.117359E-08  0.198E-04    2.17     101.1  T
     SCC iter.                  ...        0 min,  0.009 sec
     gradient                   ...        0 min,  0.013 sec
 * total energy  :   -79.7547614 Eh     change       -0.6013789E-02 Eh
   gradient norm :     0.0232177 Eh/α   predicted    -0.6083994E-02 (   1.17%)
   displ. norm   :     0.0486245 α      lambda       -0.2628608E-03
   maximum displ.:     0.0258529 α      in ANC's #2, #9, #17, ...

........................................................................
.............................. CYCLE   48 ..............................
........................................................................

 iter      E             dE          RMSdq      gap      omega  full diag
   1    -42.6777982 -0.426778E+02  0.319E-02    2.17       0.0  T
   2    -42.6778053 -0.709256E-05  0.176E-02    2.17       1.1  T
   3    -42.6778061 -0.746791E-06  0.975E-03    2.17       2.1  T
   4    -42.6778060  0.496133E-07  0.528E-03    2.17       3.8  T
   5    -42.6778066 -0.611279E-06  0.108E-03    2.17      18.6  T
   6    -42.6778067 -0.192149E-07  0.506E-04    2.17      39.6  T
   7    -42.6778067 -0.122986E-08  0.161E-04    2.17     124.4  T
     SCC iter.                  ...        0 min,  0.010 sec
     gradient                   ...        0 min,  0.011 sec
 * total energy  :   -79.7549669 Eh     change       -0.2055650E-03 Eh
   gradient norm :     0.0165723 Eh/α   predicted    -0.1317616E-03 ( -35.90%)
   displ. norm   :     0.1076948 α      lambda       -0.2737504E-03
   maximum displ.:     0.0614489 α      in ANC's #2, #7, #9, ...

........................................................................
.............................. CYCLE   49 ..............................
........................................................................

 iter      E             dE          RMSdq      gap      omega  full diag
   1    -42.6789399 -0.426789E+02  0.530E-02    2.18       0.0  T
   2    -42.6789530 -0.130727E-04  0.294E-02    2.19       1.0  T
   3    -42.6789536 -0.643795E-06  0.168E-02    2.18       1.2  T
   4    -42.6789547 -0.111565E-05  0.800E-03    2.18       2.5  T
   5    -42.6789561 -0.138614E-05  0.170E-03    2.18      11.8  T
   6    -42.6789562 -0.487484E-07  0.827E-04    2.18      24.2  T
   7    -42.6789562 -0.334888E-08  0.287E-04    2.18      69.8  T
     SCC iter.                  ...        0 min,  0.010 sec
     gradient                   ...        0 min,  0.012 sec
 * total energy  :   -79.7551375 Eh     change       -0.1705744E-03 Eh
   gradient norm :     0.0115231 Eh/α   predicted    -0.1384725E-03 ( -18.82%)
   displ. norm   :     0.0459736 α      lambda        0.1772673E-04
   maximum displ.:     0.0250634 α      in ANC's #2, #9, #7, ...

........................................................................
.............................. CYCLE   50 ..............................
[...]
C           -1.32022619851629       -2.87801719059760       -0.84283089896922
H            2.91202148899693        1.44393150008353        1.24718872221574
H            4.02492144451261        0.83982891780929        0.00024493809230
H            2.65363242520091        1.89584004447813       -0.43974033391762
H            3.61782798372214       -1.61315317639828       -0.09328268106156
H           -1.70528792357928        3.02941419153286       -0.30601829158680
H           -2.87751253853479        1.80546364079514       -0.85330796272265
H           -2.89709048081799        2.32877191213213        0.83453720463588
H           -1.49524847645022       -0.18482666752097        1.35133105678690
H           -0.73884283960822       -3.51217065343016       -1.51009760954749
H           -2.36194813148348       -3.11926112937382       -0.69784320130162
H            1.59766271457026       -3.13210654588863       -0.38106068708264

 Bond Distances (Angstroems)
 ---------------------------
C1-N2=1.4380         C1-H15=1.0913        C1-H16=1.0871        C1-H17=1.0910        N2-C1=1.4380         N2-C3=1.3237         
N2-C6=1.3748         C3-N2=1.3237         C3-N4=1.3381         C3-H18=1.0734        N4-C3=1.3381         N4-C5=1.3820         
N4-H25=1.0105        C5-N4=1.3820         C5-C6=1.3952         C5-N13=1.3435        C6-N2=1.3748         C6-C5=1.3952         
C6-C7=1.4890         C7-C6=1.4890         C7-O8=1.2118         C7-N9=1.3668         O8-C7=1.2118         N9-C7=1.3668         
N9-C10=1.4455        N9-C11=1.4850        C10-N9=1.4455        C10-H19=1.0876       C10-H20=1.0912       C10-H21=1.0893       
C11-N9=1.4850        C11-O12=1.2348       C11-H22=0.3198       O12-C11=1.2348       N13-C5=1.3435        N13-C14=1.2697       
C14-N13=1.2697       C14-H23=1.0888       C14-H24=1.0791       H15-C1=1.0913        H16-C1=1.0871        H17-C1=1.0910        
H18-C3=1.0734        H19-C10=1.0876       H20-C10=1.0912       H21-C10=1.0893       H22-C11=0.3198       H23-C14=1.0888       
H24-C14=1.0791       H25-N4=1.0105        
 C  H  Rav=1.0099 sigma=0.2301  Rmin=0.3198  Rmax=1.0913    10
 C  C  Rav=1.4421 sigma=0.0469  Rmin=1.3952  Rmax=1.4890     2
 N  H  Rav=1.0105 sigma=0.0000  Rmin=1.0105  Rmax=1.0105     1
 N  C  Rav=1.3767 sigma=0.0610  Rmin=1.2697  Rmax=1.4850    10
 O  C  Rav=1.2233 sigma=0.0115  Rmin=1.2118  Rmax=1.2348     2

 selected bond angles (degree)
 --------------------
H15-C1-N2=110.16               H16-C1-N2=109.75               H16-C1-H15=109.33              H17-C1-N2=109.44               
H17-C1-H15=107.99              H17-C1-H16=110.15              C3-N2-C1=125.48                C6-N2-C1=125.62                
C6-N2-C3=108.86                N4-C3-N2=109.53                H18-C3-N2=125.32               H18-C3-N4=125.15               
C5-N4-C3=108.75                H25-N4-C3=125.52               H25-N4-C5=125.67               C6-C5-N4=105.88                
N13-C5-N4=127.22               N13-C5-C6=126.74               C5-C6-N2=106.94                C7-C6-N2=122.72                
C7-C6-C5=128.83                O8-C7-C6=120.45                N9-C7-C6=115.57                N9-C7-O8=123.89                
C10-N9-C7=119.18               C11-N9-C7=120.86               C11-N9-C10=119.72              H19-C10-N9=109.38              
H20-C10-N9=109.78              H20-C10-H19=109.65             H21-C10-N9=108.89              H21-C10-H19=110.84             
H21-C10-H20=108.29             

 selected dihedral angles (degree)
 ---------------------------------
C3-N2-C1-H15=253.00           C3-N2-C1-H16= 13.44           C3-N2-C1-H17=134.42           C6-N2-C1-H15= 70.49           
C6-N2-C1-H16=190.93           C6-N2-C1-H17=311.91           N4-C3-N2-C1=179.98            N4-C3-N2-C6=  2.14            
H18-C3-N2-C1=  0.22           H18-C3-N2-C6=182.37           C5-N4-C3-N2=358.74            C5-N4-C3-H18=178.50           
H25-N4-C3-N2=181.30           H25-N4-C3-H18=  1.06          C6-C5-N4-C3=359.90            C6-C5-N4-H25=177.34           
N13-C5-N4-C3=184.20           N13-C5-N4-H25=  1.64          C5-C6-N2-C1=180.00            C5-C6-N2-C3=357.84            
C7-C6-N2-C1= 12.93            C7-C6-N2-C3=190.77            N2-C6-C5-N4=  1.35            N2-C6-C5-N13=177.08           
C7-C6-C5-N4=167.38            C7-C6-C5-N13=343.11           O8-C7-C6-N2= 24.61            O8-C7-C6-C5=220.55            
N9-C7-C6-N2=201.35            N9-C7-C6-C5= 37.29            C10-N9-C7-C6=194.53           C10-N9-C7-O8= 11.15           
C11-N9-C7-C6= 20.10           C11-N9-C7-O8=196.72           H19-C10-N9-C7=340.56          H19-C10-N9-C11=155.05         
H20-C10-N9-C7=100.92          H20-C10-N9-C11=275.41         H21-C10-N9-C7=219.31          H21-C10-N9-C11= 33.80         
           -------------------------------------------------
          |                Final Singlepoint                |
           -------------------------------------------------

          ...................................................
          :                      SETUP                      :
          :.................................................:
          :  # basis functions                  67          :
          :  # atomic orbitals                  67          :
          :  # shells                           39          :
          :  # electrons                        74          :
          :  max. iterations                   250          :
          :  Hamiltonian                  GFN2-xTB          :
          :  restarted?                      false          :
          :  GBSA solvation                  false          :
          :  PC potential                    false          :
          :  electronic temp.         5000.0000000     K    :
          :  accuracy                    1.0000000          :
          :  -> integral cutoff          0.2500000E+02      :
          :  -> integral neglect         0.1000000E-07      :
          :  -> SCF convergence          0.1000000E-05 Eh   :
          :  -> wf. convergence          0.1000000E-03 e    :
          :  Broyden damping             0.4000000          :
          ...................................................

 iter      E             dE          RMSdq      gap      omega  full diag
   1    -42.6826050 -0.426826E+02  0.608E-05    2.41       0.0  T
   2    -42.6826050 -0.182112E-10  0.423E-05    2.41     473.3  T
   3    -42.6826050 -0.249187E-10  0.235E-05    2.41     851.2  T

   *** convergence criteria satisfied after 3 iterations ***

         #    Occupation            Energy/Eh            Energy/eV
      -------------------------------------------------------------
         1        2.0000           -0.9124606             -24.8293
       ...           ...                  ...                  ...
        31        1.9990           -0.6167718             -16.7832
        32        1.9960           -0.5951846             -16.1958
        33        1.9955           -0.5932885             -16.1442
        34        1.9804           -0.5698947             -15.5076
        35        1.9641           -0.5601830             -15.2434
        36        1.9428           -0.5526161             -15.0374
        37        1.9192           -0.5469615             -14.8836 (HOMO)
        38        0.1624           -0.4583919             -12.4735 (LUMO)
        39        0.0339           -0.4325231             -11.7696
        40        0.0074           -0.4081062             -11.1051
        41        0.0006           -0.3686149             -10.0305
        42        0.0000           -0.3215495              -8.7498
       ...           ...                  ...                  ...
        67                         21.1114970             574.4731
      -------------------------------------------------------------
                  HL-Gap            0.0885696 Eh            2.4101 eV
             Fermi-level           -0.4968080 Eh          -13.5188 eV

 SCC (total)                   0 d,  0 h,  0 min,  0.021 sec
 SCC setup                      ...        0 min,  0.000 sec (  0.761%)
 Dispersion                     ...        0 min,  0.000 sec (  0.679%)
 classical contributions        ...        0 min,  0.000 sec (  0.272%)
 integral evaluation            ...        0 min,  0.004 sec ( 17.525%)
 iterations                     ...        0 min,  0.004 sec ( 21.454%)
 molecular gradient             ...        0 min,  0.012 sec ( 58.681%)
 printout                       ...        0 min,  0.000 sec (  0.577%)

         :::::::::::::::::::::::::::::::::::::::::::::::::::::
         ::                     SUMMARY                     ::
         :::::::::::::::::::::::::::::::::::::::::::::::::::::
         :: total energy             -79.756889645722 Eh    ::
         :: gradient norm              0.002055786283 Eh/a0 ::
         :: HOMO-LUMO gap              2.410101583180 eV    ::
         ::.................................................::
         :: SCC energy               -42.682604980634 Eh    ::
         :: -> isotropic ES            0.138054903375 Eh    ::
         :: -> anisotropic ES         -0.005224785444 Eh    ::
         :: -> anisotropic XC          0.019330960239 Eh    ::
         :: -> dispersion             -0.022415733584 Eh    ::
         :: repulsion energy           4.049051546666 Eh    ::
         :: add. restraining         -41.123523315189 Eh    ::
         :: total charge               1.000000000001 e     ::
         :::::::::::::::::::::::::::::::::::::::::::::::::::::

           -------------------------------------------------
          |                Property Printout                |
           -------------------------------------------------

    * Orbital Energies and Occupations

         #    Occupation            Energy/Eh            Energy/eV
      -------------------------------------------------------------
         1        2.0000           -0.9124606             -24.8293
       ...           ...                  ...                  ...
        25        2.0000           -0.6646555             -18.0862
        26        1.9999           -0.6609381             -17.9850
        27        1.9999           -0.6542666             -17.8035
        28        1.9999           -0.6477966             -17.6274
        29        1.9997           -0.6388026             -17.3827
        30        1.9994           -0.6263070             -17.0427
        31        1.9990           -0.6167718             -16.7832
        32        1.9960           -0.5951846             -16.1958
        33        1.9955           -0.5932885             -16.1442
        34        1.9804           -0.5698947             -15.5076
        35        1.9641           -0.5601830             -15.2434
        36        1.9428           -0.5526161             -15.0374
        37        1.9192           -0.5469615             -14.8836 (HOMO)
        38        0.1624           -0.4583919             -12.4735 (LUMO)
        39        0.0339           -0.4325231             -11.7696
        40        0.0074           -0.4081062             -11.1051
        41        0.0006           -0.3686149             -10.0305
        42        0.0000           -0.3215495              -8.7498
        43                         -0.1913211              -5.2061
        44                         -0.1762399              -4.7957
        45                         -0.1491746              -4.0592
        46                         -0.0872481              -2.3741
        47                         -0.0545923              -1.4855
        48                         -0.0473668              -1.2889
       ...                                ...                  ...
        67                         21.1114970             574.4731
      -------------------------------------------------------------
                  HL-Gap            0.0885696 Eh            2.4101 eV
             Fermi-level           -0.4968080 Eh          -13.5188 eV

     #   Z          covCN         q      C6AA      α(0)
     1   6 C        3.693    -0.094    22.490     6.785
     2   7 N        2.844     0.090    19.690     6.590
     3   6 C        3.031     0.061    26.597     8.459
     4   7 N        2.802    -0.060    22.401     7.029
     5   6 C        3.019     0.122    25.308     8.252
     6   6 C        3.092    -0.015    28.285     8.717
     7   6 C        2.761     0.274    22.372     7.746
     8   8 O        0.859    -0.359    20.870     6.125
     9   7 N        2.747    -0.095    23.093     7.137
    10   6 C        3.695    -0.061    21.851     6.687
    11   6 C        2.699     0.170    24.329     8.073
    12   8 O        0.893    -0.302    19.806     5.968
    13   7 N        1.825    -0.159    25.236     7.444
    14   6 C        2.792     0.038    27.144     8.534
    15   1 H        0.924     0.111     1.688     2.032
    16   1 H        0.925     0.102     1.770     2.080
    17   1 H        0.924     0.141     1.452     1.884
    18   1 H        0.926     0.125     1.577     1.964
    19   1 H        0.925     0.106     1.732     2.058
    20   1 H        0.924     0.096     1.819     2.109
    21   1 H        0.925     0.105     1.739     2.062
    22   1 H        0.981     0.193     1.133     1.663
    23   1 H        0.925     0.068     2.102     2.267
    24   1 H        0.926     0.118     1.631     1.997
    25   1 H        0.860     0.227     0.977     1.548

 Mol. C6AA /au·bohr⁶  :       6640.589013
 Mol. C8AA /au·bohr⁸  :     152980.936154
 Mol. α(0) /au        :        125.212961


Wiberg/Mayer (AO) data.
largest (>0.10) Wiberg bond orders for each atom

 ---------------------------------------------------------------------------
     #   Z sym  total        # sym  WBO       # sym  WBO       # sym  WBO
 ---------------------------------------------------------------------------
     1   6 C    3.915 --     2 N    0.987    16 H    0.974    15 H    0.954
                            17 H    0.947
     2   7 N    3.713 --     3 C    1.392     6 C    1.187     1 C    0.987
     3   6 C    3.906 --     2 N    1.392     4 N    1.322    18 H    0.950
     4   7 N    3.596 --     3 C    1.322     5 C    1.147    25 H    0.920
     5   6 C    3.916 --     6 C    1.378    13 N    1.209     4 N    1.147
     6   6 C    3.880 --     5 C    1.378     2 N    1.187     7 C    0.994
     7   6 C    3.941 --     8 O    1.687     9 N    1.176     6 C    0.994
     8   8 O    2.017 --     7 C    1.687     9 N    0.144
     9   7 N    3.521 --     7 C    1.176    11 C    1.018    10 C    0.989
                            12 O    0.152     8 O    0.144
    10   6 C    3.911 --     9 N    0.989    19 H    0.963    21 H    0.961
                            20 H    0.950
    11   6 C    3.879 --    12 O    1.826     9 N    1.018    22 H    0.942
    12   8 O    2.073 --    11 C    1.826     9 N    0.152
    13   7 N    3.159 --    14 C    1.777     5 C    1.209
    14   6 C    3.804 --    13 N    1.777    24 H    0.956    23 H    0.949
    15   1 H    0.986 --     1 C    0.954
    16   1 H    0.989 --     1 C    0.974
    17   1 H    0.978 --     1 C    0.947
    18   1 H    0.984 --     3 C    0.950
    19   1 H    0.983 --    10 C    0.963
    20   1 H    0.974 --    10 C    0.950
    21   1 H    0.981 --    10 C    0.961
    22   1 H    0.959 --    11 C    0.942
    23   1 H    0.984 --    14 C    0.949
    24   1 H    0.981 --    14 C    0.956
    25   1 H    0.948 --     4 N    0.920
 ---------------------------------------------------------------------------

Topologies differ in total number of bonds
Writing topology from bond orders to xtbtopo.mol

molecular dipole:
                 x           y           z       tot (Debye)
 q only:        2.518      -1.975      -0.151
   full:        2.916      -2.592      -0.340       9.955
molecular quadrupole (traceless):
                xx          xy          yy          xz          yz          zz
 q only:       11.485      -7.590       7.134       5.458       6.968     -18.619
  q+dip:        8.926     -10.397       9.614       6.546      10.103     -18.540
   full:        7.833     -10.286       9.019       7.251       9.768     -16.851

           -------------------------------------------------
          |                Geometry Summary                 |
           -------------------------------------------------

      molecular mass/u    :      195.1988581
   center of mass at/Å    :        0.0050731      -0.1069224       0.0659900
  moments of inertia/u·Å² :        0.5382309E+03   0.7630344E+03   0.1172453E+04
rotational constants/cm⁻¹ :        0.3132045E-01   0.2209289E-01   0.1437809E-01

 * 23 selected distances

     #   Z          #   Z                                           value/Å
     1   6 C        2   7 N                                       1.4379506
     2   7 N        3   6 C                                       1.3237468
     3   6 C        4   7 N                                       1.3380538
     4   7 N        5   6 C                                       1.3820188
     2   7 N        6   6 C                                       1.3747975
     5   6 C        6   6 C                                       1.3952397
     7   6 C        8   8 O                                       1.2117851
     7   6 C        9   7 N                                       1.3668497
     9   7 N       10   6 C                                       1.4454840 (max)
    11   6 C       12   8 O                                       1.2348494
     5   6 C       13   7 N                                       1.3434784
    13   7 N       14   6 C                                       1.2696677
     1   6 C       15   1 H                                       1.0912849
     1   6 C       16   1 H                                       1.0871389
     1   6 C       17   1 H                                       1.0909984
     3   6 C       18   1 H                                       1.0734016
    10   6 C       19   1 H                                       1.0876011
    10   6 C       20   1 H                                       1.0911812
    10   6 C       21   1 H                                       1.0892631
    11   6 C       22   1 H                                       0.3198419 (min)
    14   6 C       23   1 H                                       1.0887618
    14   6 C       24   1 H                                       1.0790759
     4   7 N       25   1 H                                       1.0105411

 * 5 distinct bonds (by element types)

   Z      Z             #   av. dist./Å        max./Å        min./Å
   1 H    6 C          10     1.0098549     1.0912849     0.3198419
   6 C    6 C           1     1.3952397     1.3952397     1.3952397
   1 H    7 N           1     1.0105411     1.0105411     1.0105411
   6 C    7 N           9     1.3646719     1.4454840     1.2696677
   6 C    8 O           2     1.2233172     1.2348494     1.2117851


optimized geometry written to: xtbopt.xyz


           -------------------------------------------------
          | TOTAL ENERGY              -79.756889645722 Eh   |
          | GRADIENT NORM               0.002055786283 Eh/α |
          | HOMO-LUMO GAP               2.410101583180 eV   |
           -------------------------------------------------

------------------------------------------------------------------------
 * finished run on 2024/06/05 at 19:58:01.282     
------------------------------------------------------------------------
 total:
 * wall-time:     0 d,  0 h,  0 min,  2.375 sec
 *  cpu-time:     0 d,  0 h,  0 min,  2.354 sec
 * ratio c/w:     0.991 speedup
 SCF:
 * wall-time:     0 d,  0 h,  0 min,  0.035 sec
 *  cpu-time:     0 d,  0 h,  0 min,  0.035 sec
 * ratio c/w:     1.000 speedup
 ANC optimizer:
 * wall-time:     0 d,  0 h,  0 min,  2.312 sec
 *  cpu-time:     0 d,  0 h,  0 min,  2.309 sec
 * ratio c/w:     0.999 speedup

