25
 energy: -42.159377536530 gnorm: 0.006424386372 xtb: 6.6.1 (8d0f1dd)
C            2.92893914472107        1.08872428201097        0.25631835783118
N            2.11731067054506       -0.07792694912161        0.03724188805570
C            2.56656440402463       -1.31382584693594       -0.11165049879067
N            1.53345842181394       -2.14336243393640       -0.29962887494466
C            0.35855461651479       -1.41480616217079       -0.24319615927355
C            0.74194169395143       -0.09482613400613       -0.00282400147143
C           -0.06105261394192        1.15245883316928       -0.12979175950195
O            0.40414227558305        2.10772426191401       -0.71038857197650
N           -1.34117868933802        1.12165476980149        0.36376146971743
C           -2.26327593539769        2.15174104311522       -0.08595804662489
C           -1.78882580917416        0.25468404335354        1.33857884682958
O           -2.92000743775697        0.22227193132782        1.71924146851027
N           -0.88736408247133       -1.90813350847509       -0.29630429075357
C           -1.29847112387052       -2.91516507725430       -0.94878526232592
H            2.79277368275427        1.45572563199476        1.27480400137477
H            3.97585651206700        0.84232115481865        0.09911933029390
H            2.62370174300645        1.87847663315513       -0.43190163376387
H            3.59848736808978       -1.60681269280343       -0.07853975551278
H           -1.69554248623279        3.02550708498683       -0.40027560175928
H           -2.85262372541131        1.78202146043827       -0.92659180284235
H           -2.93847587625162        2.40675132254777        0.72779735466498
H           -1.00042292496366       -0.36519854578504        1.78101383748315
H           -0.70883622309611       -3.47372448225588       -1.67625644451926
H           -2.32406697131352       -3.21408724753056       -0.79964863529969
H            1.59884488024818       -3.14395483075632       -0.42496359750578
