25
 energy: -41.174537300144 gnorm: 5.849883227934 xtb: 6.6.1 (8d0f1dd)
C            3.08190561027048        0.16319338098811        0.77839687425957
N            2.32433103033121        0.58310186817457       -0.43457494221010
C            2.75457750729794       -0.85651520512379       -0.24053503800191
N            1.59167950605510       -1.63375768678929       -0.06031975410076
C            0.50019981824452       -0.79569419945642       -0.06112946825808
C            0.88678488305160        0.50485537542888       -0.27499553963092
C           -0.04418097234379        1.60154869835178       -0.35950571240776
O            0.24966659285160        2.75369972228236       -0.56263790596074
N           -1.35585732882461        1.15456949869869       -0.17116365530738
C           -2.41705270843430        2.15331341240205       -0.22224393873242
C           -1.78221480887270       -0.13373074969889        0.05626443414848
O           -2.93387856100684       -0.42586912684487        0.20556115841324
N           -0.77898567068906       -1.14140495958664        0.10680717743092
C           -1.18720638561452       -2.51635509650220        0.31922385151914
H            2.53483650993312        0.18498034012746        1.71105963445366
H            2.51892044763271        0.90781910347398       -0.75671515795169
H            4.09341551154576        0.54249956003898        0.83185100030998
H            3.53019402396261       -1.26235334311986       -0.88141090429055
H           -1.95425119445717        3.12641551440963       -0.36522478098509
H           -3.09319868390689        1.93208573228345       -1.04716530262351
H           -2.98506730370641        2.13387597208540        0.70665542391341
H           -0.66030898346357       -2.93937627665484        1.17379179300790
H           -0.99957075979971       -3.11510125153024       -0.57264199081771
H           -2.25817232634026       -2.51065984266400        0.51936476019833
H            1.54386576038598       -2.59290189917348       -0.36754039847558
25
 energy: -42.153863750442 gnorm: 0.194142202737 xtb: 6.6.1 (8d0f1dd)
C            3.08164759594726        0.15556573278349        0.78872471821417
N            2.22369011758509        0.41640440752330       -0.26732009029376
C            2.75360529512917       -0.86786946425535       -0.23417513062773
N            1.59126439268018       -1.63563793586924       -0.05993871189210
C            0.49813434836581       -0.79701714060824       -0.06067043583454
C            0.87773122322043        0.49709006550950       -0.26739152707559
C           -0.04398337872202        1.60160723546097       -0.35997272850067
O            0.24992129518697        2.75368371259536       -0.56249183125189
N           -1.35591373208900        1.15467432936486       -0.17127375874430
C           -2.41706152303001        2.15332893698294       -0.22225150304914
C           -1.78222750125060       -0.13373311022488        0.05626679145804
O           -2.93388144469267       -0.42585845127957        0.20556327189062
N           -0.77932573877804       -1.14159856032062        0.10670623594355
C           -1.18722043985549       -2.51636059883507        0.31924212529059
H            2.53531794778114        0.18482135403439        1.71223580604924
H            2.63234843956741        1.10344323820157       -0.94823982639539
H            4.09299343464035        0.54302412240169        0.83092758108121
H            3.53015451101161       -1.26153225178998       -0.88187254391116
H           -1.95424497015447        3.12641800008900       -0.36522685269667
H           -3.09319871744763        1.93208778623168       -1.04716310598814
H           -2.98506224152734        2.13387952608511        0.70665813445399
H           -0.66030497797854       -2.93936949683351        1.17377685483004
H           -0.99957491366899       -3.11511337869531       -0.57263631813542
H           -2.25816929858464       -2.51065415836300        0.51936643663454
H            1.54379179076682       -2.59304535858828       -0.36767197354905
25
 energy: -42.177490115032 gnorm: 0.087584855772 xtb: 6.6.1 (8d0f1dd)
C            3.09754910963903        0.14890968823507        0.80801907788513
N            2.26525570466528        0.48659957979435       -0.30830284690580
C            2.74848428280460       -0.86840133543315       -0.23329302281897
N            1.57755972577519       -1.65076196155873       -0.04728401641778
C            0.48391942300650       -0.81052121884187       -0.06462217703374
C            0.86981154947504        0.49709598973914       -0.27903617791865
C           -0.05012544817952        1.59900578006644       -0.36055419892546
O            0.24751752552872        2.75040841795356       -0.56461295445606
N           -1.36047830022060        1.15134035048455       -0.17341123231518
C           -2.41877036409755        2.15286748369013       -0.22307645921295
C           -1.78927884887654       -0.13783570405139        0.05465812606467
O           -2.94137465500133       -0.42490165044585        0.20683546042582
N           -0.79319164304805       -1.15228382556256        0.10302472498277
C           -1.19699843675071       -2.52453311978394        0.32029370280710
H            2.56724632314363        0.14332357113441        1.75196720788097
H            2.67594132871674        1.16982499056041       -0.98418277730488
H            4.09893073181217        0.55058091118952        0.84067627104233
H            3.51762781541775       -1.26310242901050       -0.88871196336958
H           -1.95416912589056        3.12522281748067       -0.36615452194845
H           -3.09522636347085        1.93272762788741       -1.04774189438319
H           -2.98565764090790        2.13428770826211        0.70639097838626
H           -0.66376771576938       -2.94085127085918        1.17420657341504
H           -1.00529154538215       -3.12203365191353       -0.57110157776822
H           -2.26658686970145       -2.51775628058944        0.52232187135200
H            1.53150495141475       -2.61097392682683       -0.34513655556278
25
 energy: -42.182980022466 gnorm: 0.030042776351 xtb: 6.6.1 (8d0f1dd)
C            3.09406287533040        0.14058401766750        0.81480502290042
N            2.29388280883257        0.53262659408670       -0.34940952758628
C            2.74753340056613       -0.86715493916135       -0.23068691652439
N            1.57553831107435       -1.64982082630090       -0.03611790104823
C            0.48342501231392       -0.81238198227559       -0.06191833255977
C            0.87131973044697        0.49521052140996       -0.27698235216403
C           -0.05098670614406        1.59374106086986       -0.35449078568656
O            0.24945813537632        2.74470276671033       -0.56291332676361
N           -1.36328124295793        1.14901903978148       -0.17289569339219
C           -2.42119903274087        2.15147283431455       -0.22273472346870
C           -1.79275893561345       -0.13951876426646        0.05515952552325
O           -2.94597604173638       -0.42599574643948        0.20767981057491
N           -0.79646245963681       -1.15385287167524        0.10091521376247
C           -1.20193742073580       -2.52677203326986        0.31953442245137
H            2.56897679918761        0.11679150328288        1.76277466946936
H            2.70420034228905        1.21185622837238       -1.02067801427985
H            4.09446663431692        0.54142412698172        0.85151311838456
H            3.51149915659608       -1.26646409832485       -0.88732464382969
H           -1.95393263395911        3.12260441036206       -0.36556070193685
H           -3.09837223670314        1.93367212076666       -1.04759610693731
H           -2.98820866593921        2.13473873780324        0.70677781298318
H           -0.66895832281063       -2.94324611368954        1.17363462778315
H           -1.01190276540977       -3.12841274476762       -0.56973521921329
H           -2.27157522495645       -2.52276627351225        0.52279488478761
H            1.53161999711608       -2.61381902712534       -0.32537324532909
25
 energy: -42.183458466751 gnorm: 0.017487242884 xtb: 6.6.1 (8d0f1dd)
C            3.08880169705498        0.13932924468798        0.81234871204345
N            2.30070091065868        0.54221534778532       -0.36440926481363
C            2.75007264910608       -0.86891876772080       -0.22790834924407
N            1.57889628909392       -1.64646399559446       -0.03440503065780
C            0.48729801808888       -0.80992663296553       -0.05882288517802
C            0.87409151255283        0.49437853495941       -0.27152733364288
C           -0.05079918625924        1.59125580691920       -0.35406433442323
O            0.24951970880840        2.74273289126367       -0.56031129843613
N           -1.36416111110251        1.14806283933516       -0.17207084071130
C           -2.42214545877573        2.15046974765849       -0.22048230051826
C           -1.79277350396694       -0.14032736576154        0.05543809429789
O           -2.94568406720293       -0.42818750055707        0.20780300275771
N           -0.79443369223317       -1.15237535603624        0.10071001148300
C           -1.20294170698994       -2.52571689391536        0.31805961966547
H            2.55638893638437        0.12334852585130        1.75372626489655
H            2.70942198704839        1.21948603840785       -1.03375519034108
H            4.09382812788711        0.53034719309819        0.85787034571556
H            3.51465706062253       -1.27306583334270       -0.88074218664988
H           -1.95466086105741        3.12140901986214       -0.36387832875215
H           -3.10027488297447        1.93277249291206       -1.04458381863798
H           -2.98859311463888        2.13382901281899        0.70940984277371
H           -0.67314510123696       -2.94519178580862        1.17267191581795
H           -1.01571720972155       -3.12862856671615       -0.57122512395735
H           -2.27317537899349       -2.52025829317358        0.52039895356455
H            1.53525989194985       -2.61233716236689       -0.31907885915167
25
 energy: -42.183626325754 gnorm: 0.012715352240 xtb: 6.6.1 (8d0f1dd)
C            3.08380597400578        0.14013898692404        0.80900456147644
N            2.30287028829283        0.54467581812882       -0.37200690476559
C            2.75174123206746       -0.87167924340173       -0.22523959803877
N            1.58148074028764       -1.64499001889669       -0.03710774993477
C            0.49074425563537       -0.80807782960282       -0.05589026013757
C            0.87691088861694        0.49391207852343       -0.26541631348941
C           -0.04998906880480        1.58989041564507       -0.35460628950181
O            0.24944769302041        2.74149555805593       -0.56104596780551
N           -1.36377348405800        1.14751837320038       -0.17106605688518
C           -2.42187401247680        2.14964768334918       -0.21845394356115
C           -1.79169825188831       -0.14089213004559        0.05644339695011
O           -2.94434230024036       -0.42974804475035        0.20817690661608
N           -0.79203925673603       -1.15127005185542        0.10176551821635
C           -1.20296406868608       -2.52476959491520        0.31704939119964
H            2.54232648109360        0.13621522027468        1.74431417855026
H            2.70941849973482        1.22064408108778       -1.03928267307060
H            4.09303045288723        0.52253849708513        0.86262868696176
H            3.51876467060405       -1.27903182767579       -0.87353069792203
H           -1.95501082052888        3.12073555507199       -0.36255963981985
H           -3.10129014804522        1.93137314278772       -1.04136830554909
H           -2.98710484777458        2.13272727138084        0.71220304325347
H           -0.67561522321403       -2.94737578851828        1.17154170453051
H           -1.01791990390875       -3.12698573064213       -0.57326605394757
H           -2.27362727330611       -2.51692402888052        0.51860631670706
H            1.53713899752463       -2.61152985072964       -0.31972163213235
25
 energy: -42.183708723418 gnorm: 0.010282920689 xtb: 6.6.1 (8d0f1dd)
C            3.07995009853815        0.14151358636753        0.80701546312795
N            2.30330222020881        0.54502624501208       -0.37464589625050
C            2.75188672061907       -0.87403651250634       -0.22332527658746
N            1.58222467938827       -1.64537149603533       -0.04243158265063
C            0.49250069965752       -0.80741013727734       -0.05416379037634
C            0.87910738568965        0.49390568010391       -0.26080645058396
C           -0.04901173139749        1.58925640065321       -0.35630934152853
O            0.24957401661731        2.74036372874272       -0.56618145201108
N           -1.36263786819430        1.14734964035585       -0.17031849406971
C           -2.42088180047570        2.14918079929995       -0.21695932881099
C           -1.79042887306883       -0.14108577106428        0.05773882700409
O           -2.94304944144623       -0.42993749677883        0.20934960037422
N           -0.79055072812168       -1.15087183315267        0.10340267694278
C           -1.20252151959862       -2.52448146556161        0.31678327278856
H            2.53200783922901        0.14670755980694        1.73896848311596
H            2.70747867088936        1.22039092050657       -1.03920840054018
H            4.09138564184611        0.51847760718121        0.86644189261671
H            3.52233878995843       -1.28209585515375       -0.86735615161769
H           -1.95482111422996        3.12041948068876       -0.36220662413816
H           -3.10174192864249        1.93006495610173       -1.03846791154540
H           -2.98454737466677        2.13230678187180        0.71470970522930
H           -0.67577190187025       -2.94930478307935        1.17040835957213
H           -1.01885646836631       -3.12519979644233       -0.57480815331497
H           -2.27322432412202       -2.51520609588883        0.51856572370531
H            1.53671982566174       -2.61172360215078       -0.32502353255098
25
 energy: -42.183765813889 gnorm: 0.008096870648 xtb: 6.6.1 (8d0f1dd)
C            3.07684066261012        0.14272557644433        0.80652517094636
N            2.30296225687863        0.54457975103604       -0.37429832661483
C            2.75125025395088       -0.87563077637852       -0.22206516346702
N            1.58196321266242       -1.64640217498878       -0.04912960176325
C            0.49309725461023       -0.80728414381037       -0.05368411691162
C            0.88067083329308        0.49427723524799       -0.25774442157675
C           -0.04826541216942        1.58886154166359       -0.35953285007592
O            0.24959935904752        2.73894784435587       -0.57571274076821
N           -1.36131035971009        1.14740910066465       -0.16978874667015
C           -2.41966770944599        2.14900769543931       -0.21573452979467
C           -1.78925503813810       -0.14099144637604        0.05938371567067
O           -2.94194663413181       -0.42922820501781        0.21168002746082
N           -0.78973119414851       -1.15075430206879        0.10518949550234
C           -1.20181316159249       -2.52452298839781        0.31683804904099
H            2.52511917070339        0.15341785146286        1.73695274574026
H            2.70429448015775        1.21999296001732       -1.03508165698949
H            4.08933522108393        0.51596863321383        0.87025436089921
H            3.52588770768767       -1.28258853292438       -0.86195499109958
H           -1.95429948944576        3.12023389590041       -0.36296139147476
H           -3.10240319149878        1.92882655304810       -1.03541228319954
H           -2.98124710710812        2.13285483793058        0.71728919006532
H           -0.67407071156559       -2.95101140443780        1.16891737530130
H           -1.01959118191669       -3.12349636445196       -0.57618183083681
H           -2.27222355031495       -2.51473310596052        0.52007866551459
H            1.53523584260349       -2.61222149001128       -0.33265452699884
