72
 energy: 0.000000000000 xtb: 6.6.1 (8d0f1dd)
N           -1.47310921155849        2.74401293103706        2.22063921685122
C           -1.55658879776851        2.16490285539332        1.13274273951491
C           -2.74549199786261        2.05621232186130        0.23826248438941
C           -3.31377553111525        0.64333411542669        0.32332512650568
C           -4.30230156009016        0.24487110156316       -0.58026161703006
C           -4.85238763031941       -1.02286490450319       -0.53363588718165
O           -5.81419972815119       -1.48606034185536       -1.36157882725342
C           -6.39655633239252       -0.60827000183299       -2.29568474302620
C           -4.39972501531283       -1.94646102182611        0.44396929121966
O           -4.98748311285188       -3.16145997157803        0.41085992006324
C           -4.66362127904578       -4.10093827755394        1.40909127743729
C           -3.42072513477031       -1.54561384810496        1.33436546260297
C           -2.88302799614223       -0.26315800396994        1.27400150770375
C           -2.19303798107274        2.30467000305896       -1.18742977106749
C           -1.26651538239283        1.17243369445008       -1.65249429687285
C            0.01082524939134        1.09745454476277       -0.89354803499847
N            0.61779393476578       -0.02034948052406       -0.57705522512502
C            2.00145210352228       -0.02376006389122       -0.15611399603240
C            2.92554934655222       -0.53865282675074       -1.27700088804721
C            4.35756843073516       -0.43050757231754       -0.83075544324989
C            5.07346135469827        0.73206409086248       -1.03980965825901
C            6.38627986649936        0.84224441421807       -0.60344822702769
C            7.00047264773336       -0.20824756335880        0.05722314418200
O            8.26703657141718       -0.21011313101264        0.52410943644933
C            9.06912227848686        0.92943601033931        0.31863058007678
C            6.27039964270142       -1.40439753960823        0.28033466008274
O            6.94829939911432       -2.38012925705718        0.92751999079483
C            6.31537317745639       -3.61583200086742        1.15217711710877
C            4.96302794628964       -1.49347471867959       -0.16064430359178
C           -0.05511211367372       -1.29906247805359       -0.62085686319744
C           -3.86758037025447        3.07992600430699        0.58498060215443
C           -4.49286159663096        2.77383493050346        1.94313289484366
C           -3.39165179876499        4.52917666589254        0.54797523472093
H           -4.66030026466202        0.94509067363451       -1.31640568823548
H           -6.85037928558380        0.25803162192116       -1.80468845313260
H           -7.17287442604349       -1.18600110843259       -2.79318157561361
H           -5.66836817451085       -0.26952966318766       -3.04040255244073
H           -4.88416720672258       -3.71589460520039        2.40913542187496
H           -5.29223570620378       -4.96637458756866        1.20969236903657
H           -3.61139813139015       -4.39919835331056        1.35529357841967
H           -3.07077796610445       -2.21868765711333        2.10002662693138
H           -2.14562754426994        0.02067850696302        2.01001344383370
H           -3.02188875377605        2.38238012313952       -1.88813545054866
H           -1.65198530896729        3.25146700677685       -1.20556284570283
H           -1.81103374245520        0.23006524641044       -1.62116301628650
H           -0.99335688527853        1.37490212198123       -2.69443256973690
H           -0.67628064361333        1.65183887049447        0.61785727145403
H            0.63525841192517        1.98466369793744       -0.92314021190751
H            2.11132552493482       -0.65949692842762        0.72532613231274
H            2.30680473056284        0.98978251704176        0.11078972794250
H            2.76694198818247        0.06750735147374       -2.17075252200790
H            2.67954581369920       -1.57455627803457       -1.51167743520200
H            4.62169998552446        1.56295612048703       -1.56123579000624
H            6.92357674630170        1.75715815945204       -0.79119596719031
H            8.65159112996149        1.81001823324363        0.81701555159939
H            9.20136171144928        1.14042857828877       -0.74698991949293
H           10.03428838009630        0.69003240176163        0.76064937965836
H            7.05567174969094       -4.23621171795340        1.65347565939075
H            5.43848001056755       -3.50813558175093        1.79970565785717
H            6.02060041905269       -4.09420497120334        0.21253282636366
H            4.40102758497114       -2.40127266373392       -0.00490198249042
H           -0.22071299714579       -1.61775583601871       -1.65116008982042
H           -1.01972258008625       -1.24102717432227       -0.10935206830928
H            0.55899954147532       -2.04486085926761       -0.12333730421426
H           -4.63991875734388        2.95501092798550       -0.18098088071825
H           -3.76095216473977        2.90314704960906        2.73380821053058
H           -4.87457614030224        1.75695641518947        1.97884603101694
H           -5.31925552549014        3.45579210326349        2.12325564252114
H           -2.60025590131176        4.69225046143352        1.27368918226171
H           -3.03987406413880        4.81897652321898       -0.43870975059559
H           -4.22191740670577        5.18069648090034        0.80616693961239
H           -0.59832433787845        2.77744694953323        2.72958984441332
72
 energy: -4.212916703105 xtb: 6.6.1 (8d0f1dd)
N           -1.47735979291599        2.76609769809765        2.22555390025062
C           -1.56161951072242        2.13400700517417        1.14924338111915
C           -2.75175467740641        2.04642322287887        0.24690790996723
C           -3.33127862372588        0.63961969390569        0.33095087002170
C           -4.31739849271387        0.24085805335921       -0.57439283291728
C           -4.87105689986859       -1.02466564371035       -0.52883032194168
O           -5.83583896534412       -1.48909934470514       -1.36327875129294
C           -6.40389135494323       -0.61039670684539       -2.30307973688577
C           -4.42833781015889       -1.94620743808245        0.45074711904254
O           -5.02485468461339       -3.16465523427073        0.41711910382156
C           -4.70342438082101       -4.10094277389611        1.41657931247545
C           -3.45412412948081       -1.54730709832520        1.34568323025324
C           -2.91134337766923       -0.26742512213311        1.28536179647545
C           -2.20311490285114        2.28791863989716       -1.18330802904125
C           -1.28956715563559        1.15956576393629       -1.68571502749393
C           -0.01296489239665        1.08373398015947       -0.91709183991925
N            0.62269985873710       -0.06782857246217       -0.58322017104068
C            2.01787527890643       -0.00345467504574       -0.16416116082430
C            2.96647364743951       -0.48845269294547       -1.27740850453682
C            4.38682531044409       -0.38418625459064       -0.81246430797450
C            5.11588438300130        0.77281377565378       -1.01433712047093
C            6.43186406045377        0.86180648649171       -0.58751209493989
C            7.03416868048556       -0.20175874947920        0.06172785745392
O            8.31308533284052       -0.22893402454292        0.51416244953138
C            9.12402333584190        0.89845263749018        0.29840061880016
C            6.28944514651957       -1.38352637644824        0.29129905362767
O            6.96309292354814       -2.37372784711532        0.93239517004837
C            6.31060340779551       -3.59658036008718        1.16250158966260
C            4.98013504541312       -1.45392819072162       -0.14025705813630
C           -0.08228926655553       -1.33282228403963       -0.64914086398354
C           -3.87056013760331        3.07078267124220        0.58966115357276
C           -4.48713021448018        2.77456901079157        1.95466937172813
C           -3.38864985247651        4.51866416919133        0.54794551084321
H           -4.66491851346946        0.93916525750059       -1.31775974218891
H           -6.85564108401668        0.26116085726544       -1.81856400679153
H           -7.18004982109484       -1.18553415575642       -2.80489949514551
H           -5.66803642059884       -0.27705322029858       -3.04274167322867
H           -4.92437376949675       -3.71435303307186        2.41655371053758
H           -5.33325987801440       -4.96595749039204        1.21692494884982
H           -3.65122441113452       -4.40062081938491        1.36606424565748
H           -3.10794541037457       -2.22234994123239        2.11235972567163
H           -2.17079064082710        0.01354536492655        2.01815196211912
H           -3.03596966268447        2.39205201590503       -1.87870614482069
H           -1.64475718028202        3.22526714662368       -1.19568382475760
H           -1.84393527577379        0.22280885642786       -1.64642546914817
H           -1.04721213189461        1.36834432279452       -2.73638512401891
H           -0.69521557270037        1.60656965296250        0.65112604933195
H            0.62301863490533        1.95365941828136       -0.96877614438108
H            2.15793651086394       -0.61930301905501        0.72782305038314
H            2.31983030148008        1.02068747813479        0.09860863935265
H            2.81321997810198        0.12648487293161       -2.16645016642584
H            2.71565665241789       -1.52086528180112       -1.51873025066832
H            4.67161712124499        1.61321405626996       -1.52604865603671
H            6.98292127934027        1.76848207767691       -0.77839520189423
H            8.72717423523649        1.78283780164206        0.80672341043509
H            9.24189215287511        1.11367858437289       -0.76854086132899
H           10.09116332850623        0.64091499610408        0.72462258081596
H            7.04564004897666       -4.22930624415672        1.65666718973801
H            5.44184433618540       -3.47443593773784        1.81815097979970
H            5.99698321388385       -4.06949389252737        0.22598396524643
H            4.40469440602950       -2.35211636724785        0.02221989114686
H           -0.25532001302188       -1.65450822523249       -1.68294529771129
H           -1.06225117408738       -1.26495328580163       -0.15983922196640
H            0.49944969548229       -2.09710159553425       -0.14438894361308
H           -4.65069808960892        2.95068338857601       -0.17050676822670
H           -3.74383874776857        2.90208511191080        2.73543858678869
H           -4.86884521769529        1.75745144485333        1.99615189668475
H           -5.31112301828140        3.45980032011734        2.14004001580937
H           -2.58770244176069        4.67415448378502        1.26480609565354
H           -3.04122549005393        4.80214945217984       -0.44238252249235
H           -4.21334770059187        5.17706283782853        0.81157966535483
H           -0.59307832647918        2.76557012828316        2.72394765629131
72
 energy: -0.312703805460 xtb: 6.6.1 (8d0f1dd)
N           -1.48430031988174        2.80027810636807        2.22475893501856
C           -1.56346898969399        2.08961361768219        1.16785802761350
C           -2.75975594514011        2.03179605952979        0.25778265582572
C           -3.35290192641745        0.63240842449843        0.33846507022185
C           -4.33739569792135        0.23422773612812       -0.56772706299891
C           -4.89665950783732       -1.02728505624605       -0.52188187410202
O           -5.86796285351995       -1.49298101598900       -1.36555663829200
C           -6.41463746077416       -0.61265447702659       -2.31257400537655
C           -4.46848359633443       -1.94525695737865        0.45990239474044
O           -5.07920100889927       -3.16946658948481        0.42644067041210
C           -4.76047459394235       -4.10018020643296        1.42715833582877
C           -3.50089761589645       -1.55063518335916        1.36151293588801
C           -2.95038978778652       -0.27533987287679        1.30023828899144
C           -2.21629316648032        2.26819323676362       -1.17757946760447
C           -1.32485280596618        1.13807949969792       -1.72448701708701
C           -0.04877128640506        1.06034297756161       -0.95140627595847
N            0.63052527166971       -0.13896858727424       -0.59219484911174
C            2.04535963326213        0.03139078762277       -0.17569882049271
C            3.02445395378284       -0.41649636920360       -1.27878453750633
C            4.42759459866408       -0.31819853453352       -0.78569332655355
C            5.17716049313486        0.82876303236435       -0.98060916989198
C            6.49778963908359        0.88838019979474       -0.56716019458116
C            7.08104952773603       -0.19310416040778        0.06638189557744
O            8.37760282915966       -0.25582018867036        0.49945267484707
C            9.20006378093946        0.85444907991661        0.27146521672016
C            6.31636010852074       -1.35351405930021        0.30533703677269
O            6.98413187781066       -2.36493574279203        0.93824604239055
C            6.30359513387746       -3.56854240459403        1.17701450666595
C            5.00400193982035       -1.39764423407525       -0.11231885223691
C           -0.12390958589252       -1.37900281195576       -0.68828360290165
C           -3.87226388480164        3.05675279449397        0.59709729035795
C           -4.47982547852992        2.77339941249648        1.97038990348305
C           -3.38447985983256        4.50407373044456        0.54809791161721
H           -4.67121839315720        0.93067661654358       -1.32013422042597
H           -6.86380561744951        0.26635385487769       -1.83736984107697
H           -7.19091149065914       -1.18360863730155       -2.82061554206800
H           -5.66850511524477       -0.28690944353550       -3.04565901906473
H           -4.98215232306607       -3.71204272791806        2.42741594731352
H           -5.39214538856726       -4.96469212773061        1.22755884162825
H           -3.70841412280700       -4.40276431681963        1.38161587160957
H           -3.16120889854680       -2.22791593812761        2.13053322572465
H           -2.20713044863529        0.00243421917691        2.03024613486581
H           -3.05502997413205        2.40945943721021       -1.86479123582534
H           -1.63232368143539        3.19147768191762       -1.18125352513620
H           -1.89354947920814        0.20931945349307       -1.68033005430852
H           -1.12023444524769        1.35853734108599       -2.78438493175812
H           -0.72213308761962        1.54075336801005        0.70047969789325
H            0.60701255526175        1.90128917683924       -1.02686271211450
H            2.22893001255935       -0.55586735375712        0.73180774032720
H            2.33926348842140        1.07179401247869        0.08307649402619
H            2.88125837818395        0.21120599359707       -2.16120852230607
H            2.76583514078171       -1.44374433507599       -1.53209990249891
H            4.74395425669466        1.68286728667100       -1.47856425826100
H            7.06792296908131        1.78337980547755       -0.76225169315506
H            8.83313761573774        1.74399100279222        0.79438735139513
H            9.29948381181491        1.07775467585474       -0.79661848723740
H           10.16967290396616        0.57148328147178        0.67549894791205
H            7.03071725067803       -4.21880868663696        1.66146003064520
H            5.44672665941359       -3.42604025570883        1.84439010629637
H            5.96366558260806       -4.03477124971503        0.24552495764917
H            4.40942241833863       -2.28193982090178        0.05977197091854
H           -0.30681053643230       -1.70568821815345       -1.72777408635790
H           -1.12477108772891       -1.29449486642781       -0.22857684402686
H            0.41098574896516       -2.16995138577336       -0.17247855682504
H           -4.66265436616017        2.94222130097591       -0.15547922362056
H           -3.72291015224614        2.89940061168238        2.73868209629495
H           -4.86238788882443        1.75622375775119        2.01964593358193
H           -5.30034779020767        3.46305696628158        2.16125898287948
H           -2.57134364761449        4.64945414486607        1.25322911310549
H           -3.04378527812667        4.77956627743982       -0.44725947944289
H           -4.20202641978005        5.17047718495848        0.81941517388646
H           -0.58305338225799        2.74323050531402        2.70455574739821
72
 energy: 13.300229947958 xtb: 6.6.1 (8d0f1dd)
N           -1.49008164579429        2.82154007879330        2.22875864134994
C           -1.56626156789502        2.05299937207610        1.18339552768523
C           -2.76797459005659        2.01742785842613        0.26809702824254
C           -3.37491468971562        0.62522549919211        0.34652537065931
C           -4.35717160528557        0.22769136574315       -0.56155596395078
C           -4.92284127126380       -1.03007204695949       -0.51546730708225
O           -5.89962992178679       -1.49639832832793       -1.36745719494591
C           -6.42569368649113       -0.61486682518813       -2.32211712910638
C           -4.50927228118422       -1.94491018638487        0.46934902117743
O           -5.13312612563162       -3.17358185589194        0.43597066331751
C           -4.81793327051128       -4.09956856192189        1.43817506015470
C           -3.54772439190422       -1.55416927704925        1.37736454533659
C           -2.98894668899043       -0.28322172209029        1.31487939675254
C           -2.22994630340376        2.24797591639145       -1.17235302194133
C           -1.36025533376708        1.11822804460820       -1.76477731570623
C           -0.08418212964870        1.03873781308239       -0.98545126510768
N            0.63855267105610       -0.20987016575595       -0.60104838318550
C            2.07225872933288        0.06425109568172       -0.18692170103752
C            3.08181780445921       -0.34384755200501       -1.28009228540721
C            4.46906793522475       -0.25207444908171       -0.75937486878880
C            5.23872427251770        0.88549205059018       -0.94658837127806
C            6.56377451020494        0.91514988459141       -0.54721048619930
C            7.12889550357823       -0.18473442485934        0.07055014816837
O            8.44124158454701       -0.28213866483604        0.48513624643327
C            9.27655856470578        0.81051428076192        0.24444029225197
C            6.34343662929943       -1.32421827015300        0.31948235156358
O            7.00443953408012       -2.35581264471299        0.94409263861945
C            6.29654733979081       -3.54045982179561        1.19177941643846
C            5.02808638419982       -1.34149853374022       -0.08381939244963
C           -0.16547557173592       -1.42661627652732       -0.72676823445651
C           -3.87472272959706        3.04302451308638        0.60473277381426
C           -4.47229553481300        2.77215239242229        1.98620384376245
C           -3.38021401951763        4.48913273629748        0.54829797342286
H           -4.67751917179274        0.92213550951071       -1.32262357358057
H           -6.87209976912817        0.27147864505284       -1.85621625144407
H           -7.20191684048686       -1.18172780973041       -2.83629643852861
H           -5.66916945159687       -0.29698257824732       -3.04849816801939
H           -5.04034875867429       -3.70970734435755        2.43849470161461
H           -5.45143549803280       -4.96344259491568        1.23846955146548
H           -3.76606387887780       -4.40493202837060        1.39742292967306
H           -3.21488277963671       -2.23335287014085        2.14896681705303
H           -2.24357568523886       -0.00876739179655        2.04276530397981
H           -3.07313590086755        2.42604352500404       -1.85150466017924
H           -1.62061945104487        3.15674238387304       -1.16745980197799
H           -1.94356055246021        0.19761845305913       -1.71353684219919
H           -1.19211136470444        1.34807072445465       -2.83340291442466
H           -0.74782321129997        1.47543013014446        0.74839954817367
H            0.59126910539482        1.85212583332444       -1.08502057626951
H            2.29873946560934       -0.49198613235962        0.73543919754238
H            2.35822149688711        1.12084070504557        0.06603840475470
H            2.94927554031977        0.29642313354640       -2.15604592464034
H            2.81719790500713       -1.36591576174627       -1.54524533590056
H            4.81699476579397        1.75288229570462       -1.43143484108276
H            7.15298183698033        1.79818970640710       -0.74651255837434
H            8.93973079735576        1.70487079572286        0.78180441133190
H            9.35744194683656        1.04159550428359       -0.82467090742784
H           10.24821269052428        0.50178445768649        0.62622935673021
H            7.01562509200869       -4.20800099032075        1.66654246848509
H            5.45182230434270       -3.37731587662729        1.87076136917720
H            5.93036452598087       -3.99962735944676        0.26544464492574
H            4.41452253447840       -2.21173207607828        0.09752744650039
H           -0.35771947398529       -1.75690956503708       -1.77148630695623
H           -1.18603293108815       -1.32363881867326       -0.29663151224264
H            0.32016829765192       -2.24472387478584       -0.20124672020048
H           -4.67461855182789        2.93344272121336       -0.14047521752241
H           -3.70240477602990        2.89664945856903        2.74262388983768
H           -4.85563554060446        1.75502127158465        2.04299420499684
H           -5.28951170757886        3.46616687577610        2.18217974597250
H           -2.55504560946710        4.62542791860911        1.24163194215147
H           -3.04655332353256        4.75688814734856       -0.45203333157397
H           -4.19072988703177        5.16336784307948        0.82704737675498
H           -0.57289310132885        2.72337457611675        2.68581688103429
72
 energy: 33.856157932663 xtb: 6.6.1 (8d0f1dd)
N           -1.49500329921570        2.82523407200385        2.23776583972851
C           -1.56917762336319        2.02483192950615        1.19344284330901
C           -2.77648568047357        2.00282774684474        0.27668189924291
C           -3.39632309347027        0.61719875040312        0.35432508085081
C           -4.37642811797243        0.22099512360911       -0.55615702255506
C           -4.94939044980086       -1.03287608929773       -0.50944791729458
O           -5.93050946099648       -1.49917277351419       -1.36896621839760
C           -6.43681607730056       -0.61714783592896       -2.33173761108492
C           -4.55034052200375       -1.94496405683432        0.47920190215520
O           -5.18607550596306       -3.17685636527867        0.44574463647147
C           -4.87524753836776       -4.09906145685089        1.44959699169030
C           -3.59415142141358       -1.55799479996708        1.39320631669252
C           -3.02647205561907       -0.29153604604487        1.32916274947751
C           -2.24407544773578        2.22926158894816       -1.16851221283795
C           -1.39696797540745        1.09958508919905       -1.80349466249309
C           -0.12030909130340        1.01923127626659       -1.01942046778743
N            0.64691801811786       -0.28146622320896       -0.61050444033722
C            2.09981137319992        0.09637382630022       -0.19732224670921
C            3.13776560592790       -0.27193855713887       -1.28113845979317
C            4.51024008006732       -0.18596746547949       -0.73229325907353
C            5.29999575481383        0.94212686615917       -0.91220482331481
C            6.62931230984793        0.94149018691883       -0.52775747262247
C            7.17693043576265       -0.17661043733884        0.07395439977579
O            8.50254233121563       -0.30717706243131        0.47143451113519
C            9.35267678083171        0.76676112777310        0.21711864929983
C            6.37044462100602       -1.29555746453806        0.33340934871878
O            7.02345390549787       -2.34614488224637        0.94992429742596
C            6.28951700712134       -3.51223845573400        1.20674707921158
C            5.05208403880217       -1.28547490023313       -0.05474665308082
C           -0.20787167345072       -1.47506404129820       -0.76510205799463
C           -3.87720902916807        3.02997126337742        0.61268789785862
C           -4.46423641353550        2.77083700106177        2.00203498046647
C           -3.37562334361482        4.47436385730569        0.54817342516117
H           -4.68407544501211        0.91353577155759       -1.32504193527954
H           -6.88054760009057        0.27621992840547       -1.87517495538634
H           -7.21269983352395       -1.18019204413124       -2.85180892718943
H           -5.67002093996752       -0.30751738816670       -3.05141785579354
H           -5.09866016156272       -3.70749488296119        2.44975724620385
H           -5.51063927111925       -4.96207026082400        1.24954528069444
H           -3.82370457204784       -4.40731873696953        1.41347382997545
H           -3.26867382802709       -2.23855855323438        2.16773955380632
H           -2.28012065896672       -0.02025447401243        2.05617064826372
H           -3.09032982471643        2.44171313724648       -1.83908014908559
H           -1.61039872099011        3.12306887728504       -1.15515428304833
H           -1.99393934305037        0.18672127888443       -1.74572018295776
H           -1.26082678037331        1.33714212549278       -2.87888584186412
H           -0.77146678054608        1.41434136820224        0.79165948474109
H            0.57566487277673        1.80498837117294       -1.14227710897827
H            2.36509097963661       -0.42829754411418        0.73771932149728
H            2.37738257986283        1.16871643602226        0.04997916337922
H            3.01689873567875        0.38136688577052       -2.15023245440929
H            2.87038034644977       -1.28892702383040       -1.55944982047481
H            4.89025030891561        1.82257492278955       -1.38430834595975
H            7.23704856209352        1.81252684161714       -0.73077405532318
H            9.04696221446024        1.66571583363460        0.76826507835644
H            9.41543945497700        1.00501711815479       -0.85267156572730
H           10.32558070312298        0.43203796363560        0.57648280035981
H            7.00029343575120       -4.19659343349310        1.67184152856601
H            5.45743165321084       -3.32883070547025        1.89716918192051
H            5.89773598833085       -3.96394801215625        0.28582826948743
H            4.42019756914436       -2.14161604079237        0.13527383910920
H           -0.40709582391571       -1.80775815486597       -1.81477820719621
H           -1.24561012066109       -1.35197612090360       -0.36287103291556
H            0.22720750779477       -2.31911575712510       -0.23146991189034
H           -4.68598048791822        2.92434820882448       -0.12510370624285
H           -3.68268920793050        2.89427044220905        2.74742111648005
H           -4.84866193777065        1.75407467479938        2.06656094053599
H           -5.27798544682282        3.46910533688391        2.20269575004799
H           -2.53909603420021        4.60285257483092        1.22985954787256
H           -3.04954656905983        4.73474103098377       -0.45701981192303
H           -4.17904102240793        5.15590572855079        0.83420088787469
H           -0.56283375070562        2.70493432073012        2.66827568729507
72
 energy: 58.498912715273 xtb: 6.6.1 (8d0f1dd)
N           -1.49565677559387        2.76397225207943        2.24837846072870
C           -1.56484527431437        2.04872147168203        1.17197183069141
C           -2.78571451466721        1.98491601347613        0.27803454126035
C           -3.41395545200048        0.60269139340652        0.35848263919386
C           -4.39347128691933        0.21309052542593       -0.55657253047082
C           -4.97739308773530       -1.03642794415356       -0.50522339134009
O           -5.95967637027014       -1.49836244862325       -1.36907249269171
C           -6.44764586697084       -0.61933876437554       -2.34071874074030
C           -4.59277399653163       -1.94654031163389        0.48993978095764
O           -5.23569010331247       -3.17688240953259        0.45676769273211
C           -4.93153470674451       -4.09803060445190        1.46144930686984
C           -3.63819319658938       -1.56533207339515        1.40958424979811
C           -3.05987997867158       -0.30450577754999        1.34136577395541
C           -2.25893372510961        2.22106128404536       -1.16910613245540
C           -1.44700145011324        1.08022987941271       -1.82539154111777
C           -0.16746170152569        1.00399570588361       -1.06348143120297
N            0.65901655133166       -0.36879843866016       -0.62429678623858
C            2.14051978075705        0.13522571276239       -0.20169473303536
C            3.18424765654530       -0.20046856303203       -1.28070533072527
C            4.54952243286536       -0.11925036960989       -0.69868261240389