      -----------------------------------------------------------      
     |                   =====================                   |     
     |                           x T B                           |     
     |                   =====================                   |     
     |                         S. Grimme                         |     
     |          Mulliken Center for Theoretical Chemistry        |     
     |                    University of Bonn                     |     
      -----------------------------------------------------------      

   * xtb version 6.6.1 (8d0f1dd) compiled by 'conda@1efc2f54142f' on 2023-08-01

   xtb is free software: you can redistribute it and/or modify it under
   the terms of the GNU Lesser General Public License as published by
   the Free Software Foundation, either version 3 of the License, or
   (at your option) any later version.
   
   xtb is distributed in the hope that it will be useful,
   but WITHOUT ANY WARRANTY; without even the implied warranty of
   MERCHANTABILITY or FITNESS FOR A PARTICULAR PURPOSE.  See the
   GNU Lesser General Public License for more details.
   
   Cite this work as:
   * C. Bannwarth, E. Caldeweyher, S. Ehlert, A. Hansen, P. Pracht,
     J. Seibert, S. Spicher, S. Grimme, WIREs Comput. Mol. Sci., 2020, 11,
     e01493. DOI: 10.1002/wcms.1493
   
   for GFN2-xTB:
   * C. Bannwarth, S. Ehlert and S. Grimme., J. Chem. Theory Comput., 2019,
     15, 1652-1671. DOI: 10.1021/acs.jctc.8b01176
   for GFN1-xTB:
   * S. Grimme, C. Bannwarth, P. Shushkov, J. Chem. Theory Comput., 2017,
     13, 1989-2009. DOI: 10.1021/acs.jctc.7b00118
   for GFN0-xTB:
   * P. Pracht, E. Caldeweyher, S. Ehlert, S. Grimme, ChemRxiv, 2019, preprint.
     DOI: 10.26434/chemrxiv.8326202.v1
   for GFN-FF:
   * S. Spicher and S. Grimme, Angew. Chem. Int. Ed., 2020, 59, 15665-15673.
     DOI: 10.1002/anie.202004239
   
   for ALPB and GBSA implicit solvation:
   * S. Ehlert, M. Stahn, S. Spicher, S. Grimme, J. Chem. Theory Comput.,
     2021, 17, 4250-4261. DOI: 10.1021/acs.jctc.1c00471
   
   for DFT-D4:
   * E. Caldeweyher, C. Bannwarth and S. Grimme, J. Chem. Phys., 2017,
     147, 034112. DOI: 10.1063/1.4993215
   * E. Caldeweyher, S. Ehlert, A. Hansen, H. Neugebauer, S. Spicher,
     C. Bannwarth and S. Grimme, J. Chem. Phys., 2019, 150, 154122.
     DOI: 10.1063/1.5090222
   * E. Caldeweyher, J.-M. Mewes, S. Ehlert and S. Grimme, Phys. Chem. Chem. Phys.
     2020, 22, 8499-8512. DOI: 10.1039/D0CP00502A
   
   for sTDA-xTB:
   * S. Grimme and C. Bannwarth, J. Chem. Phys., 2016, 145, 054103.
     DOI: 10.1063/1.4959605
   
   in the mass-spec context:
   * V. Asgeirsson, C. Bauer and S. Grimme, Chem. Sci., 2017, 8, 4879.
     DOI: 10.1039/c7sc00601b
   * J. Koopman and S. Grimme, ACS Omega 2019, 4, 12, 15120-15133.
     DOI: 10.1021/acsomega.9b02011
   
   for metadynamics refer to:
   * S. Grimme, J. Chem. Theory Comput., 2019, 155, 2847-2862
     DOI: 10.1021/acs.jctc.9b00143
   
   for SPH calculations refer to:
   * S. Spicher and S. Grimme, J. Chem. Theory Comput., 2021, 17, 1701-1714
     DOI: 10.1021/acs.jctc.0c01306
   
   with help from (in alphabetical order)
   P. Atkinson, C. Bannwarth, F. Bohle, G. Brandenburg, E. Caldeweyher
   M. Checinski, S. Dohm, S. Ehlert, S. Ehrlich, I. Gerasimov, C. Hölzer
   A. Katbashev, J. Koopman, C. Lavigne, S. Lehtola, F. März, M. Müller,
   F. Musil, H. Neugebauer, J. Pisarek, C. Plett, P. Pracht, F. Pultar,
   J. Seibert, P. Shushkov, S. Spicher, M. Stahn, M. Steiner, T. Strunk,
   J. Stückrath, T. Rose, and J. Unsleber
   
 * started run on 2024/04/06 at 11:12:38.855     

           -------------------------------------------------
          |                Calculation Setup                |
           -------------------------------------------------

          program call               : xtb xtbopt.xyz --opt crude --input .xc2 --gfn2
          hostname                   : n-62-30-23
          coordinate file            : xtbopt.xyz
          omp threads                :                     1

   ID    Z sym.   atoms
    1    7 N      1, 17
    2    6 C      2-6, 8, 9, 11-16, 18-23, 25, 26, 28-33
    3    8 O      7, 10, 24, 27
    4    1 H      34-72
########################################################################
[WARNING] Please study the warnings concerning your input carefully
-1- readin_getIntValue: could not parse ''
########################################################################

           -------------------------------------------------
          |                 G F N 2 - x T B                 |
           -------------------------------------------------

        Reference                      10.1021/acs.jctc.8b01176
      * Hamiltonian:
        H0-scaling (s, p, d)           1.850000    2.230000    2.230000
        zeta-weighting                 0.500000
      * Dispersion:
        s8                             2.700000
        a1                             0.520000
        a2                             5.000000
        s9                             5.000000
      * Repulsion:
        kExp                           1.500000    1.000000
        rExp                           1.000000
      * Coulomb:
        alpha                          2.000000
        third order                    shell-resolved
        anisotropic                    true
        a3                             3.000000
        a5                             4.000000
        cn-shift                       1.200000
        cn-exp                         4.000000
        max-rad                        5.000000

q/qsh data taken from xtbrestart
CAMM data taken from xtbrestart

          ...................................................
          :                      SETUP                      :
          :.................................................:
          :  # basis functions                 171          :
          :  # atomic orbitals                 171          :
          :  # shells                          105          :
          :  # electrons                       180          :
          :  max. iterations                   250          :
          :  Hamiltonian                  GFN2-xTB          :
          :  restarted?                       true          :
          :  GBSA solvation                  false          :
          :  PC potential                    false          :
          :  electronic temp.         5000.0000000     K    :
          :  accuracy                    1.0000000          :
          :  -> integral cutoff          0.2500000E+02      :
          :  -> integral neglect         0.1000000E-07      :
          :  -> SCF convergence          0.1000000E-05 Eh   :
          :  -> wf. convergence          0.1000000E-03 e    :
          :  Broyden damping             0.4000000          :
          ...................................................

 iter      E             dE          RMSdq      gap      omega  full diag
   1   -100.7410870 -0.100741E+03  0.345E-05    0.92       0.0  T
   2   -100.7410870  0.493117E-11  0.279E-05    0.92     422.8  T
   3   -100.7410870 -0.925269E-10  0.146E-05    0.92     809.5  T

   *** convergence criteria satisfied after 3 iterations ***

         #    Occupation            Energy/Eh            Energy/eV
      -------------------------------------------------------------
         1        2.0000           -0.8120766             -22.0977
       ...           ...                  ...                  ...
        84        1.9940           -0.5173938             -14.0790
        85        1.9687           -0.4910394             -13.3619
        86        1.9639           -0.4887616             -13.2999
        87        1.9170           -0.4751906             -12.9306
        88        1.8228           -0.4623867             -12.5822
        89        1.7917           -0.4595544             -12.5051
        90        1.7203           -0.4542425             -12.3606 (HOMO)
        91        0.8366           -0.4202585             -11.4358 (LUMO)
        92        0.0150           -0.3481494              -9.4736
        93        0.0021           -0.3166420              -8.6163
        94        0.0016           -0.3122285              -8.4962
        95        0.0015           -0.3120270              -8.4907
       ...           ...                  ...                  ...
       171                          1.4788420              40.2413
      -------------------------------------------------------------
                  HL-Gap            0.0339840 Eh            0.9248 eV
             Fermi-level           -0.4254803 Eh          -11.5779 eV

 SCC (total)                   0 d,  0 h,  0 min,  0.119 sec
 SCC setup                      ...        0 min,  0.001 sec (  0.813%)
 Dispersion                     ...        0 min,  0.002 sec (  1.445%)
 classical contributions        ...        0 min,  0.000 sec (  0.362%)
 integral evaluation            ...        0 min,  0.018 sec ( 15.482%)
 iterations                     ...        0 min,  0.027 sec ( 23.126%)
 molecular gradient             ...        0 min,  0.069 sec ( 58.214%)
 printout                       ...        0 min,  0.001 sec (  0.546%)

         :::::::::::::::::::::::::::::::::::::::::::::::::::::
         ::                     SUMMARY                     ::
         :::::::::::::::::::::::::::::::::::::::::::::::::::::
         :: total energy             -99.194243580057 Eh    ::
         :: gradient norm              1.059516122148 Eh/a0 ::
         :: HOMO-LUMO gap              0.924751407050 eV    ::
         ::.................................................::
         :: SCC energy              -100.741087041693 Eh    ::
         :: -> isotropic ES            0.103416941193 Eh    ::
         :: -> anisotropic ES          0.005500085045 Eh    ::
         :: -> anisotropic XC          0.044611489671 Eh    ::
         :: -> dispersion             -0.074500407970 Eh    ::
         :: repulsion energy           1.545541219920 Eh    ::
         :: add. restraining           0.000000000000 Eh    ::
         :: total charge               1.000000000000 e     ::
         :::::::::::::::::::::::::::::::::::::::::::::::::::::

      ----------------------------------------------------------- 
     |                   =====================                   |
     |                        A N C O P T                        |
     |                   =====================                   |
     |               Approximate Normal Coordinate               |
     |                Rational Function Optimizer                |
      ----------------------------------------------------------- 

          ...................................................
          :                      SETUP                      :
          :.................................................:
          :   optimization level             crude          :
          :   max. optcycles                   200          :
          :   ANC micro-cycles                  20          :
          :   degrees of freedom               210          :
          :.................................................:
          :   RF solver                   davidson          :
          :   write xtbopt.log                true          :
          :   linear?                        false          :
          :   energy convergence         0.5000000E-03 Eh   :
          :   grad. convergence          0.1000000E-01 Eh/α :
          :   maxmium RF displ.          1.0000000          :
          :   Hlow (freq-cutoff)         0.1000000E-01      :
          :   Hmax (freq-cutoff)         5.0000000          :
          :   S6 in model hess.         20.0000000          :
          ...................................................

generating ANC from model Hessian ...
Using Lindh-Hessian (1995)
 Shifting diagonal of input Hessian by    9.9589019375873524E-003
 Lowest  eigenvalues of input Hessian
    0.000000    0.000000    0.000000    0.000000    0.000000    0.000000
    0.010000    0.010003    0.010100    0.010200    0.010280    0.010577
    0.010635    0.010714    0.011241    0.011659    0.011875    0.012473
 Highest eigenvalues
    2.042900    2.045948    2.182808    2.184579    2.436016    2.684163


........................................................................
.............................. CYCLE    1 ..............................
........................................................................

 iter      E             dE          RMSdq      gap      omega  full diag
   1   -100.7410870 -0.100741E+03  0.317E-05    0.92       0.0  T
   2   -100.7410870  0.112398E-08  0.110E-04    0.92     107.6  T
   3   -100.7410870 -0.121945E-08  0.388E-06    0.92    3039.2  T
     SCC iter.                  ...        0 min,  0.026 sec
     gradient                   ...        0 min,  0.069 sec
 * total energy  :   -99.1942436 Eh     change       -0.9123369E-11 Eh
   gradient norm :     1.0595162 Eh/α   predicted     0.0000000E+00 (-100.00%)
   displ. norm   :     0.4201342 α      lambda       -0.4193780E+00
   maximum displ.:     0.2742127 α      in ANC's #210, #160, #209, ...

........................................................................
.............................. CYCLE    2 ..............................
........................................................................

 iter      E             dE          RMSdq      gap      omega  full diag
   1   -100.7285508 -0.100729E+03  0.266E-01    0.93       0.0  T
   2   -100.7288743 -0.323455E-03  0.144E-01    0.93       1.0  T
   3   -100.7271933  0.168097E-02  0.157E-01    0.85       1.0  T
   4   -100.7271976 -0.425687E-05  0.135E-01    1.04       1.0  T
   5   -100.7290362 -0.183861E-02  0.140E-02    0.92       1.0  T
   6   -100.7290456 -0.938703E-05  0.712E-03    0.93       1.7  T
   7   -100.7290472 -0.166959E-05  0.423E-03    0.92       2.8  T
   8   -100.7290491 -0.187344E-05  0.114E-03    0.93      10.4  T
   9   -100.7290492 -0.560321E-07  0.573E-04    0.93      20.6  T
  10   -100.7290492 -0.262287E-07  0.179E-04    0.93      66.0  T
     SCC iter.                  ...        0 min,  0.081 sec
     gradient                   ...        0 min,  0.069 sec
 * total energy  :   -99.3548612 Eh     change       -0.1606176E+00 Eh
   gradient norm :     0.0505235 Eh/α   predicted    -0.2467023E+00 (  53.60%)
   displ. norm   :     0.1717055 α      lambda       -0.2503818E-02
   maximum displ.:     0.0677629 α      in ANC's #18, #84, #27, ...

........................................................................
.............................. CYCLE    3 ..............................
........................................................................

 iter      E             dE          RMSdq      gap      omega  full diag
   1   -100.7248602 -0.100725E+03  0.571E-02    0.93       0.0  T
   2   -100.7248099  0.503679E-04  0.421E-02    0.91       1.0  T
   3   -100.7243209  0.488976E-03  0.771E-02    0.99       1.0  T
   4   -100.7248417 -0.520830E-03  0.184E-02    0.91       1.0  T
   5   -100.7248785 -0.367722E-04  0.227E-03    0.93       5.2  T
   6   -100.7248788 -0.352350E-06  0.113E-03    0.93      10.5  T
   7   -100.7248789 -0.358976E-07  0.499E-04    0.93      23.6  T
   8   -100.7248789 -0.271502E-07  0.129E-04    0.93      91.3  T
     SCC iter.                  ...        0 min,  0.065 sec
     gradient                   ...        0 min,  0.076 sec
 * total energy  :   -99.3566567 Eh     change       -0.1795469E-02 Eh
   gradient norm :     0.0364264 Eh/α   predicted    -0.1289236E-02 ( -28.20%)
   displ. norm   :     0.1264694 α      lambda       -0.1468114E-02
   maximum displ.:     0.0470693 α      in ANC's #84, #18, #85, ...

........................................................................
.............................. CYCLE    4 ..............................
........................................................................

 iter      E             dE          RMSdq      gap      omega  full diag
   1   -100.7207888 -0.100721E+03  0.426E-02    0.93       0.0  T
   2   -100.7207764  0.124523E-04  0.274E-02    0.92       1.0  T
   3   -100.7203557  0.420630E-03  0.661E-02    0.98       1.0  T
   4   -100.7207906 -0.434846E-03  0.416E-03    0.93       2.8  T
   5   -100.7207918 -0.124268E-05  0.151E-03    0.93       7.8  T
   6   -100.7207919 -0.662275E-07  0.639E-04    0.93      18.4  T
   7   -100.7207919 -0.214931E-07  0.248E-04    0.93      47.6  T
     SCC iter.                  ...        0 min,  0.057 sec
     gradient                   ...        0 min,  0.070 sec
 * total energy  :   -99.3575992 Eh     change       -0.9425190E-03 Eh
   gradient norm :     0.0188422 Eh/α   predicted    -0.7461017E-03 ( -20.84%)
   displ. norm   :     0.0706019 α      lambda       -0.3700183E-03
   maximum displ.:     0.0208308 α      in ANC's #34, #19, #25, ...

........................................................................
.............................. CYCLE    5 ..............................
........................................................................

 iter      E             dE          RMSdq      gap      omega  full diag
   1   -100.7194122 -0.100719E+03  0.196E-02    0.93       0.0  T
   2   -100.7194135 -0.129352E-05  0.113E-02    0.93       1.0  T
   3   -100.7193970  0.164620E-04  0.124E-02    0.94       1.0  T
   4   -100.7194072 -0.101465E-04  0.895E-03    0.92       1.3  T
   5   -100.7194144 -0.721041E-05  0.119E-03    0.93       9.9  T
   6   -100.7194145 -0.965242E-07  0.536E-04    0.93      22.0  T
   7   -100.7194145 -0.549822E-08  0.290E-04    0.93      40.6  T
     SCC iter.                  ...        0 min,  0.057 sec
     gradient                   ...        0 min,  0.075 sec
 * total energy  :   -99.3578418 Eh     change       -0.2426142E-03 Eh
   gradient norm :     0.0072457 Eh/α   predicted    -0.1859427E-03 ( -23.36%)
   displ. norm   :     0.0583928 α      lambda       -0.9642947E-04
   maximum displ.:     0.0202744 α      in ANC's #34, #19, #33, ...

   *** GEOMETRY OPTIMIZATION CONVERGED AFTER 5 ITERATIONS ***

------------------------------------------------------------------------
 total energy gain   :        -0.1635982 Eh     -102.6594 kcal/mol
 total RMSD          :         0.0715495 a0        0.0379 Å
 total power (kW/mol):       -85.9054090 (step) -516.8512 (real)
------------------------------------------------------------------------

 ANCopt (total)                0 d,  0 h,  0 min,  0.831 sec
 optimizer setup                ...        0 min,  0.000 sec (  0.030%)
 model hessian                  ...        0 min,  0.053 sec (  6.400%)
 ANC generation                 ...        0 min,  0.006 sec (  0.767%)
 coordinate transformation      ...        0 min,  0.000 sec (  0.039%)
 single point calculation       ...        0 min,  0.758 sec ( 91.159%)
 optimization log               ...        0 min,  0.004 sec (  0.458%)
 hessian update                 ...        0 min,  0.000 sec (  0.033%)
 rational function              ...        0 min,  0.007 sec (  0.805%)

================
 final structure:
================
72
 xtb: 6.6.1 (8d0f1dd)
N           -2.28914285143062        2.22531036826512        2.51884372101626
C           -2.26037639745171        2.59400916952314        1.31979274465705
C           -3.17249566272810        2.03941611139578        0.25665934354870
C           -3.60776268087457        0.59660669764071        0.40490183055335
C           -4.51108760116878        0.06859980964548       -0.52420369562207
C           -4.92016302592324       -1.25375269718457       -0.47317740434540
O           -5.79399851532650       -1.83401578763978       -1.31964157973258
C           -6.41647842078050       -1.05695282237036       -2.31534481465011
C           -4.40082784559470       -2.10828139670951        0.53937512359825
O           -4.84041956715593       -3.37914136039427        0.51066849256638
C           -4.40845583417988       -4.27736058277719        1.50682337125352
C           -3.50817295849650       -1.57729864820625        1.45851531266407
C           -3.12321531454440       -0.24660421268402        1.39523351744873
C           -2.52829496351814        2.24687233695657       -1.13168290425282
C           -1.51112672182643        1.16671875915931       -1.50701973759525
C           -0.31373537483593        1.11230756640430       -0.55664382513988
N            0.60289563731188        0.05492135028033       -0.90923865532504
C            1.96832854605724        0.20179006781366       -0.46585855049857
C            2.95605933929553       -0.36288116899659       -1.50537940203323
C            4.36656680627794       -0.17060077788411       -1.03350933187081
C            5.02582399673466        1.03320912774960       -1.24682061222686
C            6.31219496188425        1.23468768289601       -0.77551952865426
C            6.97318734310389        0.23369109755662       -0.07435399525980
O            8.21512099999509        0.31911200624713        0.43233003574635
C            8.94955386128566        1.50985901091314        0.26386215610959
C            6.30950801086105       -1.00747168292970        0.14516157175225
O            7.02275736684034       -1.92512496648211        0.82318112084800
C            6.46596815177317       -3.19593618489801        1.06401183107024
C            5.01920538341119       -1.18190049109455       -0.33459694212333
C            0.05299641829050       -1.27496440398402       -0.78675358271168
C           -4.46514328155062        2.98279478825790        0.38955056191350
C           -5.28278376655809        2.59235873910065        1.61657227203533
C           -4.07441034761384        4.39102979008461        0.41499075336896
H           -4.90707829699439        0.70407349899580       -1.29931810617108
H           -6.98937219325035       -0.23222738750042       -1.88033099151727
H           -7.09573181160426       -1.73288913641623       -2.83115824396330
H           -5.68873185812584       -0.66196864375904       -3.03132757260510
H           -4.69348454891780       -3.93416668571685        2.50562309969813
H           -4.91089637686811       -5.21818952028117        1.29106893966806
H           -3.32507758440963       -4.42763778821249        1.46722525065611
H           -3.10596886222516       -2.19647437560624        2.24386766145526
H           -2.45352398240042        0.13612674622193        2.14636768555028
H           -3.30613452456596        2.24896348655562       -1.89581846477548
H           -2.04549186450222        3.22519439343023       -1.16060357831707
H           -2.01106981172814        0.19901544340241       -1.51727412202228
H           -1.14384715757229        1.36698230896709       -2.51485228625810
H           -0.68232353746721        0.97817181468355        0.47447783075377
H            0.22293132844694        2.06242627518401       -0.60544861828636
H            2.13709754696896       -0.30059157826797        0.49913237081097
H            2.18545970796977        1.26296335277704       -0.33027779221922
H            2.79743340639093        0.16109144578299       -2.44835459972231
H            2.75677450980684       -1.42216930802682       -1.66646503140362
H            4.53498600036219        1.82271896370171       -1.79480576678012
H            6.79853336369667        2.17828176136695       -0.96164161722972
H            8.44698695212282        2.35951757253066        0.73586611422694
H            9.12081207536984        1.72808421351548       -0.79435341150137
H            9.90454365250973        1.33620265085296        0.75601853622253
H            7.22808489576266       -3.75046562051561        1.60820883193617
H            5.56143725763095       -3.12817699414969        1.67650743224500
H            6.23734914711758       -3.71626960744550        0.12890163543103
H            4.50895991547265       -2.11878760582672       -0.17459891121429
H           -0.52206515799207       -1.52772435243568       -1.67838244472948
H           -0.60877508977627       -1.35712249655256        0.08470338928589
H            0.85329604205303       -2.00258426534361       -0.68417080333858
H           -5.04730266177971        2.78866481234457       -0.51926343715835
H           -4.65368838093319        2.56797358358309        2.50347058486794
H           -5.72590613151610        1.60871434164856        1.48724562670184
H           -6.08065040270048        3.31395593232334        1.77187572768168
H           -1.64938205737035        3.42439342258589        0.95494408512745
H           -3.78516360942980        4.90384841991662       -0.48286225659438
H           -4.07874492128222        4.94188279910740        1.33646547052783
H           -1.68983507284714        2.72133035343815        3.16987342747039

 Bond Distances (Angstroems)
 ---------------------------
N1-C2=1.2548         N1-H72=1.0144        C2-N1=1.2548         C2-C3=1.5066         C2-H69=1.0936        C3-C2=1.5066         
C3-C4=1.5143         C3-C14=1.5445        C3-C31=1.6058        C4-C3=1.5143         C4-C5=1.3993         C4-C13=1.3880        
C5-C4=1.3993         C5-C6=1.3851         C5-H34=1.0777        C6-C5=1.3851         C6-O7=1.3479         C6-C9=1.4231         
O7-C6=1.3479         O7-C8=1.4081         C8-O7=1.4081         C8-H35=1.0944        C8-H36=1.0883        C8-H37=1.0947        
C9-C6=1.4231         C9-O10=1.3450        C9-C12=1.3869        O10-C9=1.3450        O10-C11=1.4092       C11-O10=1.4092       
C11-H38=1.0939       C11-H39=1.0882       C11-H40=1.0945       C12-C9=1.3869        C12-C13=1.3867       C12-H41=1.0779       
C13-C4=1.3880        C13-C12=1.3867       C13-H42=1.0766       C14-C3=1.5445        C14-C15=1.5304       C14-H43=1.0904       
C14-H44=1.0914       C15-C14=1.5304       C15-C16=1.5297       C15-H45=1.0893       C15-H46=1.0912       C16-C15=1.5297       
C16-N17=1.4431       C16-H47=1.1032       C16-H48=1.0923       N17-C16=1.4431       N17-C18=1.4431       N17-C30=1.4443       
C18-N17=1.4431       C18-C19=1.5411       C18-H49=1.1009       C18-H50=1.0916       C19-C18=1.5411       C19-C20=1.4997       
C19-H51=1.0904       C19-H52=1.0898       C20-C19=1.4997       C20-C21=1.3890       C20-C29=1.3918       C21-C20=1.3890       
C21-C22=1.3847       C21-H53=1.0791       C22-C21=1.3847       C22-C23=1.3894       C22-H54=1.0777       C23-C22=1.3894       
C23-O24=1.3440       C23-C26=1.4245       O24-C23=1.3440       O24-C25=1.4091       C25-O24=1.4091       C25-H55=1.0942       
C25-H56=1.0940       C25-H57=1.0883       C26-C23=1.4245       C26-O27=1.3456       C26-C29=1.3876       O27-C26=1.3456       
O27-C28=1.4082       C28-O27=1.4082       C28-H58=1.0883       C28-H59=1.0945       C28-H60=1.0943       C29-C20=1.3918       
C29-C26=1.3876       C29-H61=1.0788       C30-N17=1.4443       C30-H62=1.0907       C30-H63=1.0973       C30-H64=1.0865       
C31-C3=1.6058        C31-C32=1.5253       C31-C33=1.4617       C31-H65=1.0966       C32-C31=1.5253       C32-H66=1.0876       
C32-H67=1.0866       C32-H68=1.0869       C33-C31=1.4617       C33-H70=1.0737       C33-H71=1.0736       H34-C5=1.0777        
H35-C8=1.0944        H36-C8=1.0883        H37-C8=1.0947        H38-C11=1.0939       H39-C11=1.0882       H40-C11=1.0945       
H41-C12=1.0779       H42-C13=1.0766       H43-C14=1.0904       H44-C14=1.0914       H45-C15=1.0893       H46-C15=1.0912       
H47-C16=1.1032       H48-C16=1.0923       H49-C18=1.1009       H50-C18=1.0916       H51-C19=1.0904       H52-C19=1.0898       
H53-C21=1.0791       H54-C22=1.0777       H55-C25=1.0942       H56-C25=1.0940       H57-C25=1.0883       H58-C28=1.0883       
H59-C28=1.0945       H60-C28=1.0943       H61-C29=1.0788       H62-C30=1.0907       H63-C30=1.0973       H64-C30=1.0865       
H65-C31=1.0966       H66-C32=1.0876       H67-C32=1.0866       H68-C32=1.0869       H69-C2=1.0936        H70-C33=1.0737       
H71-C33=1.0736       H72-N1=1.0144        
 C  H  Rav=1.0889 sigma=0.0072  Rmin=1.0736  Rmax=1.1032    38
 C  C  Rav=1.4543 sigma=0.0702  Rmin=1.3847  Rmax=1.6058    22
 N  H  Rav=1.0144 sigma=0.0000  Rmin=1.0144  Rmax=1.0144     1
 N  C  Rav=1.3963 sigma=0.0817  Rmin=1.2548  Rmax=1.4443     4
 O  C  Rav=1.3771 sigma=0.0315  Rmin=1.3440  Rmax=1.4092     8

 selected bond angles (degree)
 --------------------
H72-N1-C2=117.13               C3-C2-N1=123.52                H69-C2-N1=123.69               H69-C2-C3=112.48               
C4-C3-C2=117.11                C14-C3-C2=109.41               C14-C3-C4=109.62               C31-C3-C2=102.28               
C31-C3-C4=108.68               C31-C3-C14=109.34              C5-C4-C3=118.69                C13-C4-C3=123.25               
C13-C4-C5=118.03               C6-C5-C4=121.76                H34-C5-C4=119.49               H34-C5-C6=118.75               
O7-C6-C5=125.40                C9-C6-C5=119.45                C9-C6-O7=115.15                C8-O7-C6=119.54                
H35-C8-O7=111.48               H36-C8-O7=105.56               H36-C8-H35=109.25              H37-C8-O7=111.58               
H37-C8-H35=109.64              H37-C8-H36=109.21              O10-C9-C6=115.65               C12-C9-C6=118.46               
C12-C9-O10=125.89              C11-O10-C9=119.14              

 selected dihedral angles (degree)
 ---------------------------------
C3-C2-N1-H72=185.35           H69-C2-N1-H72=358.51          C4-C3-C2-N1=328.36            C4-C3-C2-H69=154.52           
C14-C3-C2-N1=202.87           C14-C3-C2-H69= 29.03          C31-C3-C2-N1= 87.02           C31-C3-C2-H69=273.18          
C5-C4-C3-C2=176.65            C5-C4-C3-C14=302.02           C5-C4-C3-C31= 61.48           C13-C4-C3-C2=354.57           
C13-C4-C3-C14=119.94          C13-C4-C3-C31=239.40          C6-C5-C4-C3=177.99            C6-C5-C4-C13=359.96           
H34-C5-C4-C3=357.64           H34-C5-C4-C13=179.61          O7-C6-C5-C4=179.32            O7-C6-C5-H34=359.67           
C9-C6-C5-C4=359.29            C9-C6-C5-H34=179.64           C8-O7-C6-C5=356.78            C8-O7-C6-C9=176.81            
H35-C8-O7-C6=300.86           H36-C8-O7-C6=182.34           H37-C8-O7-C6= 63.82           O10-C9-C6-C5=180.56           
O10-C9-C6-O7=  0.53           C12-C9-C6-C5=  0.83           C12-C9-C6-O7=180.80           C11-O10-C9-C6=182.13          
C11-O10-C9-C12=  1.84         
           -------------------------------------------------
          |                Final Singlepoint                |
           -------------------------------------------------

          ...................................................
          :                      SETUP                      :
          :.................................................:
          :  # basis functions                 171          :
          :  # atomic orbitals                 171          :
          :  # shells                          105          :
          :  # electrons                       180          :
          :  max. iterations                   250          :
          :  Hamiltonian                  GFN2-xTB          :
          :  restarted?                      false          :
          :  GBSA solvation                  false          :
          :  PC potential                    false          :
          :  electronic temp.         5000.0000000     K    :
          :  accuracy                    1.0000000          :
          :  -> integral cutoff          0.2500000E+02      :
          :  -> integral neglect         0.1000000E-07      :
          :  -> SCF convergence          0.1000000E-05 Eh   :
          :  -> wf. convergence          0.1000000E-03 e    :
          :  Broyden damping             0.4000000          :
          ...................................................

 iter      E             dE          RMSdq      gap      omega  full diag
   1   -100.7194145 -0.100719E+03  0.773E-05    0.93       0.0  T
   2   -100.7194145  0.440238E-09  0.848E-05    0.93     138.9  T
   3   -100.7194145 -0.168598E-09  0.797E-05    0.93     147.8  T

   *** convergence criteria satisfied after 3 iterations ***

         #    Occupation            Energy/Eh            Energy/eV
      -------------------------------------------------------------
         1        2.0000           -0.8122673             -22.1029
       ...           ...                  ...                  ...
        84        1.9940           -0.5175530             -14.0833
        85        1.9692           -0.4914282             -13.3724
        86        1.9638           -0.4887847             -13.3005
        87        1.9303           -0.4781470             -13.0110
        88        1.8236           -0.4625512             -12.5867
        89        1.7926           -0.4597212             -12.5097
        90        1.7184           -0.4542071             -12.3596 (HOMO)
        91        0.8281           -0.4200680             -11.4306 (LUMO)
        92        0.0097           -0.3412932              -9.2871
        93        0.0021           -0.3170236              -8.6267
        94        0.0016           -0.3125084              -8.5038
        95        0.0016           -0.3122393              -8.4965
       ...           ...                  ...                  ...
       171                          0.5728935              15.5892
      -------------------------------------------------------------
                  HL-Gap            0.0341390 Eh            0.9290 eV
             Fermi-level           -0.4255673 Eh          -11.5803 eV

 SCC (total)                   0 d,  0 h,  0 min,  0.116 sec
 SCC setup                      ...        0 min,  0.001 sec (  0.747%)
 Dispersion                     ...        0 min,  0.002 sec (  1.362%)
 classical contributions        ...        0 min,  0.000 sec (  0.372%)
 integral evaluation            ...        0 min,  0.018 sec ( 15.496%)
 iterations                     ...        0 min,  0.026 sec ( 22.583%)
 molecular gradient             ...        0 min,  0.069 sec ( 58.950%)
 printout                       ...        0 min,  0.001 sec (  0.476%)

         :::::::::::::::::::::::::::::::::::::::::::::::::::::
         ::                     SUMMARY                     ::
         :::::::::::::::::::::::::::::::::::::::::::::::::::::
         :: total energy             -99.357841799658 Eh    ::
         :: gradient norm              0.007247181739 Eh/a0 ::
         :: HOMO-LUMO gap              0.928970512585 eV    ::
         ::.................................................::
         :: SCC energy              -100.719414490853 Eh    ::
         :: -> isotropic ES            0.102259116609 Eh    ::
         :: -> anisotropic ES          0.005479974716 Eh    ::
         :: -> anisotropic XC          0.046020492468 Eh    ::
         :: -> dispersion             -0.074464442403 Eh    ::
         :: repulsion energy           1.360273763851 Eh    ::
         :: add. restraining           0.000000000000 Eh    ::
         :: total charge               1.000000000000 e     ::
         :::::::::::::::::::::::::::::::::::::::::::::::::::::

           -------------------------------------------------
          |                Property Printout                |
           -------------------------------------------------

    * Orbital Energies and Occupations

         #    Occupation            Energy/Eh            Energy/eV
      -------------------------------------------------------------
         1        2.0000           -0.8122673             -22.1029
       ...           ...                  ...                  ...
        78        1.9978           -0.5331564             -14.5079
        79        1.9974           -0.5305605             -14.4373
        80        1.9970           -0.5286807             -14.3861
        81        1.9966           -0.5267062             -14.3324
        82        1.9958           -0.5231037             -14.2344
        83        1.9945           -0.5189856             -14.1223
        84        1.9940           -0.5175530             -14.0833
        85        1.9692           -0.4914282             -13.3724
        86        1.9638           -0.4887847             -13.3005
        87        1.9303           -0.4781470             -13.0110
        88        1.8236           -0.4625512             -12.5867
        89        1.7926           -0.4597212             -12.5097
        90        1.7184           -0.4542071             -12.3596 (HOMO)
        91        0.8281           -0.4200680             -11.4306 (LUMO)
        92        0.0097           -0.3412932              -9.2871
        93        0.0021           -0.3170236              -8.6267
        94        0.0016           -0.3125084              -8.5038
        95        0.0016           -0.3122393              -8.4965
        96        0.0014           -0.3104431              -8.4476
        97        0.0000           -0.1913889              -5.2080
        98        0.0000           -0.1878875              -5.1127
        99                         -0.1037211              -2.8224
       100                         -0.0813512              -2.2137
       101                         -0.0650088              -1.7690
       ...                                ...                  ...
       171                          0.5728935              15.5892
      -------------------------------------------------------------
                  HL-Gap            0.0341390 Eh            0.9290 eV
             Fermi-level           -0.4255673 Eh          -11.5803 eV

     #   Z          covCN         q      C6AA      α(0)
     1   7 N        1.774    -0.285    28.206     7.865
     2   6 C        2.829     0.101    25.763     8.317
     3   6 C        3.902     0.013    20.304     6.405
     4   6 C        2.967     0.015    27.665     8.627
     5   6 C        2.921    -0.076    29.910     8.969
     6   6 C        2.861     0.132    25.105     8.213
     7   8 O        1.706    -0.224    17.715     5.683
     8   6 C        3.644     0.026    20.471     6.504
     9   6 C        2.864     0.134    25.078     8.209
    10   8 O        1.706    -0.220    17.645     5.671
    11   6 C        3.646     0.024    20.495     6.506
    12   6 C        2.914    -0.069    29.718     8.939
    13   6 C        2.921    -0.045    29.116     8.849
    14   6 C        3.808    -0.067    21.784     6.644
    15   6 C        3.802    -0.070    21.840     6.654
    16   6 C        3.750    -0.001    20.657     6.482
    17   7 N        2.728    -0.107    23.339     7.175
    18   6 C        3.750     0.002    20.614     6.475
    19   6 C        3.808    -0.073    21.885     6.659
    20   6 C        2.968     0.011    27.773     8.644
    21   6 C        2.922    -0.044    29.087     8.844
    22   6 C        2.913    -0.065    29.620     8.924
    23   6 C        2.864     0.135    25.041     8.203
    24   8 O        1.706    -0.215    17.566     5.659
    25   6 C        3.645     0.023    20.517     6.510
    26   6 C        2.862     0.136    25.033     8.201
    27   8 O        1.706    -0.217    17.610     5.666
    28   6 C        3.645     0.025    20.489     6.506
    29   6 C        2.919    -0.076    29.886     8.965
    30   6 C        3.702    -0.050    21.641     6.652
    31   6 C        3.856     0.000    20.543     6.446
    32   6 C        3.756    -0.119    22.825     6.812
    33   6 C        2.840    -0.088    30.191     9.005
    34   1 H        0.926     0.052     2.292     2.367
    35   1 H        0.924     0.054     2.272     2.357
    36   1 H        0.925     0.083     1.946     2.182
    37   1 H        0.924     0.052     2.299     2.371
    38   1 H        0.924     0.058     2.218     2.329
    39   1 H        0.925     0.083     1.945     2.181
    40   1 H        0.924     0.053     2.282     2.362
    41   1 H        0.926     0.057     2.230     2.335
    42   1 H        0.926     0.074     2.041     2.234
    43   1 H        0.924     0.052     2.294     2.369
    44   1 H        0.924     0.046     2.371     2.408
    45   1 H        0.925     0.050     2.314     2.379
    46   1 H        0.924     0.058     2.228     2.334
    47   1 H        0.923     0.033     2.540     2.493
    48   1 H        0.924     0.047     2.355     2.400
    49   1 H        0.923     0.038     2.475     2.460
    50   1 H        0.924     0.050     2.315     2.380
    51   1 H        0.924     0.064     2.155     2.296
    52   1 H        0.925     0.055     2.255     2.348
    53   1 H        0.926     0.054     2.276     2.359
    54   1 H        0.926     0.061     2.186     2.312
    55   1 H        0.924     0.057     2.230     2.335
    56   1 H        0.924     0.059     2.206     2.323
    57   1 H        0.925     0.085     1.932     2.174
    58   1 H        0.925     0.084     1.939     2.178
    59   1 H        0.924     0.053     2.279     2.361
    60   1 H        0.924     0.057     2.238     2.340
    61   1 H        0.926     0.053     2.280     2.361
    62   1 H        0.924     0.059     2.211     2.325
    63   1 H        0.924     0.043     2.416     2.431
    64   1 H        0.925     0.060     2.204     2.322
    65   1 H        0.924     0.068     2.105     2.269
    66   1 H        0.925     0.066     2.130     2.282
    67   1 H        0.925     0.049     2.328     2.386
    68   1 H        0.925     0.058     2.227     2.334
    69   1 H        0.924     0.021     2.714     2.576
    70   1 H        0.926     0.059     2.215     2.328
    71   1 H        0.926     0.065     2.137     2.286
    72   1 H        0.860     0.161     1.328     1.805

 Mol. C6AA /au·bohr⁶  :      47482.138053
 Mol. C8AA /au·bohr⁸  :    1082027.946589
 Mol. α(0) /au        :        334.553364


Wiberg/Mayer (AO) data.
largest (>0.10) Wiberg bond orders for each atom

 ---------------------------------------------------------------------------
     #   Z sym  total        # sym  WBO       # sym  WBO       # sym  WBO
 ---------------------------------------------------------------------------
     1   7 N    3.015 --     2 C    1.929    72 H    0.940
     2   6 C    3.940 --     1 N    1.929     3 C    0.999    69 H    0.928
     3   6 C    3.905 --     2 C    0.999     4 C    0.993    14 C    0.972
                            31 C    0.828
     4   6 C    3.930 --    13 C    1.398     5 C    1.363     3 C    0.993
     5   6 C    3.947 --     6 C    1.400     4 C    1.363    34 H    0.957
     6   6 C    3.888 --     5 C    1.400     9 C    1.210     7 O    1.104
     7   8 O    2.247 --     6 C    1.104     8 C    0.977
     8   6 C    3.929 --     7 O    0.977    36 H    0.976    35 H    0.973
                            37 H    0.972
     9   6 C    3.879 --    12 C    1.381     6 C    1.210    10 O    1.112
    10   8 O    2.250 --     9 C    1.112    11 C    0.976
    11   6 C    3.927 --    39 H    0.977    10 O    0.976    40 H    0.972
                            38 H    0.972
    12   6 C    3.952 --    13 C    1.415     9 C    1.381    41 H    0.962
    13   6 C    3.925 --    12 C    1.415     4 C    1.398    42 H    0.951
    14   6 C    3.986 --    15 C    1.005     3 C    0.972    44 H    0.971
                            43 H    0.969
    15   6 C    3.981 --    14 C    1.005    16 C    0.997    46 H    0.973
                            45 H    0.969
    16   6 C    3.969 --    17 N    1.008    15 C    0.997    48 H    0.969
                            47 H    0.942
    17   7 N    3.098 --    30 C    1.016    18 C    1.009    16 C    1.008
    18   6 C    3.963 --    17 N    1.009    50 H    0.970    19 C    0.970
                            49 H    0.956
    19   6 C    3.975 --    20 C    1.015    18 C    0.970    52 H    0.968
                            51 H    0.968
    20   6 C    3.924 --    29 C    1.387    21 C    1.387    19 C    1.015
    21   6 C    3.925 --    22 C    1.428    20 C    1.387    53 H    0.967
    22   6 C    3.948 --    21 C    1.428    23 C    1.371    54 H    0.962
    23   6 C    3.870 --    22 C    1.371    26 C    1.209    24 O    1.117
    24   8 O    2.246 --    23 C    1.117    25 C    0.975
    25   6 C    3.924 --    57 H    0.976    24 O    0.975    55 H    0.971
                            56 H    0.971
    26   6 C    3.877 --    29 C    1.385    23 C    1.209    27 O    1.112
    27   8 O    2.248 --    26 C    1.112    28 C    0.977
    28   6 C    3.927 --    27 O    0.977    58 H    0.976    59 H    0.972
                            60 H    0.972
    29   6 C    3.950 --    20 C    1.387    26 C    1.385    61 H    0.961
    30   6 C    3.968 --    17 N    1.016    64 H    0.978    62 H    0.971
                            63 H    0.966
    31   6 C    3.971 --    33 C    1.123    32 C    1.006    65 H    0.925
                             3 C    0.828
    32   6 C    3.979 --    31 C    1.006    67 H    0.980    68 H    0.980
                            66 H    0.975
    33   6 C    3.169 --    31 C    1.123    70 H    0.981    71 H    0.980
    34   1 H    0.995 --     5 C    0.957
    35   1 H    0.992 --     8 C    0.973
    36   1 H    0.992 --     8 C    0.976
    37   1 H    0.991 --     8 C    0.972
    38   1 H    0.990 --    11 C    0.972
    39   1 H    0.992 --    11 C    0.977
    40   1 H    0.991 --    11 C    0.972
    41   1 H    0.994 --    12 C    0.962
    42   1 H    0.992 --    13 C    0.951
    43   1 H    0.994 --    14 C    0.969
    44   1 H    0.996 --    14 C    0.971
    45   1 H    0.996 --    15 C    0.969
    46   1 H    0.994 --    15 C    0.973
    47   1 H    0.975 --    16 C    0.942
    48   1 H    0.997 --    16 C    0.969
    49   1 H    0.977 --    18 C    0.956
    50   1 H    0.997 --    18 C    0.970
    51   1 H    0.992 --    19 C    0.968
    52   1 H    0.995 --    19 C    0.968
    53   1 H    0.996 --    21 C    0.967
    54   1 H    0.994 --    22 C    0.962
    55   1 H    0.989 --    25 C    0.971
    56   1 H    0.989 --    25 C    0.971
    57   1 H    0.992 --    25 C    0.976
    58   1 H    0.992 --    28 C    0.976
    59   1 H    0.990 --    28 C    0.972
    60   1 H    0.990 --    28 C    0.972
    61   1 H    0.995 --    29 C    0.961
    62   1 H    0.985 --    30 C    0.971
    63   1 H    0.980 --    30 C    0.966
    64   1 H    0.996 --    30 C    0.978
    65   1 H    0.966 --    31 C    0.925
    66   1 H    0.994 --    32 C    0.975
    67   1 H    0.995 --    32 C    0.980
    68   1 H    0.995 --    32 C    0.980
    69   1 H    0.981 --     2 C    0.928
    70   1 H    0.996 --    33 C    0.981
    71   1 H    0.995 --    33 C    0.980
    72   1 H    0.967 --     1 N    0.940
 ---------------------------------------------------------------------------

Topologies differ in total number of bonds
Writing topology from bond orders to xtbtopo.mol

molecular dipole:
                 x           y           z       tot (Debye)
 q only:        0.141       0.435      -0.243
   full:        0.282       0.906      -0.189       2.459
molecular quadrupole (traceless):
                xx          xy          yy          xz          yz          zz
 q only:       69.178      -2.270     -18.859       3.662      -8.535     -50.319
  q+dip:       60.663      -1.903     -11.607       6.013      -9.045     -49.057
   full:       61.989      -3.784     -12.595       3.872      -7.938     -49.394

           -------------------------------------------------
          |                Geometry Summary                 |
           -------------------------------------------------

      molecular mass/u    :      455.6105846
   center of mass at/Å    :       -0.0269526       0.0192659       0.0104537
  moments of inertia/u·Å² :        0.2439259E+04   0.1133014E+05   0.1257450E+05
rotational constants/cm⁻¹ :        0.6910966E-02   0.1487857E-02   0.1340621E-02

 * 67 selected distances

     #   Z          #   Z                                           value/Å
     1   7 N        2   6 C                                       1.2547868
     4   6 C        5   6 C                                       1.3992943
     5   6 C        6   6 C                                       1.3851220
     6   6 C        7   8 O                                       1.3478856
     7   8 O        8   6 C                                       1.4080957
     6   6 C        9   6 C                                       1.4230922
     9   6 C       10   8 O                                       1.3450466
    10   8 O       11   6 C                                       1.4091541
     9   6 C       12   6 C                                       1.3869371
     4   6 C       13   6 C                                       1.3880014
    12   6 C       13   6 C                                       1.3867029
    14   6 C       15   6 C                                       1.5304382
    15   6 C       16   6 C                                       1.5296802
    16   6 C       17   7 N                                       1.4431221
    17   7 N       18   6 C                                       1.4431091
    18   6 C       19   6 C                                       1.5411261 (max)
    20   6 C       21   6 C                                       1.3889854
    21   6 C       22   6 C                                       1.3847270
    22   6 C       23   6 C                                       1.3894382
    23   6 C       24   8 O                                       1.3440331
    24   8 O       25   6 C                                       1.4091316
    23   6 C       26   6 C                                       1.4244798
    26   6 C       27   8 O                                       1.3455568
    27   8 O       28   6 C                                       1.4081815
    20   6 C       29   6 C                                       1.3918129
    26   6 C       29   6 C                                       1.3876148
    17   7 N       30   6 C                                       1.4442951
    31   6 C       32   6 C                                       1.5253062
    31   6 C       33   6 C                                       1.4616585
     5   6 C       34   1 H                                       1.0777003
     8   6 C       35   1 H                                       1.0943567
     8   6 C       36   1 H                                       1.0882733
     8   6 C       37   1 H                                       1.0946502
    11   6 C       38   1 H                                       1.0939033
    11   6 C       39   1 H                                       1.0881892
    11   6 C       40   1 H                                       1.0944679
    12   6 C       41   1 H                                       1.0779264
    13   6 C       42   1 H                                       1.0766486
    14   6 C       43   1 H                                       1.0903862
    14   6 C       44   1 H                                       1.0913521
    15   6 C       45   1 H                                       1.0892650
    15   6 C       46   1 H                                       1.0912041
    16   6 C       47   1 H                                       1.1032052
    16   6 C       48   1 H                                       1.0922998
    18   6 C       49   1 H                                       1.1009441
    18   6 C       50   1 H                                       1.0916121
    19   6 C       51   1 H                                       1.0903724
    19   6 C       52   1 H                                       1.0898416
    21   6 C       53   1 H                                       1.0791365
    22   6 C       54   1 H                                       1.0777460
    25   6 C       55   1 H                                       1.0942034
    25   6 C       56   1 H                                       1.0939708
    25   6 C       57   1 H                                       1.0882923
    28   6 C       58   1 H                                       1.0883361
    28   6 C       59   1 H                                       1.0944946
    28   6 C       60   1 H                                       1.0942782
    29   6 C       61   1 H                                       1.0787527
    30   6 C       62   1 H                                       1.0906813
    30   6 C       63   1 H                                       1.0973281
    30   6 C       64   1 H                                       1.0864776
    31   6 C       65   1 H                                       1.0966034
    32   6 C       66   1 H                                       1.0876325
    32   6 C       67   1 H                                       1.0865723
    32   6 C       68   1 H                                       1.0869283
     2   6 C       69   1 H                                       1.0936027
    33   6 C       70   1 H                                       1.0736791
    33   6 C       71   1 H                                       1.0735798 (min)

 * 4 distinct bonds (by element types)

   Z      Z             #   av. dist./Å        max./Å        min./Å
   1 H    6 C          38     1.0889183     1.1032052     1.0735798
   6 C    6 C          17     1.4308481     1.5411261     1.3847270
   6 C    7 N           4     1.3963283     1.4442951     1.2547868
   6 C    8 O           8     1.3771356     1.4091541     1.3440331


optimized geometry written to: xtbopt.xyz


           -------------------------------------------------
          | TOTAL ENERGY              -99.357841799658 Eh   |
          | GRADIENT NORM               0.007247181739 Eh/α |
          | HOMO-LUMO GAP               0.928970512585 eV   |
           -------------------------------------------------

------------------------------------------------------------------------
 * finished run on 2024/04/06 at 11:12:39.973     
------------------------------------------------------------------------
 total:
 * wall-time:     0 d,  0 h,  0 min,  1.118 sec
 *  cpu-time:     0 d,  0 h,  0 min,  1.089 sec
 * ratio c/w:     0.974 speedup
 SCF:
 * wall-time:     0 d,  0 h,  0 min,  0.119 sec
 *  cpu-time:     0 d,  0 h,  0 min,  0.119 sec
 * ratio c/w:     0.999 speedup
 ANC optimizer:
 * wall-time:     0 d,  0 h,  0 min,  0.955 sec
 *  cpu-time:     0 d,  0 h,  0 min,  0.945 sec
 * ratio c/w:     0.990 speedup

