72
 energy: 0.000000000000 xtb: 6.6.1 (8d0f1dd)
N           -1.47310934822924        2.74401318561852        2.22063942287560
C           -1.55658894218425        2.16490305624665        1.13274284460745
C           -2.74549225258129        2.05621251263064        0.23826250649470
C           -3.31377583855761        0.64333417511334        0.32332515650284
C           -4.30230195924506        0.24487112428158       -0.58026167086503
C           -4.85238808050968       -1.02286499940159       -0.53363593669082
O           -5.81420026757557       -1.48606047972767       -1.36157895357670
C           -6.39655692584623       -0.60827005826649       -2.29568495601309
C           -4.39972542350640       -1.94646120241305        0.44396933240983
O           -4.98748357557592       -3.16146026488900        0.41085995818162
C           -4.66362171172287       -4.10093865802695        1.40909140816864
C           -3.42072545213514       -1.54561399150247        1.33436558640148
C           -2.88302826362110       -0.26315802838497        1.27400162590187
C           -2.19303818453636        2.30467021687947       -1.18742988123374
C           -1.26651549989641        1.17243380322503       -1.65249445018642
C            0.01082525039567        1.09745464658138       -0.89354811789923
N            0.61779399208289       -0.02034948241203       -0.57705527866251
C            2.00145228921113       -0.02376006609561       -0.15611401051620
C            2.92554961797610       -0.53865287672537       -1.27700100652360
C            4.35756883501756       -0.43050761225877       -0.83075552032494
C            5.07346182539911        0.73206415878124       -1.03980975472950
C            6.38628045899965        0.84224449235903       -0.60344828301384
C            7.00047329721665       -0.20824758267940        0.05722314949100
O            8.26703733840855       -0.21011315050632        0.52410948507466
C            9.06912311989339        0.92943609656965        0.31863060963839
C            6.27040022445068       -1.40439766990411        0.28033468609137
O            6.94830004375713       -2.38012947787858        0.92752007684741
C            6.31537376337817       -3.61583233633369        1.15217722400438
C            4.96302840674480       -1.49347485723979       -0.16064431849589
C           -0.05511211878686       -1.29906259857679       -0.62085692079872
C           -3.86758072907722        3.07992629005348        0.58498065642721
C           -4.49286201346546        2.77383518785172        1.94313307512182
C           -3.39165211343248        4.52917708609625        0.54797528556046
H           -4.66030069703099        0.94509076131725       -1.31640581036773
H           -6.85037992114187        0.25803164586058       -1.80468862056629
H           -7.17287509152171       -1.18600121846629       -2.79318183475679
H           -5.66836870040540       -0.26952968819383       -3.04040283452035
H           -4.88416765986127       -3.71589494995018        2.40913564538747
H           -5.29223619720187       -4.96637504833431        1.20969248126828
H           -3.61139846644506       -4.39919876145526        1.35529370415983
H           -3.07077825100221       -2.21868786295666        2.10002682176568
H           -2.14562774333496        0.02067850888151        2.01001363031684
H           -3.02188903413801        2.38238034416975       -1.88813562572432
H           -1.65198546223364        3.25146730843841       -1.20556295755141
H           -1.81103391047759        0.23006526775522       -1.62116316669324
H           -0.99335697743926        1.37490224954061       -2.69443281971844
H           -0.67628070635666        1.65183902374723        0.61785732877701
H            0.63525847086258        1.98466388206871       -0.92314029755375
H            2.11132572081740       -0.65949698961381        0.72532619960637
H            2.30680494458141        0.98978260887088        0.11078973822125
H            2.76694224489122        0.06750735773687       -2.17075272340394
H            2.67954606229959       -1.57455642411728       -1.51167757545099
H            4.62170041431221        1.56295626549351       -1.56123593485311
H            6.92357738865082        1.75715832247601       -0.79119604059515
H            8.65159193263071        1.81001840117181        0.81701562739969
H            9.20136256512460        1.14042868409438       -0.74698998879646
H           10.03428931104811        0.69003246578081        0.76064945022918
H            7.05567240429544       -4.23621211097668        1.65347581279537
H            5.43848051513375       -3.50813590722545        1.79970582482858
H            6.02060097762632       -4.09420535105165        0.21253284608183
H            4.40102799328555       -2.40127288651695       -0.00490198294521
H           -0.22071301762289       -1.61775598610935       -1.65116024301020
H           -1.01972267469312       -1.24102728946113       -0.10935207845464
H            0.55899959333766       -2.04486104898380       -0.12333731565713
H           -4.63991918782192        2.95501120214274       -0.18098089750912
H           -3.76095251366987        2.90314731895452        2.73380846416528
H           -4.87457659255110        1.75695657819473        1.97884621460846
H           -5.31925601899505        3.45579242388173        2.12325583951056
H           -2.60025614255587        4.69225089676674        1.27368930043085
H           -3.03987434616939        4.81897697030947       -0.43870979129779
H           -4.22191779840287        5.18069696155015        0.80616701440619
H           -0.59832439338922        2.77744720721660        2.72959009765665
72
 energy: -5.465646366413 xtb: 6.6.1 (8d0f1dd)
N           -1.48989349955797        2.77948668009159        2.23866540697739
C           -1.56307657627239        2.15392942003440        1.15717649591868
C           -2.74707814771939        2.06014239245066        0.24613589624683
C           -3.31873446902814        0.64985408182895        0.32828586389260
C           -4.30479279365346        0.24704605148784       -0.57535582716363
C           -4.85126700639770       -1.02187501316708       -0.53160977517225
O           -5.81780278185027       -1.48869404694910       -1.36313611982688
C           -6.39593447621671       -0.60871831724013       -2.29564297972235
C           -4.39996411037735       -1.94377495289646        0.44366929593487
O           -4.99103912395304       -3.16523932880422        0.40995462396204
C           -4.66362216341588       -4.10063326488278        1.40842923001507
C           -3.42447408271680       -1.54152935708006        1.33583703500561
C           -2.89001247410442       -0.25780419156186        1.27799559903129
C           -2.19502693345684        2.29932039251242       -1.18405107917948
C           -1.26121965887437        1.18327688913260       -1.67729324821832
C            0.01034144089450        1.12098714488021       -0.89949590517146
N            0.63175131028105       -0.04087101924761       -0.56522015497709
C            2.00736797244887       -0.03811630634112       -0.15766536185108
C            2.93567105288170       -0.54268483562289       -1.28019356623111
C            4.36384745767033       -0.43513211322660       -0.84248238103867
C            5.07802744260743        0.73058368958177       -1.04398939526860
C            6.38787417654054        0.84229100745837       -0.60177602097320
C            7.00116144265151       -0.20867952443135        0.05874887122273
O            8.27558815756912       -0.21175718353782        0.52774399370557
C            9.07084257675598        0.92929698529548        0.31952001882813
C            6.27239594318663       -1.40272537268557        0.28078103543771
O            6.95322118891292       -2.38251558981944        0.93101697386491
C            6.31597927478210       -3.61532577474883        1.15235796427690
C            4.96846233973400       -1.49482868980029       -0.16532283253627
C           -0.04981675509598       -1.30782950295071       -0.61790698895913
C           -3.87401256197314        3.07855094180524        0.58173481022194
C           -4.49707528450601        2.77621799626955        1.94230441447391
C           -3.39560133220674        4.52785447176532        0.54840199642610
H           -4.65775203230744        0.94492236258239       -1.31643878195221
H           -6.84813629406065        0.25885733477587       -1.80432389149015
H           -7.17311236221488       -1.18477748977912       -2.79498480373192
H           -5.66638918716221       -0.26866841557074       -3.03855369929716
H           -4.88275978533688       -3.71439029825984        2.40897066793428
H           -5.29121494289462       -4.96791288529709        1.21108526279907
H           -3.61054650558262       -4.39679098355201        1.35524383947312
H           -3.06982227471555       -2.21774049906887        2.09770453718434
H           -2.14534910269718        0.02435678791530        2.00616406155161
H           -3.02656200043331        2.38530437233792       -1.88410686800621
H           -1.65057109677711        3.24450794545399       -1.20050303526730
H           -1.79894781813830        0.23718112531095       -1.62929363030891
H           -1.02116047009623        1.38323206527708       -2.73118614711707
H           -0.68647420648746        1.64767059332717        0.65413682121539
H            0.64875240674403        1.99277364862845       -0.96209667731559
H            2.12375110697955       -0.66882408068404        0.72808355948252
H            2.30061661732689        0.98020699170143        0.10763390923923
H            2.76548198908708        0.06716341568522       -2.16900662409730
H            2.68298093742144       -1.57706346466666       -1.51410905408909
H            4.62300480036806        1.56240185960256       -1.56092502670801
H            6.92532270382721        1.75821072521571       -0.78772401008760
H            8.65069739500180        1.80992028088320        0.81666996054276
H            9.20045411290090        1.14094402890521       -0.74691361545301
H           10.03748198070967        0.69308582519015        0.76069087497792
H            7.05442552796135       -4.23843378311890        1.65398202381372
H            5.43746168622428       -3.50674114628485        1.79771250341582
H            6.01968326837645       -4.09204934178806        0.21191128876035
H            4.40344004412274       -2.40042255827562       -0.00616224939872
H           -0.22055958471207       -1.62541998415045       -1.65125990136788
H           -1.01559595879285       -1.24227151346237       -0.10856994217396
H            0.55859952989679       -2.05729362901553       -0.11895996889399
H           -4.64906833350860        2.95892927087089       -0.18403246564697
H           -3.75646141010803        2.90242233433109        2.72583937430439
H           -4.87526550179794        1.75752909929745        1.97790850876943
H           -5.32412500947472        3.45825537375444        2.12711408197035
H           -2.60066407248646        4.68230187700961        1.27224403091127
H           -3.03967774130893        4.81414553081269       -0.43811648363427
H           -4.22390859734522        5.18411745562348        0.80689656956223
H           -0.60821856716731        2.77954778095439        2.74214364343655
72
 energy: -7.099873715448 xtb: 6.6.1 (8d0f1dd)
N           -1.51907334191116        2.82939335802057        2.24879175009743
C           -1.57215971419194        2.15501630438906        1.18338556954128
C           -2.75017230003272        2.06318302783439        0.25448014469659
C           -3.32458051043136        0.65472313265995        0.33294590239979
C           -4.30930155691108        0.24917875265454       -0.57024422617988
C           -4.85277241343312       -1.02042908707426       -0.52809681873518
O           -5.82220189537122       -1.49043637561479       -1.36432220760926
C           -6.39407381009565       -0.60801987342887       -2.29570594899474
C           -4.40306569186720       -1.94061181286855        0.44494322374592
O           -4.99555499312511       -3.16856951117675        0.40986717689257
C           -4.66262581541012       -4.09933598451148        1.40799701789750
C           -3.43045044178927       -1.53804092008616        1.33914212524833
C           -2.89942376076247       -0.25374956549966        1.28345539505239
C           -2.19457487831537        2.29918530719466       -1.17731314890152
C           -1.25721784738544        1.19027916193965       -1.69101249893122
C            0.01629299149778        1.13736999073857       -0.91150001264833
N            0.64088277171337       -0.05478946399025       -0.55886452295979
C            2.01215304738987       -0.05031752862967       -0.16302222178942
C            2.94714793457865       -0.54839119889086       -1.28618075102201
C            4.37299851914024       -0.44054140757720       -0.85362722607558
C            5.08676447003880        0.72663155469814       -1.04915574674937
C            6.39426773041352        0.84080503543334       -0.60001646358391
C            7.00577830737709       -0.21012470541253        0.06017056328875
O            8.28597593741716       -0.21287508356038        0.53206322696745
C            9.07361071985170        0.93025508988581        0.32110409149115
C            6.27897672642139       -1.40211274955869        0.27965091760705
O            6.95985424167501       -2.38522499476895        0.93510862194790
C            6.31632588562061       -3.61421474936630        1.15234227003377
C            4.97778234914676       -1.49720210710893       -0.17306818707855
C           -0.04771060431486       -1.31297284442409       -0.61764684751183
C           -3.88130129322073        3.07780525613958        0.57815686554983
C           -4.50412929521530        2.77805241623318        1.94022918764333
C           -3.40089819253401        4.52687355449442        0.54694462108171
H           -4.65609425036417        0.94499577363445       -1.31649348589516
H           -6.84482279509452        0.26082965738733       -1.80431394055475
H           -7.17209686607987       -1.18074461428604       -2.79857226484625
H           -5.66200519835602       -0.26720661226711       -3.03597554339684
H           -4.88030829188662       -3.71231061195221        2.40915944072515
H           -5.28769997933765       -4.96982673005988        1.21430899579469
H           -3.60840026559617       -4.39241159972736        1.35470101721963
H           -3.06999159275730       -2.21697916551248        2.09630715239811
H           -2.14938051855541        0.02852733143727        2.00558412170354
H           -3.03216624987169        2.39421845037861       -1.87193168113487
H           -1.64738803214274        3.24316188896770       -1.18974785009006
H           -1.78322021327481        0.23784790648585       -1.63751249159001
H           -1.05691351409062        1.39641786469688       -2.75668763040524
H           -0.70376952293094        1.62286103906247        0.71855478571408
H            0.67896326117480        1.98633059667957       -1.02057063190240
H            2.14363726476205       -0.68140055896485        0.72426097020844
H            2.29833591423896        0.96937613019607        0.10517219104978
H            2.76632838017642        0.06587503064697       -2.16970581622562
H            2.69090057852421       -1.58181536444466       -1.52311134856777
H            4.62837360287042        1.55910154969648       -1.56205834186460
H            6.92974573694372        1.75962595440726       -0.77964667881670
H            8.65027714965781        1.81056750422176        0.81691445145952
H            9.20028245859588        1.14232590505402       -0.74615768787723
H           10.04285456505967        0.70018030325601        0.76060211455683
H            7.05054447322463       -4.24222422356016        1.65479936532881
H            5.43574619688298       -3.50368343825214        1.79475743646624
H            6.01926063709045       -4.08837373895080        0.21043962519621
H            4.40932194975121       -2.40019490492327       -0.01128896354239
H           -0.22077385613337       -1.63791325929119       -1.65102740676997
H           -1.01439780282604       -1.24518448366045       -0.11062549626920
H            0.55390697901302       -2.06779560151306       -0.11485171510450
H           -4.65746838300302        2.96099823718394       -0.18829483673012
H           -3.75388740784052        2.90251488891545        2.71475967655407
H           -4.88102015094440        1.75860501640822        1.97786271233556
H           -5.32983851407755        3.46081230167866        2.13135176887420
H           -2.60338922982390        4.66861988482723        1.27023031980058
H           -3.04062086634840        4.80933637315248       -0.43916277492462
H           -4.22535044923437        5.18847299255776        0.80670745721315
H           -0.63309967647851        2.78496211973871        2.75274767395751
72
 energy: -7.186954803516 xtb: 6.6.1 (8d0f1dd)
N           -1.55542236813054        2.87194243085182        2.25771494243103
C           -1.58712836130502        2.15981017855657        1.21078433683889
C           -2.75576259148257        2.06518021803901        0.26358769671144
C           -3.33091959774680        0.65763400386192        0.33780630346454
C           -4.31425640226881        0.25129960760227       -0.56617253834492
C           -4.85710098322144       -1.01845426746838       -0.52386324459662
O           -5.82653317898530       -1.48977540244667       -1.36440566316547
C           -6.39108288035534       -0.60518031778250       -2.29628271321398
C           -4.40908571395142       -1.93771594470049        0.44821769604846
O           -5.00024104501486       -3.17000362369428        0.41167707057296
C           -4.66047570997755       -4.09718777739337        1.40888048695837
C           -3.43796653815346       -1.53567769121069        1.34425736988847
C           -2.90950710318336       -0.25111245359857        1.29017694392460
C           -2.19218395077826        2.30178478912283       -1.16561389528897
C           -1.25609745790062        1.19491183121849       -1.69503149903640
C            0.02705579246496        1.14302873271581       -0.93202498051738
N            0.64666464971782       -0.06507483199159       -0.56118628275884
C            2.01830091237195       -0.06260060874688       -0.17261047183255
C            2.95940416700457       -0.55464198429002       -1.29742597631043
C            4.38456429774010       -0.44594448729564       -0.86394287618346
C            5.09899712465993        0.72198382206895       -1.05457532825999
C            6.40433256277659        0.83856452809605       -0.59861126482276
C            7.01484755081188       -0.21258522017480        0.06124555788668
O            8.29715761508966       -0.21275424598994        0.53676975086061
C            9.07807467274501        0.93307042430360        0.32355197583839
C            6.28941811281065       -1.40394581507544        0.27697547570400
O            6.96700957776867       -2.38855932482133        0.93851712569523
C            6.31625555569427       -3.61349184149399        1.15207400949431
C            4.99020598148910       -1.50125363310224       -0.18243481108115
C           -0.04757356062054       -1.31827963415882       -0.61925131118902
C           -3.89092091739892        3.07786089214746        0.57513851451337
C           -4.51515477983008        2.78042104395375        1.93757210373698
C           -3.40767178321662        4.52603771025167        0.54369594024536
H           -4.65588783741258        0.94586649619053       -1.31603202914919
H           -6.84081517870464        0.26489123471629       -1.80557999772057
H           -7.16936337046772       -1.17370531756675       -2.80398912697312
H           -5.65494470606141       -0.26496559182739       -3.03303551929819
H           -4.87666423756270       -3.71003673647491        2.41066175728414
H           -5.28160445649242       -4.97173785140593        1.21939913705176
H           -3.60483986210285       -4.38583363730253        1.35385913614060
H           -3.07348190597904       -2.21595462362281        2.09812349982274
H           -2.15919116873134        0.03299274970342        2.01113446607608
H           -3.03355819617591        2.40717286694474       -1.85535383327836
H           -1.64063135032623        3.24322596961722       -1.17181421514700
H           -1.77146989169998        0.23702982496256       -1.64228713494510
H           -1.08885611053224        1.41205176926913       -2.76741724319746
H           -0.72387835130094        1.59200286274470        0.79633409015502
H            0.71481621461923        1.96769069628477       -1.08666356964150
H            2.16299672511284       -0.69765099400247        0.71266138116354
H            2.30250939230533        0.95600605261724        0.10106904838061
H            2.77382191534820        0.06330232260941       -2.17728805357186
H            2.70419052049544       -1.58775009041813       -1.53908898569049
H            4.63941632960254        1.55453581832467       -1.56609312875288
H            6.93659683076679        1.76104700101683       -0.76941497101795
H            8.65113727028573        1.81250340115078        0.81831819547404
H            9.20180947340410        1.14502448310939       -0.74443261041010
H           10.05028574631762        0.71071871702007        0.76109511747901
H            7.04425510707396       -4.24747150295131        1.65643779617232
H            5.43339268866308       -3.49896539671675        1.79090271415099
H            6.01946814616765       -4.08445645532405        0.20829353847260
H            4.42005577345510       -2.40307537316004       -0.02117428924615
H           -0.21927216761456       -1.65321458712613       -1.65090228843453
H           -1.01597548298675       -1.24756707433990       -0.11591861942478
H            0.54696009597023       -2.07646694482717       -0.10969815638635
H           -4.66507227465594        2.95991037809182       -0.19379631450610
H           -3.75860682843604        2.90409477719901        2.70558881402097
H           -4.89344698260560        1.76148568835860        1.97748105997476
H           -5.33808369602158        3.46492823303540        2.13323311104365
H           -2.60925491386436        4.65735370625362        1.26733313919159
H           -3.04441388654528        4.80530768831789       -0.44210182935494
H           -4.22778623811141        5.19241829219772        0.80420638267113
H           -0.66991798793893        2.80729181204906        2.76322561966937
72
 energy: -5.324831571399 xtb: 6.6.1 (8d0f1dd)
N           -1.63371736934957        2.94910793372813        2.27763098767689
C           -1.62270692173413        2.17127036156950        1.26918670598915
C           -2.76877375999166        2.06699681040484        0.28515664553814
C           -3.34501468722162        0.66137809013599        0.34966368433263
C           -4.32437671320041        0.25514503039451       -0.55804870579177
C           -4.86835157247777       -1.01426545050626       -0.51468659671217
O           -5.83583178991393       -1.48575226824214       -1.36343492217652
C           -6.38364633722179       -0.59659553206210       -2.29834086997246
C           -4.42429765678553       -1.93248987210916        0.45678385605243
O           -5.01081708985803       -3.17136850977398        0.41791093432221
C           -4.65501015985059       -4.09216410273556        1.41272117108930
C           -3.45613524177228       -1.53201888236449        1.35720146220280
C           -2.93231824434074       -0.24711986868896        1.30692636202413
C           -2.18389048749804        2.30783429890084       -1.13483291845863
C           -1.25552356514605        1.20236172314052       -1.69680625676383
C            0.05521419216593        1.14422313658391       -0.98458638602656
N            0.65756111820519       -0.08447269025656       -0.57507646883412
C            2.03336685308023       -0.08948135643061       -0.19899221318448
C            2.98704493688619       -0.56830201225934       -1.32711512370039
C            4.41155591838004       -0.45738171474611       -0.88624180228397
C            5.12773771629520        0.71195494167813       -1.06651157857395
C            6.42827290533665        0.83320259076294       -0.59607576015868
C            7.03775155596654       -0.21836585744265        0.06341679420215
O            8.32126449475047       -0.21097097270758        0.54718613046141
C            9.08944675100362        0.94101967859478        0.32982146022891
C            6.31439974996725       -1.40995173595060        0.26985623475655
O            6.98241936726287       -2.39649997297107        0.94402705871921
C            6.31582336607182       -3.61287740364508        1.15106408125811
C            5.01907233169913       -1.51105783438027       -0.20387622038109
C           -0.04798395040958       -1.33029928903260       -0.62451473636404
C           -3.91248199623645        3.07784340559385        0.57035295802648
C           -4.54446409942774        2.78725517795460        1.93142791760821
C           -3.42488385585148        4.52458810812687        0.53491616802297
H           -4.65614649128990        0.94809384779312       -1.31383756089424
H           -6.83162553998147        0.27628982706358       -1.81028437466646
H           -7.16166888844839       -1.15591387848563       -2.81729479606664
H           -5.63714030793261       -0.25927891098610       -3.02660402645700
H           -4.86778019722553       -3.70546981572857        2.41589332506304
H           -5.26653656331412       -4.97578724058599        1.23200820452527
H           -3.59608007795024       -4.36965170224484        1.35207040414109
H           -3.08638115565450       -2.21352093198459        2.10667448581208
H           -2.18671346359131        0.04139872286686        2.03070916326787
H           -3.02884040201891        2.43781709665241       -1.81771645751013
H           -1.62026477569299        3.24203776449421       -1.12477331258043
H           -1.75400207604197        0.23611902863497       -1.64738172812096
H           -1.14886251173097        1.44481906456290       -2.77765101262378
H           -0.76795370582533        1.53169324831434        0.96709374059350
H            0.78990597192586        1.91790728668889       -1.22633515812650
H            2.19787412226727       -0.73600081790252        0.67855232853439
H            2.31733019273033        0.92499299995282        0.08874423052802
H            2.79834953247468        0.05671634299366       -2.20100867277159
H            2.73794612981528       -1.60107255896027       -1.58014670769746
H            4.66842478730511        1.54450154227496       -1.57778647012542
H            6.95354064739213        1.76317064903820       -0.74805507703681
H            8.65481688825423        1.81807223232064        0.82290130906872
H            9.20731073883750        1.15234343495383       -0.73948886520732
H           10.06759915668744        0.73504380578314        0.76345012833188
H            7.02919582614898       -4.25949941468343        1.66100575158906
H            5.42798258675504       -3.48764070826642        1.78167025992345
H            6.02063343245559       -4.07754911267226        0.20346656465838
H            4.44784537990887       -2.41260394172721       -0.04753448701549
H           -0.21377395376106       -1.68749160049655       -1.65141119712322
H           -1.02099186008021       -1.25014131560289       -0.13093376379365
H            0.53143203912775       -2.09207068937510       -0.09707241875414
H           -4.67938985850736        2.95375682202686       -0.20568290720245
H           -3.78068563611495        2.90949764381015        2.69119311488863
H           -4.92814034958755        1.77043645350034        1.97511599258343
H           -5.36106503580456        3.47686178212147        2.13180732151644
H           -2.62604314434289        4.64024617657849        1.25938475016766
H           -3.05703495677808        4.79716414562017       -0.45075481949702
H           -4.23704713164486        5.19962011876353        0.79531736846950
H           -0.75482631067009        2.87163841370197        2.79107184893965
72
 energy: -2.313129027526 xtb: 6.6.1 (8d0f1dd)
N           -1.69910295030666        3.00636381255791        2.30021614331168
C           -1.65624209197752        2.18050213488075        1.32300158780405
C           -2.78001257047629        2.06709451644724        0.30757309791795
C           -3.35819689404796        0.66359882229352        0.36314062957907
C           -4.33236909904941        0.25780602034712       -0.54996018983424
C           -4.87865047354071       -1.01086399840155       -0.50657666157002
O           -5.84410121648054       -1.48071704010870       -1.36200733242171
C           -6.37632941419355       -0.58743782059772       -2.30090832588568
C           -4.43893612800328       -1.92875873205165        0.46530416762701
O           -5.02114406724242       -3.17208593406344        0.42510397857084
C           -4.65015391072265       -4.08798969442753        1.41767212541517
C           -3.47465908472544       -1.52942214341565        1.37063626875538
C           -2.95447926631962       -0.24424086259382        1.32506376725984
C           -2.17322367639707        2.31210728891636       -1.10343698626792
C           -1.25409330400375        1.20834699576647       -1.69728156015900
C            0.08285762095273        1.14054240064170       -1.03357099373190
N            0.66979209433842       -0.10139596690018       -0.59405192668159
C            2.04911390228455       -0.11463712877841       -0.22763027823574
C            3.01395173242954       -0.58102769157404       -1.35704835230800
C            4.43729014740485       -0.46779950108096       -0.90775775325607