72
 energy: 21.492085634677 xtb: 6.6.1 (8d0f1dd)
N           -1.49617724659779        2.88819821472897        2.27490113245123
C           -1.53009875539119        2.17760452333222        1.23746657706609
C           -2.70848635444197        2.07061744992050        0.30501321110129
C           -3.26337731791951        0.65650365857679        0.36386840508243
C           -4.19237433708789        0.22698046045748       -0.59586183587220
C           -4.80483010701801       -1.01578352266351       -0.63934300609116
O           -5.77448474964002       -1.36404328190534       -1.68320388313301
C           -6.75901990645931       -0.69089350266389       -2.64691552148715
C           -4.37707192578549       -1.91479112828768        0.43290790071678
O           -4.90919039713764       -3.17756822536149        0.46347149393066
C           -4.60077850638799       -4.06904378482827        1.50878893659743
C           -3.45856903048302       -1.48806551008430        1.39564176768319
C           -2.89889488373859       -0.21915021367441        1.36454573668270
C           -2.15043726697405        2.34071999293178       -1.11656188502735
C           -1.23083420052902        1.23149639669455       -1.66304383813854
C            0.05717852495789        1.16024543487164       -0.91692641272818
N            0.66126025451316       -0.04492502180905       -0.56337867360532
C            2.02819679711415       -0.05702558901104       -0.16367865592735
C            2.96203338867989       -0.56007006329669       -1.28573079156775
C            4.38692824765220       -0.45278213161443       -0.84930632459547
C            5.10274131420713        0.71266230837457       -1.05007041243095
C            6.41383741316030        0.82473898841363       -0.60938848337717
C            7.02655097903700       -0.22695018864287        0.04880168279378
O            8.30408423087558       -0.22620235262350        0.52469059377706
C            9.09412679202497        0.91560436193068        0.31987758079199
C            6.30048582330006       -1.41801632557072        0.27045511994230
O            6.98304185907184       -2.39910167272340        0.92625808822137
C            6.34854020276365       -3.63109052128621        1.14826260971160
C            4.99472301917140       -1.51089455279891       -0.17350228650793
C           -0.03597495923045       -1.29694023495110       -0.66140353524318
C           -3.86012140865345        3.05933942183578        0.63219805802511
C           -4.47904412950752        2.76409194015490        1.99695826736400
C           -3.42682975501604        4.52346402025934        0.57456129457128
H           -4.49671063892165        0.91891874225838       -1.36407817892243
H           -7.35285971734906        0.15127257744147       -2.26121427022970
H           -7.46224280411500       -1.46311842810883       -2.97221809154256
H           -6.21839066831709       -0.32232574423751       -3.52455920822230
H           -4.87946890940002       -3.67257768511990        2.49173689444426
H           -5.19569029444574       -4.96204082656796        1.30691900185296
H           -3.54124158163308       -4.34873564065162        1.51952125567376
H           -3.14201317524602       -2.14075904524583        2.20483057240376
H           -2.19818087350551        0.08198636947339        2.13211191148006
H           -2.98781871605963        2.46435879498223       -1.80689561921317
H           -1.58907533890276        3.27512957615170       -1.10441535140842
H           -1.76585878716286        0.28055086892347       -1.62765415252199
H           -1.04303416603806        1.46936287006918       -2.72398948973012
H           -0.66690589721674        1.63279882537551        0.80951413582366
H            0.71245299608150        2.01174810481888       -0.95972710207062
H            2.14699454935485       -0.69339404880207        0.72181998727188
H            2.33022967874408        0.95444686063939        0.10992766278591
H            2.79111085393615        0.04914224454952       -2.17382707816555
H            2.70650350316392       -1.59425304989702       -1.52158208738949
H            4.64533147826845        1.54217685776962       -1.56745767748881
H            6.95042754167434        1.74209166172267       -0.79318240162086
H            8.66988003257449        1.79544273579048        0.81556876932045
H            9.23030725994739        1.13096758111222       -0.74575003002795
H           10.06034223166535        0.68428900440914        0.76524325382813
H            7.08745085704316       -4.25222848396681        1.65292157356500
H            5.46889559070477       -3.52397269062505        1.79196844419641
H            6.05517867646605       -4.11353057196583        0.20930306632313
H            4.43154364942559       -2.41798688035790       -0.01500336285114
H           -0.22204435849452       -1.58895779398930       -1.70295466452523
H           -0.99813112600192       -1.23947681832601       -0.14176876328040
H            0.56369446462162       -2.07293299598483       -0.18676615410045
H           -4.63348698308162        2.90070578372244       -0.12837175389847
H           -3.73970101127114        2.92300324424564        2.77649312657406
H           -4.83223843726865        1.73660024928730        2.04541718779258
H           -5.32415027904313        3.42810209186854        2.16811224107978
H           -2.63716079955275        4.70560540727749        1.29619297661361
H           -3.08031743471238        4.80284018709939       -0.41675690170369
H           -4.27288863441337        5.15974738536153        0.82687586328755
H           -0.60819806001047        2.89884780469561        2.77693133210829
