25
 energy: 0.000000000000 xtb: 6.6.1 (8d0f1dd)
C            3.23720163006194        1.16630919979326        0.08434469647475
N            2.29877817382611        0.07527477071623        0.03981603040599
C            2.58028210190900       -1.21425402444508        0.03006176031096
N            1.43813958087363       -1.93419271955128        0.00098261760884
C            0.39035688448383       -1.05887472636071       -0.00790371836672
C            0.93510056364412        0.21347819449412        0.01709077491437
C            0.09450143893243        1.40504303904423       -0.00410947031874
O            0.49712751527797        2.54126714362870       -0.00342325688240
N           -1.25076640035757        1.06271879480407       -0.03085478223738
C           -2.21907211982101        2.15522099834493       -0.05001256985998
C           -1.81739487048744       -0.20012725993278       -0.04692818574614
O           -2.99983886758376       -0.37846417018721       -0.07008878229737
N           -0.92618586207120       -1.30210215599479       -0.03682761578324
C           -1.46982264913417       -2.64643102187190       -0.06029820460571
H            3.71247264356769        1.21471455160235        1.06488849150277
H            4.00791497605742        1.03430808813993       -0.67357694370751
H            2.69910007168542        2.09770118228144       -0.09130154882931
H            3.56654120610678       -1.63682992603973        0.04233140067262
H           -1.67107961066214        3.09322851271934       -0.02552706933167
H           -2.82428953597071        2.09428624779827       -0.95318082946668
H           -2.87644029173232        2.07745725625962        0.81450067533302
H           -1.17061996399332       -3.19584890659852        0.83242232437030
H           -1.14560257411436       -3.17511610292205       -0.95688275822323
H           -2.55549792440841       -2.55659984320617       -0.07459039797972
H            1.38130855184625       -2.94313852034425       -0.01389874181052
25
 energy: -5.432706486148 xtb: 6.6.1 (8d0f1dd)
C            3.24214284252810        1.18252765635046        0.08679325419358
N            2.30931268126844        0.09416818166202        0.03810009725131
C            2.59956316639939       -1.23525098708354        0.03030014663907
N            1.42682442933651       -1.94300685475622        0.00085504311195
C            0.39612266932276       -1.05877363673667       -0.00827096861467
C            0.93118320028184        0.21953033390446        0.01539002667649
C            0.10370949720677        1.39311956808571       -0.00524452515357
O            0.50160990178135        2.55845831830913       -0.00453516453279
N           -1.25846539648672        1.04902610339141       -0.03108956730307
C           -2.21694839421981        2.14643971448110       -0.04967146488529
C           -1.82321736734801       -0.20151536308126       -0.04734581692797
O           -3.02007313168370       -0.38247429236793       -0.07042101161783
N           -0.93489185479701       -1.30261337939653       -0.03719208603865
C           -1.47502996952297       -2.64379426901458       -0.06049295550110
H            3.72161898176028        1.23622890971595        1.06805900367890
H            4.01161386704909        1.05599209860868       -0.67630153010681
H            2.69280869966644        2.10578932971058       -0.08850211144647
H            3.57676189177871       -1.66375925607886        0.04285339184383
H           -1.65363311284082        3.07667651062773       -0.02546337482405
H           -2.82253700593819        2.09371791144930       -0.95394823971315
H           -2.87415187993575        2.07734742480016        0.81651854483798
H           -1.17306549693543       -3.19560169393360        0.83171279927630
H           -1.14755566232787       -3.17514876949435       -0.95623095373229
H           -2.56024765172431       -2.55113724269156       -0.07513367342414
H            1.35875976331712       -2.94691771428959       -0.01370496754028
25
 energy: -6.429219400369 xtb: 6.6.1 (8d0f1dd)
C            3.24377647737488        1.20260508434815        0.08961902143367
N            2.32179509931899        0.10435904905524        0.03544507150658
C            2.61325023305902       -1.25652868613390        0.03140529541509
N            1.41334204495993       -1.94735174322126        0.00148871727620
C            0.40057913823822       -1.05933555492104       -0.00902400173278
C            0.93112057353442        0.22198628738707        0.01268318875981
C            0.11541388239243        1.37375725337083       -0.00798271841745
O            0.49571315209302        2.55621272349765       -0.00805797849107
N           -1.26500546155474        1.03175288741665       -0.03187828015536
C           -2.20787151891676        2.13660154893623       -0.04885328998005
C           -1.82567533536296       -0.20593337659583       -0.04801669301358
O           -3.02830786048124       -0.39032395978686       -0.07058300848767
N           -0.94226830752114       -1.30286781574224       -0.03792323551598
C           -1.48316002567399       -2.64016303494496       -0.06107073739743
H            3.73324552254304        1.27674804826249        1.06779893062640
H            4.01446340739112        1.10497210918973       -0.67953412357703
H            2.67546841169976        2.11670498994946       -0.07987011400678
H            3.58047370932532       -1.69953512135278        0.04443341127813
H           -1.61691395421129        3.05084417297307       -0.02549568309658
H           -2.81516523404416        2.09544449979062       -0.95326562689054
H           -2.86430031092416        2.08008323629689        0.81955562306429
H           -1.18331775410032       -3.19580884602069        0.83077404558710
H           -1.15623199501731       -3.17606728891155       -0.95564127976892
H           -2.56814352447467       -2.54017738193216       -0.07670230042116
H            1.32993429828878       -2.94895047873880       -0.01227033784763
25
 energy: -5.211329462853 xtb: 6.6.1 (8d0f1dd)
C            3.23394620296985        1.23045989151198        0.09206357865449
N            2.33689609344051        0.10432390084870        0.03305596620451
C            2.62364188796978       -1.27914497261829        0.03387653431575
N            1.40533121403579       -1.95459851267779        0.00370505147498
C            0.40526477565255       -1.06616795304876       -0.00993694994401
C            0.93761044261695        0.21592700410597        0.00944857781414
C            0.12901171437378        1.35315603471479       -0.01323213494423
O            0.48814669189598        2.54501619618551       -0.01573876445011
N           -1.26568030209934        1.01284032605499       -0.03382515093510
C           -2.18657885072778        2.12923794082110       -0.04731601533971
C           -1.82493212138146       -0.21580059794520       -0.04923174177795
O           -3.02957038370316       -0.40321214435257       -0.07076215981135
N           -0.94481670221650       -1.30817490312678       -0.03924304882393
C           -1.49600400661954       -2.63926860067414       -0.06239088402284
H            3.73756578624087        1.33554644538613        1.06329888199500
H            4.00546560573306        1.18899263134259       -0.68642416925442
H            2.63035058625716        2.12865536998879       -0.06249784171775
H            3.58013902279055       -1.74402677738407        0.04785692641377
H           -1.55780179786896        3.02020562951711       -0.02618879559784
H           -2.79712430577575        2.10328688148809       -0.95030222852519
H           -2.83952323169298        2.08969216647798        0.82499856681025
H           -1.20679150030864       -3.19944705424250        0.83047645822974
H           -1.17588256386782       -3.18117299700057       -0.95615948315402
H           -2.58037118655553       -2.52206985740309       -0.08027007952180
H            1.30392159677678       -2.95522744579797       -0.00822719794508
25
 energy: 6.812046943806 xtb: 6.6.1 (8d0f1dd)
C            3.21979875297144        1.30239785914722        0.09907440433952
N            2.38600307381185        0.10173279217235        0.02619929522133
C            2.64952339254756       -1.34263302475426        0.04234811455445
N            1.38257970733494       -1.97041153895923        0.01112007150202
C            0.41891009044010       -1.07898357828960       -0.01280045888317
C            0.96229266199939        0.20413130463570       -0.00048252425219
C            0.16608258013698        1.30427363366399       -0.02956596294518
O            0.45910725725109        2.51978059350545       -0.03985036002094
N           -1.26920621217433        0.96534148816068       -0.04011743633668
C           -2.13984204607428        2.10469374571992       -0.04303850147798
C           -1.82204966845062       -0.24118215044889       -0.05303373935604
O           -3.02999243318608       -0.43983440467137       -0.07127658547462
N           -0.94793433049505       -1.31794197354773       -0.04342121676353
C           -1.52867889434515       -2.63208278969202       -0.06649153216432
H            3.76818425240544        1.48560159280019        1.04756473999989
H            3.98983085100731        1.41594190909231       -0.70626016568338
H            2.52851977165397        2.16205777091927       -0.00813514484870
H            3.57180611466094       -1.87914034596577        0.05908001619251
H           -1.42254468789167        2.93835698138305       -0.02966389430202
H           -2.76140662347582        2.11134095612045       -0.93959704564357
H           -2.78176954722470        2.10290293381748        0.83976698339750
H           -1.27143407156062       -3.20371824244167        0.83008855162957
H           -1.22867534802995       -3.19006029893410       -0.95818007268435
H           -2.61125956128901       -2.46501863260819       -0.09126115923581
H            1.22436958591240       -2.96851797865322        0.00496751938295
25
 energy: 15.249398047564 xtb: 6.6.1 (8d0f1dd)
C            3.17603038567829        1.34890322286849        0.10135273022157
N            2.39341332527771        0.09827713443834        0.02587280974499
C            2.66582156652710       -1.36526388644416        0.04467339338542
N            1.38642295092858       -1.99256042406746        0.01501524658101
C            0.42531227365351       -1.10299465309407       -0.01352670154034
C            0.96669770645587        0.18003456442772       -0.00345963506177
C            0.18515059691085        1.27346355742457       -0.03810338351584
O            0.47858409071371        2.49379036466322       -0.05193064399391
N           -1.25661801855354        0.94074768761652       -0.04381483238335
C           -2.08886514840891        2.10655068043822       -0.03993585823197
C           -1.81732046377226       -0.25693975807033       -0.05507554031333
O           -3.02984765132724       -0.45075137814600       -0.07135649447262
N           -0.94971822761030       -1.33801139786958       -0.04556761456625
C           -1.55277198221423       -2.64190739478271       -0.06904139636113
H            3.73640003665263        1.57584731064235        1.04150138908302
H            3.93942791369077        1.54251352034470       -0.71867861419486
H            2.41849221331140        2.17289824300497        0.01490825821253
H            3.58084919463598       -1.91252774320989        0.06392924813938
H           -1.31609460311937        2.90631864278767       -0.03018277596991
H           -2.71397654669037        2.14175401074531       -0.93523566207670
H           -2.72196797589634        2.13488718474175        0.85143239223197
H           -1.31514448439449       -3.22110083125572        0.82942369333459
H           -1.26551746030107       -3.20995253688169       -0.95956444563255
H           -2.63302884369044       -2.44629970423474       -0.09783710675058
H            1.22048381947823       -2.98864781391550        0.01223544027785
25
 energy: 21.845996119285 xtb: 6.6.1 (8d0f1dd)
C            3.12195112618980        1.39106647857775        0.10229871442834
N            2.39053299960330        0.09542885807848        0.02740973670047
C            2.67930134989633       -1.37625284242132        0.04591677003845
N            1.39775831447856       -2.01527281657923        0.01719905942389
C            0.43003494860271       -1.13296029040522       -0.01377435238069
C            0.96642241900639        0.15090475896498       -0.00481612313846
C            0.19938951644336        1.24524880034048       -0.04438694904845
O            0.50835411011065        2.46498130164143       -0.06048545186623
N           -1.24099381513177        0.92397155986813       -0.04630770676276
C           -2.03527041005220        2.11727893966722       -0.03625731853535
C           -1.81007065840651       -0.26903060790476       -0.05610291196082
O           -3.02536750599378       -0.45305070199229       -0.07090741901444
N           -0.95146098014876       -1.36149445968969       -0.04711032561642
C           -1.57603555195257       -2.65725870885728       -0.07150169809537
H            3.67947261336666        1.65597070624228        1.03855626264821
H            3.87580856415669        1.63470016796968       -0.72348160018727
H            2.31673112304120        2.18128016868169        0.02134188384482
H            3.59602831963274       -1.91794531428527        0.06701536151778
H           -1.22338566343966        2.88930449069675       -0.02819428674834
H           -2.65970987064872        2.18130175430241       -0.93100875293730
H           -2.65867043010079        2.17295499728656        0.86162126742209
H           -1.35459499842007       -3.24377008015476        0.82731973541371
H           -1.29976790095133       -3.23428214042320       -0.96047654592219
H           -2.65383713165800       -2.44208154178190       -0.10326241255137
H            1.23959418031185       -3.01196487565095        0.01642895947494
25
 energy: 27.190785867819 xtb: 6.6.1 (8d0f1dd)
C            3.06916296188543        1.42706987239764        0.10242647616279
N            2.38381283164600        0.09375083713763        0.03021988489999
C            2.69044012908606       -1.37931555816684        0.04728163338956
N            1.41347617340213       -2.03619920011220        0.01839735334475
C            0.43380173863067       -1.16420923517990       -0.01379368922800
C            0.96463378371892        0.12162533796946       -0.00530802302983
C            0.20787678577108        1.22012162014481       -0.04996869455086
O            0.53461872527095        2.43816951367793       -0.06876093267135
N           -1.22576447455412        0.91239086815434       -0.04812658469224
C           -1.98459144167544        2.13137691131646       -0.03167925055971
C           -1.80206339420429       -0.27884484652513       -0.05639529405417
O           -3.01886268545413       -0.45168809782506       -0.06968396402279
N           -0.95280304120558       -1.38531354993497       -0.04839165478513
C           -1.59862573411696       -2.67418528145192       -0.07414855665079
H            3.61125633128351        1.72698958602888        1.03881266534013
H            3.81237110405007        1.69975811386252       -0.72288134107308
H            2.23379660885772        2.18793695002433        0.01535946895788
H            3.61372003923028       -1.90801117767469        0.06957779941515
H           -1.14627980909503        2.88094370373287       -0.02393166873409
H           -2.60501012262563        2.22373572404221       -0.92644119002896
H           -2.59697031062737        2.21086069418326        0.87161561297652
H           -1.39168732821587       -3.26791437417629        0.82412038046102
H           -1.33259509102511       -3.25942622560941       -0.96145046609193
H           -2.67395916695318       -2.44510493201157       -0.10828499810650
H            1.27246005485592       -3.03548865183244        0.01846892947886
25
 energy: 22.660298287347 xtb: 6.6.1 (8d0f1dd)
C            2.98892860266975        1.46027782959982        0.09849108200414
N            2.35945280911960        0.08671987618991        0.04488057972810
C            2.68508964059665       -1.33616513963154        0.04654147641029
N            1.47517063125302       -2.06892302176608        0.01899385481472
C            0.43329936062807       -1.22285733294265       -0.01309527192514
C            0.97482736218545        0.06099456247690       -0.00112050853706
C            0.18044807263622        1.21925377539515       -0.06038417657863
O            0.58871584527878        2.40234873442041       -0.08604286471997
N           -1.18843386652237        0.94096967166513       -0.05135539075261
C           -1.92246304328978        2.17397342206157       -0.02174076906157
C           -1.78168969900304       -0.28003138454294       -0.05435215956691
O           -2.98708270065077       -0.42207076097970       -0.06517545070373
N           -0.93864850890229       -1.42933074382930       -0.05011415998572
C           -1.63041415264354       -2.71108104123372       -0.07979507005534
H            3.46052043226242        1.77412574770057        1.03256349583583
H            3.66329067592850        1.68670050403539       -0.69773623504151
H            2.20792048264778        2.18037216660374       -0.01802503542255
H            3.63753489688305       -1.82400812989120        0.07197786573539
H           -1.15337665663595        2.91985071086409       -0.01562487581331
H           -2.51853939322219        2.28880778800219       -0.91149402107241
H           -2.49792420267820        2.25763986830683        0.88451424861836
H           -1.44866522393018       -3.30874154218776        0.81590986202597
H           -1.38268525906308       -3.30246302856507       -0.96364139840441
H           -2.69622652541982       -2.47521563077219       -0.11698987031354
H            1.40316508780799       -3.08211829880764        0.01984868892882
25
 energy: 33.792250773672 xtb: 6.6.1 (8d0f1dd)
C            2.96980123635143        1.49589171519972        0.10447529398700
N            2.38447767275874        0.08317903385062        0.05128552222175
C            2.70488110295154       -1.34822590212142        0.05732661048473
N            1.49687075256116       -2.08578734710359        0.02698506584342
C            0.44654922357222       -1.24950361243298       -0.01425490711763
C            0.99236483457046        0.03815536338209       -0.00712967857518
C            0.18633323266772        1.18029295826218       -0.08271695007460
O            0.56071541274419        2.37610813973837       -0.12986998582271
N           -1.17939916653152        0.91414786763086       -0.05960621147747
C           -1.87761229843239        2.17457662228300       -0.01142606643546
C           -1.77277252567030       -0.30065040675246       -0.05700584601984
O           -2.98012877256802       -0.43565449759992       -0.06084409225456
N           -0.93171368333468       -1.45313994582088       -0.05518245102658
C           -1.66688937102183       -2.71910545903685       -0.08705209483115
H            3.42570418406044        1.86933306804084        1.03423932673294
H            3.61695896387295        1.82594033141255       -0.72116913269260
H            2.11061988820856        2.16900550864937        0.00686594578560
H            3.64676029247882       -1.85513432026374        0.08743411941596
H           -1.05231478602355        2.88658355326442       -0.01433999244695
H           -2.47770783575054        2.33112490020556       -0.89642879013525
H           -2.42703718894878        2.29101581721619        0.91303270778560
H           -1.52575867518280       -3.32917886736416        0.81192549276893
H           -1.44366914266421       -3.32790081931885       -0.96783097228737
H           -2.72859340117242       -2.44136360965017       -0.13361422814847
H            1.43377471843882       -3.10068148949883        0.03193521046713
25
 energy: 46.490194082673 xtb: 6.6.1 (8d0f1dd)
C            2.95660551398564        1.52570853492340        0.11523064387345
N            2.41230332576209        0.07653094100258        0.06148178415905
C            2.72154051161919       -1.34393776544684        0.07796932387414
N            1.53296531061146       -2.09482655404507        0.04096806110411
C            0.46190590650458       -1.27448882091182       -0.01721545697552
C            1.01459961713808        0.01649902396139       -0.02331891142788
C            0.19940345149286        1.13719523697804       -0.13178254910862
O            0.55571042515464        2.33552794670871       -0.23234634579313
N           -1.16494407249930        0.89227145858543       -0.07220073324436
C           -1.84653159514958        2.17172607276454        0.01086796200405
C           -1.76042473019428       -0.32180290123390       -0.05795453311269
O           -2.96826861047070       -0.44703341904611       -0.04722713356962
N           -0.91790468779929       -1.47911150455025       -0.06456828467489
C           -1.70850981101658       -2.72442637955718       -0.10122324035836
H            3.39691896130716        1.95009551555068        1.03351622632497
H            3.55371467478632        1.95930372619580       -0.73444732205753
H            2.02998775099676        2.14392223490720        0.04526960243227
H            3.65144093866753       -1.87302512306473        0.11740781146020
H           -0.98506437928978        2.85902272914275       -0.01010242590849
H           -2.45835043763020        2.37022122061060       -0.86010827660402
H           -2.35234610431416        2.30989203730331        0.96155545701251
H           -1.62715114253385       -3.34490121751877        0.80295400631658
H           -1.51793267275001       -3.35334906722780       -0.97692938810221
H           -2.76094159485057       -2.39092180849959       -0.16346785170326
H            1.49348811840793       -3.11106351536048        0.05270547022647
25
 energy: 51.080891274263 xtb: 6.6.1 (8d0f1dd)
C            2.96018024011229        1.53624291627564        0.13588632108819
N            2.43155294661013        0.07187742305867        0.07156524306513
C            2.73003327181650       -1.32588699121662        0.10559219254929
N            1.56475930989147       -2.08978095666877        0.05890314224185
C            0.47285505412647       -1.28592954025417       -0.02172065492514
C            1.02848898297601        0.00950293363977       -0.05111167633492
C            0.20971494670243        1.11137205718209       -0.21536760634024
O            0.55121216738565        2.30842356589712       -0.40939592995361
N           -1.15598074301450        0.87762830517741       -0.08633096871030
C           -1.83880356741557        2.16296553266287        0.04609760912063
C           -1.75180318260064       -0.33639686299263       -0.05340335123251
O           -2.96018753789790       -0.45233650940607       -0.01853023289666
N           -0.90618406422828       -1.49675030289567       -0.07680015039971
C           -1.73882058531431       -2.72378951891479       -0.12134829183737
H            3.39917745135891        1.97572721979000        1.04153945569212
H            3.50861906680764        2.02743851237615       -0.72818465876054
H            2.00735651368843        2.12398407681271        0.09407649252583
H            3.65024701857473       -1.87196807262599        0.15687538442033
H           -0.96299721461864        2.84567921861565        0.00331292960978
H           -2.47642233519705        2.38750627337910       -0.80167338478807
H           -2.29917046721874        2.29551984618521        1.02320200199747
H           -1.71172930973224       -3.34552741434667        0.78744719484123
H           -1.57258375577609       -3.36559443513454       -0.99155788431041
H           -2.77913044696368       -2.34530029209963       -0.20080942768705
H            1.55183090786288       -3.10557838232491        0.07877014717186
25
 energy: 53.809122434945 xtb: 6.6.1 (8d0f1dd)
C            2.94194737990578        1.54721231018231        0.16826936444952
N            2.43557177828064        0.06561341149366        0.08543162076495
C            2.73553720837404       -1.28571350584738        0.14859740236480
N            1.60801202985272       -2.07825468185608        0.08648662128300
C            0.48151679052076       -1.30345373872792       -0.02682563032418
C            1.03035586043711       -0.00037905256480       -0.09433240625665
C            0.22858306795141        1.08033315629914       -0.35068593902177
O            0.57564112853971        2.26279971828075       -0.69916794638216
N           -1.13885422213629        0.86314714939821       -0.09883872656977
C           -1.82097368643673        2.15654027733413        0.10500102591663
C           -1.73979641273899       -0.34986254460916       -0.04039659920330
O           -2.95007124233366       -0.44607779470045        0.03243895416494
N           -0.89693128525807       -1.52320547901687       -0.09384924371252
C           -1.77405509142402       -2.72728116935891       -0.15342439409879
H            3.38880480250201        1.98684532584800        1.05777225814295
H            3.42653940448249        2.06775583075056       -0.69683955616841
H            1.97892602707060        2.10246771772725        0.15245794144906
H            3.65350261419643       -1.83406782078480        0.21093566202747
H           -0.94032580369413        2.84470091345781        0.03343903271746
H           -2.49346406862377        2.41367316924327       -0.70931818096225
H           -2.22763059658974        2.26492287373765        1.10827487912751
H           -1.81236064975062       -3.34226265481978        0.75811319173240
H           -1.63165070655835       -3.37947721691200       -1.01515403006051
H           -2.79349250145687       -2.30394229727259       -0.25583562922443
H            1.64688284282338       -3.09300529511002        0.11448422399123
25
 energy: 48.966866267440 xtb: 6.6.1 (8d0f1dd)
C            2.92627237848478        1.54221267717305        0.19258482990256
N            2.42358314639896        0.06444059143236        0.08573208422303
C            2.72944579662546       -1.25021499968674        0.18702571469123
N            1.62324942895519       -2.05623802377428        0.11287218971960
C            0.48121371852276       -1.30038419965088       -0.03463789621291
C            1.01883719822989        0.00854816101485       -0.13845703140163
C            0.23470283818240        1.07680314738386       -0.47990768931060
O            0.57674248692474        2.22900412348226       -0.90026290458471
N           -1.13184633716327        0.86054734153517       -0.10945469368263
C           -1.80826295373517        2.14717798580114        0.14852318747491
C           -1.73430277314936       -0.34906208178661       -0.03333053932398
O           -2.94348929212434       -0.43608907859843        0.08125501566563
N           -0.89622072510332       -1.53078925987903       -0.10857585442950
C           -1.78064968776239       -2.72124407790658       -0.17643042255797
H            3.42118434935945        1.93449584337865        1.06284759088993
H            3.36079510306272        2.04229458626468       -0.66553001427781
H            1.99244080259330        2.09226641052130        0.21438183889160
H            3.65081865136130       -1.79705076231034        0.24938534686378
H           -0.95061898503338        2.85165744306510        0.05411793341021
H           -2.51477957073269        2.40698486573667       -0.62977931743138
H           -2.18878771661423        2.21015247284455        1.15738481543150
H           -1.85024186939370       -3.31349357569989        0.73517132823901
H           -1.63929941449355       -3.37338654895150       -1.02978718468304
H           -2.77994343213373       -2.28327735917536       -0.29471699063282
H            1.69137152667393       -3.06632708004201        0.14662255927319
25
 energy: 41.849075888591 xtb: 6.6.1 (8d0f1dd)
C            2.89162028400385        1.53748339826041        0.21033991498271
N            2.40126119404301        0.07115631106073        0.06744894547055
C            2.72799119599803       -1.23259324118455        0.23165764835386
N            1.62008959097527       -2.04119275045434        0.14726546738426
C            0.48180283363553       -1.29642375891627       -0.04621628986650
C            1.00126211290753        0.01679152566890       -0.18550876153341
C            0.24069941540273        1.08165494199323       -0.61384299451405
O            0.58117372016707        2.19052276382319       -1.06159477951460
N           -1.12187753038187        0.86591375438087       -0.13759293808685
C           -1.77786523208051        2.13618607839191        0.17908814793477
C           -1.72303121243660       -0.33622251745272       -0.03408637460374
O           -2.92832823987356       -0.42403367126315        0.13241534174081
N           -0.89959356359814       -1.52855821155617       -0.12310645268069
C           -1.77765599230213       -2.70879771962688       -0.19607780226243
H            3.47450146454652        1.85667148828148        1.06101738851925
H            3.27908719412684        2.03223470243357       -0.66387026521266
H            1.96703385899607        2.08456845046656        0.31411889137183
H            3.66208112636870       -1.76134177873906        0.29042869196962
H           -0.96710970101163        2.85767634831543        0.07231785094843
H           -2.53742151356469        2.39573977047083       -0.54889052442206
H           -2.13195116580282        2.14522486507558        1.19830240973582
H           -1.87248669243684       -3.28015964532849        0.71966991423995
H           -1.62026573767234       -3.36668885728587       -1.03879067854739
H           -2.76134162584792       -2.26046325677859       -0.33851836235181
H            1.70253888377362       -3.04632038786457        0.19105950709152
25