25
 energy: 0.000000000000 xtb: 6.6.1 (8d0f1dd)
C            3.23720163006194        1.16630919979326        0.08434469647475
N            2.29877817382611        0.07527477071623        0.03981603040599
C            2.58028210190900       -1.21425402444508        0.03006176031096
N            1.43813958087363       -1.93419271955128        0.00098261760884
C            0.39035688448383       -1.05887472636071       -0.00790371836672
C            0.93510056364412        0.21347819449412        0.01709077491437
C            0.09450143893243        1.40504303904423       -0.00410947031874
O            0.49712751527797        2.54126714362870       -0.00342325688240
N           -1.25076640035757        1.06271879480407       -0.03085478223738
C           -2.21907211982101        2.15522099834493       -0.05001256985998
C           -1.81739487048744       -0.20012725993278       -0.04692818574614
O           -2.99983886758376       -0.37846417018721       -0.07008878229737
N           -0.92618586207120       -1.30210215599479       -0.03682761578324
C           -1.46982264913417       -2.64643102187190       -0.06029820460571
H            3.71247264356769        1.21471455160235        1.06488849150277
H            4.00791497605742        1.03430808813993       -0.67357694370751
H            2.69910007168542        2.09770118228144       -0.09130154882931
H            3.56654120610678       -1.63682992603973        0.04233140067262
H           -1.67107961066214        3.09322851271934       -0.02552706933167
H           -2.82428953597071        2.09428624779827       -0.95318082946668
H           -2.87644029173232        2.07745725625962        0.81450067533302
H           -1.17061996399332       -3.19584890659852        0.83242232437030
H           -1.14560257411436       -3.17511610292205       -0.95688275822323
H           -2.55549792440841       -2.55659984320617       -0.07459039797972
H            1.38130855184625       -2.94313852034425       -0.01389874181052
25
 energy: -5.390689918283 xtb: 6.6.1 (8d0f1dd)
C            3.24940471300636        1.17420264833481        0.08666538578134
N            2.31029494717651        0.09480166978086        0.03766033732874
C            2.60106086580950       -1.23358242202708        0.02979335015845
N            1.42843692972968       -1.94018927450169        0.00035787437280
C            0.39740803748747       -1.05523710592500       -0.00822660985328
C            0.93149518460579        0.22322981985159        0.01539387729547
C            0.09974343715816        1.39605094069647       -0.00422680937845
O            0.49695158542545        2.56168417121803       -0.00261815586506
N           -1.26493602287178        1.05216489317952       -0.03102849234235
C           -2.22773337652396        2.14829639425904       -0.04993612387524
C           -1.82681502038701       -0.20025415231644       -0.04763249670828
O           -3.02329481026950       -0.38518212029331       -0.07116802090933
N           -0.93374908622482       -1.29917158747691       -0.03681558619565
C           -1.46932327234067       -2.64183482009733       -0.05985428486748
H            3.72527311084606        1.22207665541256        1.06968962635442
H            4.02004450725263        1.03527413112305       -0.67292911336629
H            2.70640484635736        2.09968761961900       -0.09355827876189
H            3.57920441624127       -1.66088531817066        0.04159749454293
H           -1.66757147314178        3.08017033938012       -0.02524551825704
H           -2.83454782087923        2.09738608287195       -0.95386705653260
H           -2.88704910901517        2.08050158732642        0.81513741746097
H           -1.16505617690839       -3.19289244595028        0.83211513377888
H           -1.14038441004750       -3.17207748192759       -0.95576461182621
H           -2.55450771673049       -2.55120296279627       -0.07393995239520
H            1.36146038218029       -2.94398865939885       -0.01456548979241
25
 energy: -6.444481141157 xtb: 6.6.1 (8d0f1dd)
C            3.27127794770535        1.17476980048067        0.08935298444819
N            2.32226754937240        0.10736526561588        0.03350242547121
C            2.61316202605094       -1.25017845293541        0.02927756669458
N            1.41423786249230       -1.93727751491975       -0.00067258081751
C            0.40191084318568       -1.04608928296119       -0.00929495281965
C            0.92985507685987        0.23590354162106        0.01241130294294
C            0.10061503860056        1.38558146231546       -0.00442325451480
O            0.47752635946770        2.56857825092674       -0.00080091292919
N           -1.28555610757725        1.04259412804975       -0.03147640009398
C           -2.24344940769360        2.14113218620375       -0.04968122295140
C           -1.83661913369467       -0.20108131605729       -0.04885435230956
O           -3.03714502160842       -0.39840382481317       -0.07326564117956
N           -0.93987315453287       -1.29077558836090       -0.03680457293950
C           -1.46376715402327       -2.63380349331147       -0.05875191576424
H            3.74913411648684        1.23058426369803        1.07375887578293
H            4.04782717856170        1.03239944336735       -0.66621659587873
H            2.73357386493724        2.10143019260030       -0.09831334426489
H            3.58309803591835       -1.68970075148019        0.03952283233513
H           -1.66667039645446        3.06321947087985       -0.02438973614733
H           -2.85376152957437        2.10186497701000       -0.95323057220051
H           -2.90652857616750        2.08446997553766        0.81474121940996
H           -1.15351050093919       -3.18532221207629        0.83231059718064
H           -1.13002010630530       -3.16485773215173       -0.95381505246091
H           -2.54902378295748       -2.54465012988888       -0.07213063308712
H            1.33365363982569       -2.93872405717820       -0.01572216775940
25
 energy: -5.754722371958 xtb: 6.6.1 (8d0f1dd)
C            3.30474861633839        1.16553405240058        0.09181036789956
N            2.33409879722664        0.11458572288328        0.02779073083300
C            2.61462674687713       -1.26221413552935        0.02811885786795
N            1.39855429777254       -1.92843804544618       -0.00255209187732
C            0.40281762835046       -1.03100634007510       -0.01156223738979
C            0.93095644852291        0.25263063254550        0.00826405529513
C            0.09294650484357        1.38485361903915       -0.00433099311399
O            0.44227064429709        2.57813467604987        0.00279383275354
N           -1.31102915066858        1.03833675397559       -0.03230019414098
C           -2.26896344849693        2.13523828560737       -0.04908925622004
C           -1.84933633671460       -0.20299890839581       -0.05112679726808
O           -3.04891455914337       -0.41827197067082       -0.07717139351614
N           -0.94276278069723       -1.27846051697910       -0.03716589118514
C           -1.45034659135342       -2.62482208895762       -0.05655419750058
H            3.78044806433461        1.22936870654318        1.07889750920644
H            4.09372833435339        1.01152847763487       -0.65112694626931
H            2.79009713257527        2.10276011478867       -0.10966376473293
H            3.57574582908939       -1.72107040704015        0.03487847387684
H           -1.67993736224898        3.04909017234147       -0.02251925948921
H           -2.88348290568172        2.10493341444093       -0.95125647615688
H           -2.93622750072620        2.08573655913338        0.81369259445552
H           -1.13148302339389       -3.17226286113749        0.83455148867724
H           -1.11087834247695       -3.15352811750568       -0.95132238552658
H           -2.53616972184747       -2.54185684330321       -0.06823624042727
H            1.30070734680417       -2.92877235017131       -0.01778588990368
25
 energy: 4.046157433247 xtb: 6.6.1 (8d0f1dd)
C            3.39882867882840        1.14258905816675        0.09977197270656
N            2.37059571955754        0.13369967571328        0.00648691177916
C            2.61841400288493       -1.30388259205834        0.02391734472001
N            1.35013228283624       -1.90334810373376       -0.00923594521940
C            0.40524090575510       -0.98842620116112       -0.01977581131682
C            0.93394950066139        0.30061429035085       -0.00625086445437
C            0.06965468217704        1.37684267919715       -0.00328922505654
O            0.32350435838403        2.59991123702952        0.01656632159502
N           -1.39554061043718        1.02022084106591       -0.03521658833442
C           -2.33696513192064        2.12488920638457       -0.04619855713432
C           -1.89251293436608       -0.21535628155540       -0.05953675572221
O           -3.08672838776454       -0.49190699094065       -0.09214836694022
N           -0.95170750200916       -1.24391726752386       -0.03844479454339
C           -1.40597556175717       -2.60220778646608       -0.04840562294265
H            3.85835924570191        1.24830364555811        1.09905043238895
H            4.23490460934330        0.96315813396170       -0.59666968505698
H            2.94609674359893        2.10579326444623       -0.15405190940790
H            3.55071047831742       -1.82667607094708        0.01562217034072
H           -1.68713715296787        2.99961045794673       -0.01454012342762
H           -2.96514484395166        2.13748172710805       -0.94439999652296
H           -3.01755709731154        2.11157078068416        0.81224653030055
H           -1.06071456640331       -3.13588570358951        0.84327676802103
H           -1.05036396134016       -3.12419815526701       -0.94220031073962
H           -2.49379885010425       -2.53927571289070       -0.05413076628069
H            1.19597006022357       -2.90057552930749       -0.02540923260458
25
 energy: 11.363111502414 xtb: 6.6.1 (8d0f1dd)
C            3.46890434282379        1.11428590952577        0.10348324209191
N            2.38792062185119        0.14754829524714       -0.00000369790696
C            2.61495190181882       -1.31355846905782        0.02091660002332
N            1.32495315094340       -1.88438846476742       -0.01334724291171
C            0.40378177594885       -0.95494365679571       -0.02421537923088
C            0.93629034679273        0.33447540801879       -0.01284291588282
C            0.04833523774943        1.39056512850342       -0.00298899874150
O            0.27098299575509        2.62825827027219        0.02267302450711
N           -1.43419705186395        1.02285211679794       -0.03669533032919
C           -2.39601093645757        2.11089716944326       -0.04547261539878
C           -1.91333775391732       -0.21222511193033       -0.06399022535000
O           -3.10692100400313       -0.51388239624716       -0.09843846415758
N           -0.95511574392721       -1.21901057788994       -0.04009462554566
C           -1.37936358203540       -2.58446747310834       -0.04443259275739
H            3.92319380180869        1.21438448626317        1.10772714228524
H            4.32257393920514        0.88897028387033       -0.56922342888412
H            3.07801805846027        2.10546318709034       -0.17545519109714
H            3.53318384611820       -1.86574339555924        0.00842966692625
H           -1.75520054149244        2.98886804435162       -0.01157743484182
H           -3.02959671575963        2.12279446539659       -0.94106916641907
H           -3.08219840352675        2.09254079036622        0.80949145992158
H           -1.01489611393076       -3.10740511371031        0.84798749424100
H           -1.01056428277435       -3.10005859095186       -0.93777546368307
H           -2.46810994314315       -2.53857103529909       -0.04659654606434
H            1.14463672149232       -2.87862066765759       -0.02945541464707
25
 energy: 17.407903826258 xtb: 6.6.1 (8d0f1dd)
C            3.53282964415018        1.08244644190152        0.10632665697763
N            2.40033607978998        0.16156736814257       -0.00218971257862
C            2.61132164113536       -1.31438481753842        0.01823033335759
N            1.30811745277514       -1.86566827713084       -0.01670393723820
C            0.40309326960414       -0.92384401337486       -0.02718073695543
C            0.93757614324636        0.36577836259907       -0.01586501830324
C            0.02948668125212        1.40798486473555       -0.00164608335644
O            0.23609016867753        2.65267731969071        0.02615437753441
N           -1.46326721811849        1.03198428391365       -0.03768763019146
C           -2.45367510476159        2.09791229227332       -0.04577481389392
C           -1.92802827996249       -0.20510087728637       -0.06713673227664
O           -3.12031984141969       -0.52296617719652       -0.10267563926223
N           -0.95674767963558       -1.19577054990573       -0.04178575987958
C           -1.35702122291023       -2.56707805368462       -0.04174244697080
H            3.98582902874694        1.16713910519634        1.11328501987770
H            4.39039904572013        0.80640259730959       -0.55150151515851
H            3.20409036202963        2.09798901219378       -0.18852184452450
H            3.51934094772880       -1.88456093234272        0.00455100887162
H           -1.83982223909445        2.99203810241208       -0.00996299163330
H           -3.09106511719814        2.09538368499200       -0.93955729392334
H           -3.14447403739142        2.06120889750410        0.80592368064341
H           -0.97808111685614       -3.08076643166387        0.85131646640089
H           -0.97830215766825       -3.07741306634173       -0.93473293079164
H           -2.44618641966685       -2.53704830847664       -0.04106679913795
H            1.11069463776328       -2.85688222575001       -0.03302176144012
25
 energy: 22.396610030591 xtb: 6.6.1 (8d0f1dd)
C            3.59260702290764        1.04730205074175        0.10847363359560
N            2.41040971150829        0.17525132847367       -0.00114272551115
C            2.60832010301390       -1.30899321941328        0.01601154046714
N            1.29788922553202       -1.84672988920605       -0.01940214818390
C            0.40374730378605       -0.89499044837356       -0.02872928129882
C            0.93876224511362        0.39491639577508       -0.01593371392559
C            0.01293794140664        1.42805847647239        0.00025563404995
O            0.21145535062143        2.67585677269781        0.02856488986125
N           -1.48578424647749        1.04547708448437       -0.03835039719651
C           -2.51064580544267        2.08510577566399       -0.04698847528628
C           -1.93804324405953       -0.19527286640132       -0.06933080934772
O           -3.12880868421444       -0.52399317708841       -0.10559932620161
N           -0.95652655164969       -1.17347884544918       -0.04331660858408
C           -1.33820654208364       -2.54916802037351       -0.03995286628879
H            4.04803130999359        1.11013533168674        1.11614268875505
H            4.44303504395050        0.71874876586722       -0.54179100278170
H            3.32521939104323        2.08320989925045       -0.19474588442510
H            3.50945915151823       -1.88921375380516        0.00327031009860
H           -1.93671862167155        3.00428436234801       -0.00951103565450
H           -3.15083206689344        2.05936533916060       -0.93960350900960
H           -3.20575906895565        2.02167676862354        0.80131524938619
H           -0.94870928334262       -3.05496047528101        0.85374593165427
H           -0.95226325784389       -3.05517157525925       -0.93275890285315
H           -2.42734633028605       -2.53314397007511       -0.03708382323583
H            1.08998457046180       -2.83524350834781       -0.03650547193639
25
 energy: 26.547735789801 xtb: 6.6.1 (8d0f1dd)
C            3.64886882110244        1.00910923991317        0.10988664027598
N            2.41931435800396        0.18810996453085        0.00252147220884
C            2.60604754935853       -1.29850453008509        0.01440922654449
N            1.29325392760351       -1.82739221213935       -0.02139324268555
C            0.40572356035786       -0.86800216471874       -0.02882859215737
C            0.94044054863617        0.42220047998642       -0.01337530364112
C           -0.00102845968543        1.45054569988360        0.00260427023415
O            0.19491182280508        2.69879323989147        0.03064700857469
N           -1.50271438831926        1.06276974881283       -0.03867432808640
C           -2.56724146797293        2.07178057675064       -0.04911173020016
C           -1.94384188919813       -0.18280564478406       -0.07059276209642
O           -3.13298733662029       -0.51876282928326       -0.10741567406046
N           -0.95444029889517       -1.15153997087544       -0.04445335179877
C           -1.32267625222606       -2.53027847638164       -0.03891417366102
H            4.11025582350008        1.04423265974452        1.11632595547163
H            4.48273286614595        0.62843574198941       -0.53935036546854
H            3.44129713048720        2.06157589091311       -0.19492164185365
H            3.50344511717344       -1.88265943705299        0.00445637329469
H           -2.04516535487242        3.02256389727723       -0.01032605534592
H           -3.20886867188170        2.01578083933157       -0.94106377114726
H           -3.26600603686590        1.97518694443640        0.79548747600827
H           -0.92608318630752       -3.02970726398632        0.85539157538894
H           -0.93185361071645       -3.03272009909976       -0.93176891517242
H           -2.41146005989277       -2.52586149861152       -0.03450920273527
H            1.08029015621612       -2.81382219427112       -0.03999699174404
25
 energy: 17.940553481686 xtb: 6.6.1 (8d0f1dd)
C            3.68098189742106        0.94493063680154        0.10587547085057
N            2.40768818643153        0.19282383657561        0.02111241234932
C            2.58700923865408       -1.23714405633254        0.00620397840117
N            1.33467468990105       -1.80892778506774       -0.02559880981137
C            0.40382401506664       -0.84659404672164       -0.02858121000221
C            0.94189476395192        0.43400971623429       -0.00149512097930
C           -0.03475038138673        1.50573416461396        0.00986942383643
O            0.23202358197785        2.70250579696631        0.02926123031039
N           -1.49012696513056        1.11147422689983       -0.03916221581641
C           -2.61932914766297        2.07899051299778       -0.05230888677170
C           -1.94076054155366       -0.16792228359502       -0.07291713673101
O           -3.11740134435622       -0.47776627284396       -0.10847203000783
N           -0.93873086114770       -1.14197352202422       -0.04950054447172
C           -1.30784351400570       -2.52333875638137       -0.03814724872299
H            4.12956351582608        0.93754531110679        1.11404124090012
H            4.45403816019684        0.48219740757157       -0.54358272163035
H            3.55799236727732        1.97979649288955       -0.19064047398408
H            3.49144692327402       -1.79054541860008        0.00652336291002
H           -2.20143963023539        3.10400329249730       -0.01028701443937
H           -3.25559156200861        1.95737159791872       -0.94841104956118
H           -3.31543491161662        1.90970041341130        0.79243612446492
H           -0.91605801069221       -3.00799702493857        0.85916297578027
H           -0.92440414157617       -3.02069878678468       -0.93236086553173
H           -2.39317129500012       -2.53987617705555       -0.03137409740081
H            1.14611963433055       -2.78927067396720       -0.04461289779383
25
 energy: 21.894859461044 xtb: 6.6.1 (8d0f1dd)
C            3.72307007224792        0.88452864272378        0.10773937754693
N            2.41305930983388        0.20522555223137        0.02497420600938
C            2.57676041382054       -1.20064401059424       -0.00036650052354
N            1.34419990291748       -1.77857631985887       -0.03367428975122
C            0.40414750058012       -0.81733988857981       -0.03090914671999
C            0.94241851558753        0.46040966103070        0.00282572298544
C           -0.05768165642517        1.53830012346703        0.01414345178458
O            0.19824980966364        2.72931255270957        0.04692002158086
N           -1.51367383088067        1.13515430039920       -0.04072050938241
C           -2.67298355251633        2.07908961082814       -0.05259253199745
C           -1.95190154126360       -0.15876467060038       -0.07696601364198
O           -3.12017924058287       -0.48642444098686       -0.11837820207951
N           -0.93213547626560       -1.11822285883130       -0.05322596683553
C           -1.28033997782534       -2.50983490434740       -0.03327828694639
H            4.14487671149448        0.86508510485338        1.12568171992729
H            4.46657561433914        0.34489960913525       -0.51656828922438
H            3.70266822817974        1.91953475474007       -0.22945049318957
H            3.48547076945972       -1.75362698325890       -0.00004632653194
H           -2.31095947248337        3.11556288504404       -0.00749112401439
H           -3.30227090112906        1.94531800264050       -0.94911478977169
H           -3.36402497769391        1.89020569068652        0.78811220015411
H           -0.87869218050430       -2.98207800253776        0.86623603784726
H           -0.89624654197439       -3.00578972802320       -0.92730923784670
H           -2.36537152026844       -2.55106603840562       -0.02152366738846
H            1.15717868962513       -2.76123004229325       -0.05798346584334
25
 energy: 28.296157274109 xtb: 6.6.1 (8d0f1dd)
C            3.76426682480284        0.82010688780369        0.11024104514180
N            2.42326919156098        0.22155456888347        0.01910848658947
C            2.56488037012480       -1.16428594653777       -0.01125982722556
N            1.34401625297368       -1.74468385551906       -0.04660530726693
C            0.40126416375304       -0.78575365180064       -0.03597868907297
C            0.94267864700826        0.49303721043174        0.00498044198280
C           -0.07594632180785        1.56958728383895        0.02262280293633
O            0.14193339386128        2.76850666177652        0.08029035330057
N           -1.54891892242460        1.15246147032557       -0.04346121042690
C           -2.72309207566853        2.08198664143785       -0.05287235806066
C           -1.96872737996891       -0.14963119423189       -0.08425697576360
O           -3.12722965500823       -0.51087231095937       -0.13472606119383
N           -0.92982453588787       -1.09094774511477       -0.05705024851707
C           -1.24577360673514       -2.49583308861800       -0.02399827508520
H            4.14036930026039        0.80984482367294        1.14409136423634
H            4.48053549268882        0.19165326005537       -0.46469773319070
H            3.86047872093258        1.83534963376770       -0.29199847282365
H            3.47806259017870       -1.71976162114091       -0.01486472746266
H           -2.40854380571302        3.11421137046006       -0.00165154983925
H           -3.34326545265119        1.95047563929781       -0.95023676525469
H           -3.40854123050054        1.88412313216971        0.78247182870891
H           -0.82372230663630       -2.95135930051966        0.87733462946920
H           -0.85584585656112       -2.99076720144007       -0.91695776395406
H           -2.32965257656735       -2.56904200979137       -0.00422235544817
H            1.15954344592165       -2.73093205607592       -0.07926873563218
25
 energy: 36.553636638839 xtb: 6.6.1 (8d0f1dd)
C            3.81333540709252        0.76733885567045        0.11397274181740
N            2.43511211931848        0.23989931637644        0.00350368001581
C            2.55468935685560       -1.14551674875939       -0.02694194648331
N            1.33044673453513       -1.71752213229987       -0.06222742213229
C            0.39708847711174       -0.75413532319929       -0.04262950102038
C            0.94192731636629        0.52940549224192        0.00421570621181
C           -0.08202460296169        1.59447508449018        0.03580169817540
O            0.09863998842639        2.80290989103359        0.11748190210510
N           -1.57971623727004        1.16469313928385       -0.04667746949296
C           -2.77164370503525        2.07702783993448       -0.05647575031156
C           -1.98243256700709       -0.13484997121622       -0.09274355249434
O           -3.13398732202360       -0.52385356844710       -0.15104348467712
N           -0.93238759550654       -1.06424351557150       -0.05843441297469
C           -1.21571536898072       -2.47719185726521       -0.01159621772711
H            4.15221561217135        0.77570682175987        1.15990512408536
H            4.50721781663974        0.05781528558153       -0.40774135221651
H            3.99989617203006        1.74945371673925       -0.34127913788027
H            3.46695768491754       -1.70289809933529       -0.03294525483252
H           -2.50878004151372        3.12996453029931        0.00591775631577
H           -3.38753796017054        1.93550996924076       -0.95726644004315
H           -3.46218327097183        1.85426123878929        0.77241555709304
H           -0.76869441911112       -2.91449377384546        0.88976040585065
H           -0.81551489426289       -2.97057638543650       -0.90243605488413
H           -2.29629350125852       -2.58019043140768        0.01767212463066
H            1.15159946854508       -2.70396077248548       -0.10317480298330
25
 energy: 43.624037934351 xtb: 6.6.1 (8d0f1dd)
C            3.82997298354550        0.71576864283141        0.12157518824279
N            2.44522771192974        0.24886630461794       -0.02883567688248
C            2.53362679577514       -1.11912413537792       -0.05845598889135
N            1.32259756559738       -1.69086275051212       -0.08935250430277
C            0.38696109066336       -0.72799581244930       -0.05564725728106
C            0.94220214981701        0.55484665153721       -0.00171942954336
C           -0.08646898628739        1.61943692489168        0.05433404286963
O            0.05267994837737        2.82382273022335        0.17189465901993
N           -1.61227736980855        1.17388986741327       -0.05134180887680
C           -2.79672328726113        2.08660984973856       -0.06043402422650
C           -2.00301142214008       -0.12768210962098       -0.10385218808900
O           -3.14066906172486       -0.55070838553524       -0.17603640258294
N           -0.93370302478460       -1.04433150156556       -0.05902288992208
C           -1.17924609857755       -2.46827746334881        0.01061536350239
H            4.09860264461347        0.78705088228750        1.18771433373113
H            4.50138859417547       -0.05071498786741       -0.30544714026846
H            4.11626827941510        1.62939541363916       -0.41908334199023
H            3.44547432885245       -1.68542332106048       -0.06905378172528
H           -2.55163134425068        3.11834686824691        0.01589988135377
H           -3.39743580593695        1.96482545196738       -0.96848151740184
H           -3.48436704150286        1.86413199163864        0.76202971675571
H           -0.70237543306817       -2.87811876456478        0.91208605014641
H           -0.77349008507357       -2.96199641498148       -0.87781409635483
H           -2.25458419070712       -2.61180109643106        0.05564961996687
H            1.15319572629792       -2.68092623354595       -0.14018691110231
25
 energy: 48.082791725697 xtb: 6.6.1 (8d0f1dd)
C            3.86325161277792        0.70255528389541        0.13284624128648
N            2.45582035892415        0.25659547019573       -0.05377262264696
C            2.52864681527574       -1.12652228610223       -0.08705816290808
N            1.30580735403573       -1.68130560109254       -0.11067451529929
C            0.38420617556445       -0.70855848942703       -0.06478913584135
C            0.94492958899235        0.57507715410938       -0.00757462640670
C           -0.07460427067353        1.63195918193946        0.06713305857133
O            0.05800796533033        2.83438670404211        0.20002687053788
N           -1.61791782433293        1.18098114513206       -0.05438584530719
C           -2.82942979066211        2.06982737855013       -0.06965638976706
C           -2.00489399848268       -0.11312625328904       -0.10796247151739
O           -3.14130466092855       -0.53806437595994       -0.18432867581058
N           -0.93699089258698       -1.03013246647940       -0.05380534660831
C           -1.17123198563994       -2.45010245774556        0.02758095112946
H            4.12671914953971        0.79969306140238        1.19273093775218
H            4.53030379477491       -0.10736819195492       -0.24821084708862
H            4.18462433375069        1.59158104868985       -0.42406621394979
H            3.43056533606995       -1.70279074178839       -0.09228767049603
H           -2.62366984480535        3.13708230718417        0.02233323957301
H           -3.42533287142441        1.92467215391246       -0.98472441344468
H           -3.53162993228577        1.80701757932298        0.74275110370950
H           -0.67957148271927       -2.84558572627295        0.92701252424151
H           -0.76336822670393       -2.94476761444526       -0.85966929597565
H           -2.24113210732465       -2.60488687230093        0.08308617860140
H            1.14041007147060       -2.66918878934601       -0.16550097618772
25