72
 energy: 0.000000000000 xtb: 6.6.1 (8d0f1dd)
N           -1.47310934822924        2.74401318561852        2.22063942287560
C           -1.55658894218425        2.16490305624665        1.13274284460745
C           -2.74549225258129        2.05621251263064        0.23826250649470
C           -3.31377583855761        0.64333417511334        0.32332515650284
C           -4.30230195924506        0.24487112428158       -0.58026167086503
C           -4.85238808050968       -1.02286499940159       -0.53363593669082
O           -5.81420026757557       -1.48606047972767       -1.36157895357670
C           -6.39655692584623       -0.60827005826649       -2.29568495601309
C           -4.39972542350640       -1.94646120241305        0.44396933240983
O           -4.98748357557592       -3.16146026488900        0.41085995818162
C           -4.66362171172287       -4.10093865802695        1.40909140816864
C           -3.42072545213514       -1.54561399150247        1.33436558640148
C           -2.88302826362110       -0.26315802838497        1.27400162590187
C           -2.19303818453636        2.30467021687947       -1.18742988123374
C           -1.26651549989641        1.17243380322503       -1.65249445018642
C            0.01082525039567        1.09745464658138       -0.89354811789923
N            0.61779399208289       -0.02034948241203       -0.57705527866251
C            2.00145228921113       -0.02376006609561       -0.15611401051620
C            2.92554961797610       -0.53865287672537       -1.27700100652360
C            4.35756883501756       -0.43050761225877       -0.83075552032494
C            5.07346182539911        0.73206415878124       -1.03980975472950
C            6.38628045899965        0.84224449235903       -0.60344828301384
C            7.00047329721665       -0.20824758267940        0.05722314949100
O            8.26703733840855       -0.21011315050632        0.52410948507466
C            9.06912311989339        0.92943609656965        0.31863060963839
C            6.27040022445068       -1.40439766990411        0.28033468609137
O            6.94830004375713       -2.38012947787858        0.92752007684741
C            6.31537376337817       -3.61583233633369        1.15217722400438
C            4.96302840674480       -1.49347485723979       -0.16064431849589
C           -0.05511211878686       -1.29906259857679       -0.62085692079872
C           -3.86758072907722        3.07992629005348        0.58498065642721
C           -4.49286201346546        2.77383518785172        1.94313307512182
C           -3.39165211343248        4.52917708609625        0.54797528556046
H           -4.66030069703099        0.94509076131725       -1.31640581036773
H           -6.85037992114187        0.25803164586058       -1.80468862056629
H           -7.17287509152171       -1.18600121846629       -2.79318183475679
H           -5.66836870040540       -0.26952968819383       -3.04040283452035
H           -4.88416765986127       -3.71589494995018        2.40913564538747
H           -5.29223619720187       -4.96637504833431        1.20969248126828
H           -3.61139846644506       -4.39919876145526        1.35529370415983
H           -3.07077825100221       -2.21868786295666        2.10002682176568
H           -2.14562774333496        0.02067850888151        2.01001363031684
H           -3.02188903413801        2.38238034416975       -1.88813562572432
H           -1.65198546223364        3.25146730843841       -1.20556295755141
H           -1.81103391047759        0.23006526775522       -1.62116316669324
H           -0.99335697743926        1.37490224954061       -2.69443281971844
H           -0.67628070635666        1.65183902374723        0.61785732877701
H            0.63525847086258        1.98466388206871       -0.92314029755375
H            2.11132572081740       -0.65949698961381        0.72532619960637
H            2.30680494458141        0.98978260887088        0.11078973822125
H            2.76694224489122        0.06750735773687       -2.17075272340394
H            2.67954606229959       -1.57455642411728       -1.51167757545099
H            4.62170041431221        1.56295626549351       -1.56123593485311
H            6.92357738865082        1.75715832247601       -0.79119604059515
H            8.65159193263071        1.81001840117181        0.81701562739969
H            9.20136256512460        1.14042868409438       -0.74698998879646
H           10.03428931104811        0.69003246578081        0.76064945022918
H            7.05567240429544       -4.23621211097668        1.65347581279537
H            5.43848051513375       -3.50813590722545        1.79970582482858
H            6.02060097762632       -4.09420535105165        0.21253284608183
H            4.40102799328555       -2.40127288651695       -0.00490198294521
H           -0.22071301762289       -1.61775598610935       -1.65116024301020
H           -1.01972267469312       -1.24102728946113       -0.10935207845464
H            0.55899959333766       -2.04486104898380       -0.12333731565713
H           -4.63991918782192        2.95501120214274       -0.18098089750912
H           -3.76095251366987        2.90314731895452        2.73380846416528
H           -4.87457659255110        1.75695657819473        1.97884621460846
H           -5.31925601899505        3.45579242388173        2.12325583951056
H           -2.60025614255587        4.69225089676674        1.27368930043085
H           -3.03987434616939        4.81897697030947       -0.43870979129779
H           -4.22191779840287        5.18069696155015        0.80616701440619
H           -0.59832439338922        2.77744720721660        2.72959009765665
72
 energy: -0.960048902758 xtb: 6.6.1 (8d0f1dd)
N           -1.50799571488959        2.79312558542672        2.24614858991779
C           -1.56612167517989        2.16418003521159        1.16632303590324
C           -2.74546272673253        2.06158640916618        0.25198136926434
C           -3.31356068119734        0.64973271447490        0.33372966631617
C           -4.29681385066934        0.24676005190036       -0.57284892419693
C           -4.84576194342851       -1.02074474280314       -0.52722705222098
O           -5.81033278440232       -1.48708679668208       -1.36062307228591
C           -6.38631013733808       -0.60792969182486       -2.29537463305215
C           -4.39896398231955       -1.94122318325265        0.45190305095146
O           -4.99044175103557       -3.16192788919656        0.41763673631994
C           -4.66514985398618       -4.09891836772587        1.41531733151670
C           -3.42616037004824       -1.53895024410775        1.34699038032010
C           -2.88990748984470       -0.25610566053937        1.28813543749210
C           -2.18823684570847        2.30646997792534       -1.17379684360640
C           -1.26995959908944        1.18078533822701       -1.67112715323862
C            0.00884706524356        1.11751439266793       -0.91066119327478
N            0.63361038791844       -0.04077841544511       -0.58518389755040
C            2.00860685479356       -0.03214142869935       -0.17598692266549
C            2.93990302729763       -0.53267743232654       -1.29789675026242
C            4.36708013567987       -0.42499101225626       -0.85611402860768
C            5.08189680959271        0.74085723632186       -1.05603407916774
C            6.39184915902479        0.85182710902903       -0.61396361257471
C            7.00374606218949       -0.20093650713379        0.04778222345151
O            8.27781471920813       -0.19857782065301        0.51827933841039
C            9.07313977838292        0.94532596400912        0.31723003530046
C            6.26941786715035       -1.39659889649747        0.27454652784559
O            6.92994741332966       -2.37969969716757        0.94403068642433
C            6.32544523862341       -3.64206036740750        1.17908414287987
C            4.97050138795366       -1.48675260878656       -0.18146062612044
C           -0.04652405067823       -1.30757607279980       -0.63974286950871
C           -3.87666421808415        3.07753902073196        0.58069685879414
C           -4.51174287755553        2.77709171897352        1.93627758133785
C           -3.40607753843377        4.52951538080704        0.54431648758825
H           -4.64747450999793        0.94408917382136       -1.31577235705859
H           -6.83929745339146        0.26041009917528       -1.80614055084201
H           -7.16297804032090       -1.18445603020577       -2.79479130020623
H           -5.65575764260101       -0.26971378491537       -3.03813188265948
H           -4.88784309684762       -3.71564420764992        2.41614972587104
H           -5.29154591018611       -4.96600128938503        1.21374974918422
H           -3.61182764430171       -4.39454991757209        1.36416911014045
H           -3.07761075646726       -2.21290642736022        2.11373359922603
H           -2.15239123874112        0.02805508505662        2.02284715454213
H           -3.01741223132972        2.40543426538083       -1.87407131237354
H           -1.63390874745847        3.24648511151329       -1.18294208353040
H           -1.81208870303111        0.23673604867992       -1.62072416526157
H           -1.03282928929013        1.38149210657129       -2.72383335925133
H           -0.68447219619247        1.64901047298551        0.67919789274995
H            0.64175261069358        1.99220251704164       -0.95814122760581
H            2.12284810307375       -0.66593230354559        0.70722182090809
H            2.30146975995636        0.98560516190456        0.09413976831883
H            2.77337748608102        0.07887913351014       -2.18620523397844
H            2.69041411131659       -1.56690016642913       -1.53625240285021
H            4.62794326648129        1.57248552915801       -1.57432565135684
H            6.92758995688733        1.77009613600036       -0.79810916030563
H            8.65114521720118        1.82453012294055        0.81557757568113
H            9.21045433351402        1.16202097497416       -0.74731170587779
H           10.03792198163417        0.70915060266573        0.76293688317695
H            7.12391408335871       -4.24170915943158        1.61078342721480
H            5.46572834455872       -3.80284642357791        1.92998069058282
H            5.97534974035534       -4.08788623506420        0.25166928921121
H            4.40851875839295       -2.39383296914081       -0.02420965391208
H           -0.21795083021869       -1.62242641578363       -1.67341714610043
H           -1.01139448827397       -1.24629552599955       -0.12788661475593
H            0.56560317257366       -2.05548829414552       -0.14421077392167
H           -4.64481413620146        2.95100529476292       -0.19040648877908
H           -3.78197714020584        2.91029418990819        2.72851463704604
H           -4.88789309818818        1.75763367707107        1.97261913081671
H           -5.34294669613083        3.45683430808966        2.10860946552305
H           -2.61937093986828        4.69395150386868        1.27474944992016
H           -3.04442483501206        4.81474461891601       -0.44051484908988
H           -4.24086056334299        5.18100629176437        0.79261852358254
H           -0.63267975736459        2.80709439695170        2.75824873677999
72
 energy: 11.023628994892 xtb: 6.6.1 (8d0f1dd)
N           -1.55191278243422        2.84718960522411        2.26454327266205
C           -1.57264310224913        2.17134490954527        1.19976037587584
C           -2.74464450604791        2.06637839225480        0.26671700597126
C           -3.31125999803449        0.65462701542030        0.34463206708688
C           -4.28960117078667        0.24816601794854       -0.56516332733602
C           -4.83816651595963       -1.01850758249331       -0.51907864843265
O           -5.80420247527784       -1.48755127366406       -1.35906773763764
C           -6.37279883152558       -0.60733670755101       -2.29472536518015
C           -4.39836540198371       -1.93527697272453        0.46230093054197
O           -4.99358485248475       -3.16123146560372        0.42710324907037
C           -4.66677018100847       -4.09596226884813        1.42333984676974
C           -3.43217711777986       -1.53227658391094        1.36327095765688
C           -2.89695007577662       -0.24986388750979        1.30514155393739
C           -2.18149312566115        2.31341100582844       -1.15779864986082
C           -1.27638807838244        1.18531407897642       -1.67909457199936
C            0.00948891682221        1.13052668723528       -0.93452392070188
N            0.64487148515743       -0.05399542699746       -0.60232537731550
C            2.01310411515944       -0.03495887243027       -0.20188708888196
C            2.95399093903442       -0.52380599502154       -1.32451937748737
C            4.37742635536438       -0.41773839452493       -0.88477491945862
C            5.09301530241800        0.74938865787477       -1.07572835833442
C            6.40103121653347        0.85802254597209       -0.62679967116845
C            7.00860776157225       -0.19749164437150        0.03811556830521
O            8.28979530252100       -0.18507663797749        0.51049481145084
C            9.07661443577276        0.96498345878612        0.31549894188381
C            6.26778507833885       -1.39212703438032        0.27062274793805
O            6.88909586440870       -2.38598862491451        0.98422938554948
C            6.33848635151352       -3.68648227767419        1.21355736234270
C            4.97824780289290       -1.47818471406277       -0.20714717161526
C           -0.03880235591932       -1.31178863288688       -0.66664025896728
C           -3.88499170257232        3.07496343088909        0.57713253162323
C           -4.53528450179041        2.77985034725531        1.92772750006436
C           -3.42362324785515        4.53083265156473        0.53905147073346
H           -4.63174881294949        0.94270595633130       -1.31519904339858
H           -6.82544708844072        0.26322892724549       -1.80805211859083
H           -7.14977929989881       -1.18210080106875       -2.79666612872397
H           -5.63964778890536       -0.27024798964654       -3.03563591491235
H           -4.89287165058416       -3.71596427250006        2.42526673658279
H           -5.29007300036391       -4.96523475636885        1.21911005042219
H           -3.61222445320795       -4.38889807578898        1.37560549406860
H           -3.08677300033834       -2.20587818092679        2.13234448336387
H           -2.16190239336722        0.03620379387349        2.04125645331187
H           -3.01197754609965        2.43825922381535       -1.85506236988659
H           -1.61026383783967        3.24425853897556       -1.15398315710915
H           -1.81552621691329        0.23993087523005       -1.61674384601820
H           -1.07747862706352        1.38782772503747       -2.74231462540348
H           -0.69358544155726        1.64262245715042        0.75780793988753
H            0.65091486832235        1.99264404934030       -0.99075487893939
H            2.13800495456008       -0.67142652691505        0.68126907845691
H            2.29767305130188        0.98412491602876        0.07472832733216
H            2.78156758933660        0.09392368259965       -2.20733401539638
H            2.70342952934023       -1.55673459737340       -1.56968413328300
H            4.63709436702262        1.58318693084814       -1.58997613242731
H            6.93357013122071        1.78141601424475       -0.80522716934242
H            8.64970142209939        1.84244681059329        0.81395966685012
H            9.22145899340676        1.18881897033906       -0.74736890467655
H           10.04125666982662        0.73369683771905        0.76571495497409
H            7.21778848761061       -4.25282770827498        1.55177706332483
H            5.51762280967327       -4.12724667905523        2.07305260517210
H            5.91401676340671       -4.07791556382216        0.29582830904603
H            4.41686363963007       -2.38470481668644       -0.04497697670718
H           -0.21487343181842       -1.62712742408159       -1.70183663122064
H           -1.00315142492958       -1.25387885613586       -0.15306519963414
H            0.57239283129086       -2.06393381197947       -0.17355941552329
H           -4.64642905350427        2.94331749931973       -0.20102469541165
H           -3.81140214697093        2.92015521272132        2.72384586597694
H           -4.90611454662222        1.75812398799702        1.96550208777958
H           -5.37175435875846        3.45671504981204        2.08831574748270
H           -2.64487234007044        4.69847147601836        1.27683643868430
H           -3.05061346234346        4.81080646835429       -0.44328935925220
H           -4.26451857074085        5.18008869624637        0.77454653875209
H           -0.67632972185926        2.84108392562775        2.78350827176286
72
 energy: 26.229286430087 xtb: 6.6.1 (8d0f1dd)
N           -1.59527812756011        2.88892734436231        2.28272773505870
C           -1.58261934841123        2.18627055653835        1.23250319715951
C           -2.74499992219171        2.07089277942078        0.28184550046736
C           -3.30872265884411        0.65841884272578        0.35690117996042
C           -4.28097121892461        0.24928896187930       -0.55823352803666
C           -4.83083154678735       -1.01667139725568       -0.51092353165384
O           -5.79508707357222       -1.48693666845401       -1.35626061323602
C           -6.35767175850736       -0.60663993942102       -2.29385603450750
C           -4.39835099632320       -1.93035863692205        0.47453160505908
O           -4.99510141310245       -3.15842093842143        0.43830752690726
C           -4.66813421971086       -4.09299309926400        1.43279776594036
C           -3.43796060283684       -1.52617900836721        1.38150125297889
C           -2.90307027893851       -0.24401932832242        1.32368881752950
C           -2.17397305126517        2.32215484628047       -1.13984539615094
C           -1.28479899256103        1.18930918278179       -1.68299807820073
C            0.01243585401163        1.13366014327136       -0.96449348031703
N            0.65074030966472       -0.05890868262771       -0.62623328522424
C            2.01816742546241       -0.03571472505868       -0.22979287036501
C            2.96660378514397       -0.51408601641078       -1.35497789852107
C            4.38920663427653       -0.41231526001892       -0.91270915635163
C            5.10629639752441        0.75538217744028       -1.09510634730421
C            6.41203937376808        0.85712033188966       -0.63775471724600
C            7.01552428613632       -0.20089801481163        0.03396044747791
O            8.30115059755522       -0.17263011545874        0.50348269461482
C            9.07871781803105        0.98550019507954        0.31370951138734
C            6.26867692000459       -1.39602647216871        0.27588044365464
O            6.85061220275161       -2.39901320863954        1.03573487968486
C            6.35814454299405       -3.74310940284925        1.24699667335168
C            4.98639563336221       -1.47236216231548       -0.22967468213777
C           -0.03097803144576       -1.31539454527676       -0.69673597945642
C           -3.89493533356491        3.07316292067318        0.57470496061758
C           -4.56128545124293        2.78209913668425        1.91875800182957
C           -3.44285283668562        4.53212587854602        0.53341000361560
H           -4.61484644426782        0.94119959472433       -1.31440633001244
H           -6.81020144534258        0.26586404587266       -1.81003280061315
H           -7.13459608507435       -1.17965719399823       -2.79837621180273
H           -5.62166605035543       -0.27128783033858       -3.03294297749752
H           -4.89842643681041       -3.71691493614643        2.43557641547355
H           -5.28781972569569       -4.96443233386643        1.22520522945446
H           -3.61240438255431       -4.38298173328046        1.38845031742901
H           -3.09716666513948       -2.19816474049320        2.15392970171357
H           -2.17260259888255        0.04467633596248        2.06348085595556
H           -3.00377168466962        2.47327263269286       -1.83372258995791
H           -1.58539834945849        3.24232397361251       -1.12248123148091
H           -1.82249180138250        0.24433534421894       -1.61130152353775
H           -1.11933949424977        1.39388394589875       -2.75432650755073
H           -0.70313296474519        1.63893269368372        0.83876794731017
H            0.65758597998951        1.99129956727074       -1.02008363607048
H            2.15277290476166       -0.67665497088731        0.65089087380801
H            2.29700101771947        0.98309015481212        0.05298924643338
H            2.79239894186000        0.11062325291948       -2.23270102467055
H            2.71703314248011       -1.54546829852482       -1.60809779474852
H            4.65079573117407        1.59287227708540       -1.60591055782090
H            6.94168920418821        1.78490003229188       -0.81128843028542
H            8.64617848254529        1.86064744446937        0.81219654538981
H            9.23114048428438        1.21650351645727       -0.74718674228680
H           10.04356696716041        0.76103182920031        0.76831347970375
H            7.29509210088046       -4.27137088696525        1.49113377061145
H            5.58410847685198       -4.39499059917310        2.18501832749355
H            5.85034216290774       -4.07525031820272        0.34569594203727
H            4.42338632501015       -2.37782472820695       -0.06821490517961
H           -0.20971739668635       -1.62996927066128       -1.73263688447116
H           -0.99467613068995       -1.26276154775352       -0.18120673241859
H            0.58043346042327       -2.07177439896939       -0.20737085579766
H           -4.64689816356513        2.93307716033532       -0.21192441836451
H           -3.84662566633667        2.93123191618048        2.72135582300232
H           -4.92689258248307        1.75851125329447        1.95769097041383
H           -5.40330834389782        3.45548058645403        2.06512043659582
H           -2.67423085694753        4.70616893422578        1.28000334633259
H           -3.05853719294539        4.80706135636569       -0.44597218395954
H           -4.29068330163476        5.17761513589457        0.75427062383737
H           -0.72328173975195        2.88255690010819        2.81073441940622
72
 energy: 41.324962351327 xtb: 6.6.1 (8d0f1dd)
N           -1.63103752979176        2.92013918942771        2.29707638434733
C           -1.59455767832391        2.20184839059771        1.26081594774718
C           -2.74567965646311        2.07397221838011        0.29502432220378
C           -3.30599211423279        0.66073984452614        0.36878001520055
C           -4.27218709600135        0.24979214188409       -0.55210562403203
C           -4.82433516007805       -1.01537437609365       -0.50353315538659
O           -5.78486395097890       -1.48592606162509       -1.35276596562013
C           -6.34315363131777       -0.60607315652754       -2.29286901550867
C           -4.39841560226430       -1.92675656157360        0.48672920707230
O           -4.99550241773201       -3.15442219444796        0.44978107627969
C           -4.66913375558809       -4.09033800578606        1.44268262583471
C           -3.44298850824421       -1.52094078475062        1.39885629232223
C           -2.90783953193745       -0.23899709618504        1.34123581216903
C           -2.16607785022780        2.33049994652453       -1.12283930632042
C           -1.29338336937358        1.19208990994209       -1.68426419549065
C            0.01795443968168        1.12934082869249       -0.99694115679325
N            0.65389881737963       -0.05909371947411       -0.65057780842374
C            2.02388665851007       -0.03557690573289       -0.25616856332217
C            2.97789184144574       -0.50675412329952       -1.38301985050678
C            4.40082375504733       -0.41000220045407       -0.93439460820891
C            5.11951184003018        0.75814593333853       -1.11036450538409
C            6.42223189850130        0.85180705004593       -0.64428615045049
C            7.02268130171438       -0.20647185142800        0.03579948613028
O            8.31093894056547       -0.16183296597262        0.49815733050317
C            9.07985848627018        1.00404202558762        0.31228532353755
C            6.27219583921694       -1.40254360746515        0.28436433031559
O            6.82500453923236       -2.40755377623451        1.08204323617468
C            6.38058128897806       -3.78712947719931        1.26370632584633
C            4.99529841155141       -1.46911500510580       -0.24531760836470
C           -0.02367011307089       -1.31860707212061       -0.72546835393703
C           -3.90435398136298        3.07162616943116        0.57289198868631
C           -4.58583002899668        2.78401805013839        1.91009687008518
C           -3.46133427383774        4.53318247299872        0.52798268079660
H           -4.59871091113799        0.93930501550295       -1.31338346577477
H           -6.79558671897084        0.26796843414880       -1.81163175555228
H           -7.11974636010891       -1.17782295604166       -2.79942015815289
H           -5.60447709065781       -0.27273673609735       -3.03034773537872
H           -4.90370165592328       -3.71796313037434        2.44593474857539
H           -5.28537985575648       -4.96344407410270        1.23133402571902
H           -3.61237493987607       -4.37733193492699        1.40121368805152
H           -3.10737658299544       -2.19078413716893        2.17513494578750
H           -2.18296024350469        0.05216586144509        2.08571812067361
H           -2.99360672492986        2.50570135815555       -1.81360894826758
H           -1.56208220693041        3.24018948519451       -1.09266709667230
H           -1.83136498803009        0.24840443788808       -1.60487905707749
H           -1.15496357689680        1.39904418162682       -2.76018200700115
H           -0.71166884598227        1.63994021090191        0.91080280231386
H            0.66035674261438        1.98970090653096       -1.04261638095463
H            2.16310576028838       -0.68093498957426        0.62061790981424
H            2.29874357497489        0.98250094275485        0.03165214476926
H            2.80598747166930        0.12536629025830       -2.25609406235629
H            2.72906435988457       -1.53589392243928       -1.64500836648803
H            4.66691528504417        1.59884090186714       -1.62010762752141
H            6.95141306686391        1.78103233860506       -0.81597849954988
H            8.64088690379283        1.87625895887969        0.81054105281979
H            9.23777098173044        1.24014048844770       -0.74693423554297
H           10.04478462798193        0.78617755530074        0.77069567838209
H            7.33502571249624       -4.28159481800779        1.43457081309215
H            5.64494110226185       -4.61955168408620        2.26730094270230
H            5.79813933998779       -4.07626827887236        0.39683107125323
H            4.42883859528437       -2.37376923779866       -0.09003734738386
H           -0.20372257879039       -1.63049194606940       -1.76194336720879
H           -0.98668564229060       -1.27131676999661       -0.20799867585643
H            0.58928747965995       -2.07711135593377       -0.24024084902108
H           -4.64668220347575        2.92270142314770       -0.22140540304741
H           -3.88200721827227        2.94193413340667        2.72046625644546
H           -4.94670118767733        1.75891758399377        1.95021014704451
H           -5.43313182475709        3.45373092731255        2.04222152954586
H           -2.70317591741949        4.71563040429941        1.28305928449399
H           -3.06662416293658        4.80391704047226       -0.44824841243014
H           -4.31579269146385        5.17455943179379        0.73443074329591
H           -0.76725988717160        2.92444420158944        2.83909069141676
72
 energy: 52.924925519247 xtb: 6.6.1 (8d0f1dd)
N           -1.65137557652920        2.94149197122701        2.30304542452808
C           -1.60391318304934        2.21111084752289        1.27863974185815
C           -2.74570534364768        2.07526070411257        0.30329251241486
C           -3.30388994252566        0.66174305687426        0.37683625010697
C           -4.26584778113351        0.24968487189736       -0.54816734178386
C           -4.82002965248528       -1.01477176095129       -0.49896825944807
O           -5.77703613901804       -1.48528122635937       -1.35030819176556
C           -6.33325850048256       -0.60584931774948       -2.29239058723456
C           -4.39839183618220       -1.92488522124913        0.49503196873416
O           -4.99547001322828       -3.15105667215035        0.45783202542643
C           -4.66973454478537       -4.08863744032820        1.44981483453281
C           -3.44630455666209       -1.51754844528740        1.41026383264598
C           -2.91062875956345       -0.23572915153567        1.35292832022489
C           -2.15937489996826        2.33512638277459       -1.11138021091747
C           -1.29876796628740        1.19311135417789       -1.68508030113924
C            0.02453943352565        1.12214387201829       -1.02404980036340
N            0.65523568305416       -0.05732755928258       -0.66625229802149
C            2.02801855966706       -0.03552253890065       -0.27309476819438
C            2.98533696467557       -0.50345693060695       -1.39979127167828
C            4.40806965745751       -0.41007720662433       -0.94438658153520