72
 energy: -103.309750541620 gnorm: 0.094897669893 xtb: 6.6.1 (8d0f1dd)
N           -1.46023460245299        2.75294409149470        2.21991429758212
C           -1.54769800931096        2.15491641154599        1.13150686209531
C           -2.73885718706802        2.05515568305325        0.23706773539521
C           -3.31122159188529        0.64486202948555        0.32534465511574
C           -4.30304656170607        0.24531856064347       -0.57578676884686
C           -4.85344340996861       -1.02202476363575       -0.52726005956808
O           -5.81993252469674       -1.48646664733595       -1.35264507419990
C           -6.39932279981584       -0.60944788022280       -2.28897394492494
C           -4.39978000758281       -1.94478071498664        0.44937228261087
O           -4.99081577668979       -3.16138212222401        0.41922466331829
C           -4.66316712988232       -4.09999370262119        1.41600764478677
C           -3.41856087512087       -1.54436563534594        1.33712409340889
C           -2.87877300672756       -0.26228054167576        1.27483081920262
C           -2.19639113688191        2.29533481480586       -1.19452141376933
C           -1.27413925929222        1.16803776218777       -1.67003422795527
C           -0.00718716977977        1.12658395644572       -0.90732908873804
N            0.61158465551393       -0.02188212845534       -0.61142301091678
C            1.99067976296285       -0.03599144030770       -0.15267240032611
C            2.92614409475438       -0.53805682278029       -1.26688247772093
C            4.35250044467099       -0.42878769278529       -0.81883603008273
C            5.06752982590947        0.73633876549255       -1.02472427344710
C            6.38041958765536        0.84647222371957       -0.59002310064437
C            6.99646743001049       -0.20598072242235        0.06554507946884
O            8.26783645964685       -0.20942097143365        0.52964026937629
C            9.06735102370924        0.93016073210009        0.32220060981277
C            6.26801022920498       -1.40235432765174        0.28660677050400
O            6.94949335353109       -2.38081501757843        0.93032601895186
C            6.31709877423391       -3.61664168330567        1.15298606402566
C            4.96098652838030       -1.49254855758106       -0.15277541385947
C           -0.04563364955386       -1.30800254456005       -0.65581281234538
C           -3.86062197635470        3.07934951379833        0.58373753997187
C           -4.48433815465790        2.77503639863494        1.94338810105503
C           -3.38171191943092        4.52784044054973        0.54901374677523
H           -4.66118396065051        0.94476782424166       -1.31109964708246
H           -6.85206520329401        0.25897022519047       -1.80042168512234
H           -7.17629219500349       -1.18740685316729       -2.78563859610435
H           -5.67024650848795       -0.27307175120057       -3.03344786616749
H           -4.87969067406535       -3.71502714860678        2.41701619225150
H           -5.29295840019756       -4.96531769826790        1.21846973152025
H           -3.61118711496933       -4.39867523829819        1.35816693887287
H           -3.06602035258648       -2.21851182145442        2.10111557944543
H           -2.13846884317811        0.02013356551937        2.00591723230505
H           -3.03049038298433        2.38124215219340       -1.89619556950513
H           -1.64478211308936        3.23804984984583       -1.21408088730437
H           -1.81417799807115        0.22269890438255       -1.63199348115679
H           -1.00566263742439        1.36818790787341       -2.71571488480209
H           -0.66394490026524        1.65703648247138        0.60840970789107
H            0.54748663921364        2.08744936361965       -0.94627591506112
H            2.09241816405676       -0.68270827927435        0.72407421588008
H            2.28915327364368        0.97853301528554        0.12442927720348
H            2.76470141278145        0.07393439758490       -2.15946819122167
H            2.68495303593187       -1.57124344832573       -1.51460698839419
H            4.61362776342251        1.56806127555279       -1.54300874336242
H            6.91687495745456        1.76270280626272       -0.77548389654849
H            8.65328652428591        1.81047913623214        0.82401381355205
H            9.19382376911759        1.14349852702787       -0.74421559078248
H           10.03521137171522        0.68885426419543        0.75739744142562
H            7.05905586304043       -4.23777077376894        1.65173771463700
H            5.44108726139313       -3.51113840126051        1.80198252209834
H            6.02070963359696       -4.09258777181107        0.21323866197980
H            4.39983573699262       -2.40126109944395        0.00000559242456
H           -0.18926776679617       -1.62275074131830       -1.69686994281875
H           -1.02206946374230       -1.26394088239405       -0.16007600938338
H            0.55877997860328       -2.06203727960569       -0.15721730621420
H           -4.63464086874820        2.96007406572411       -0.18137600852300
H           -3.74925841161174        2.89806098992959        2.73108567347111
H           -4.87094050506266        1.75921035343861        1.97767808065885
H           -5.30613515817278        3.46150317356791        2.12832316434531
H           -2.59235541045526        4.68788852424412        1.27659020318994
H           -3.02491886019839        4.81543376185452       -0.43652797675211
H           -4.21084888151313        5.18272784139322        0.80358193847499
H           -0.58437865615508        2.77097849706334        2.72143340058854
72
 energy: -103.312994933859 gnorm: 0.037735801404 xtb: 6.6.1 (8d0f1dd)
N           -1.48041349609328        2.78502010591558        2.23210712136552
C           -1.55698569162000        2.15109897877904        1.15315132838391
C           -2.74324681464820        2.05890812565654        0.24370969017596
C           -3.31659780265131        0.64965809685457        0.32942726209860
C           -4.30598293877850        0.24692861453328       -0.57102462002225
C           -4.85304598289956       -1.02130901125456       -0.52504102613507
O           -5.82297268246860       -1.48856455750671       -1.35403129324533
C           -6.39854683790449       -0.60970434453117       -2.28889261834328
C           -4.40018177715538       -1.94267767100151        0.44929689123890
O           -4.99367338243538       -3.16454379722228        0.41828293629886
C           -4.66271173676513       -4.09967860867270        1.41518716387064
C           -3.42184114202056       -1.54113281172707        1.33834612157852
C           -2.88603660827874       -0.25802822498846        1.27827141277456
C           -2.20074813277249        2.29516003704482       -1.19130202847461
C           -1.27130661620620        1.17882317132418       -1.68763704222943
C           -0.00138409539081        1.13539794302594       -0.90933028421173
N            0.62818635428023       -0.03786898664184       -0.59984143212533
C            1.99716223838598       -0.04134431093810       -0.15841883645838
C            2.93576749206224       -0.54052379793934       -1.27281249333359
C            4.36059706688357       -0.43251586257110       -0.83037362320963
C            5.07349257269882        0.73443999229704       -1.02908112026527
C            6.38363445896923        0.84624239133678       -0.58818320102910
C            6.99836100839815       -0.20650467078989        0.06746922854460
O            8.27539916034106       -0.21073779038501        0.53303826840062
C            9.06925191317483        0.93016361513930        0.32267740597209
C            6.27120378729179       -1.40106350590485        0.28746621536508
O            6.95428272741957       -2.38290245504766        0.93406225349559
C            6.31760851220749       -3.61614164691106        1.15361217382306
C            4.96686687867804       -1.49331101156886       -0.15737057280536
C           -0.04523106316771       -1.30909259831462       -0.65882671943067
C           -3.86753836535397        3.07912277734236        0.58134897584712
C           -4.48877112744404        2.77698840010613        1.94283394510234
C           -3.38540199817276        4.52722479624527        0.54916904580758
H           -4.65941435793064        0.94471872640416       -1.31149419516517
H           -6.84990103094175        0.25974362878453       -1.79996007556259
H           -7.17622689249097       -1.18576557142927       -2.78764705062688
H           -5.66785656714952       -0.27220321586571       -3.03168516286104
H           -4.87795021914648       -3.71374250808907        2.41673413072848
H           -5.29131671887903       -4.96686662174132        1.21998035007118
H           -3.60991768514055       -4.39632505069331        1.35811257624701
H           -3.06501000814436       -2.21766283474293        2.09901347996907
H           -2.13802070083567        0.02344562977614        2.00254643445173
H           -3.03685413349515        2.38785105995377       -1.88737250863995
H           -1.64926679883630        3.23693012326488       -1.21023308605446
H           -1.80581931836178        0.23104843902179       -1.63790349232315
H           -1.03717040431856        1.37569742126358       -2.74506398866847
H           -0.68265511186103        1.63948519240361        0.65034362248546
H            0.59533205045176        2.04590780913839       -0.98138337676747
H            2.09859196514994       -0.68222781093963        0.72292421823717
H            2.28562687772392        0.97478208703273        0.11996713526227
H            2.76654017635067        0.07328457085141       -2.16013239164082
H            2.68705802910213       -1.57386473217743       -1.51595998277196
H            4.61603477179890        1.56698127726188       -1.54269214596539
H            6.91977289510350        1.76348029847602       -0.77174861260191
H            8.65258423027614        1.81033888803061        0.82354982056090
H            9.19315306518800        1.14403597682729       -0.74425188024327
H           10.03846717908545        0.69263166278154        0.75757698792023
H            7.05722877097587       -4.24008840369993        1.65276862162293
H            5.44009635397548       -3.50953196267934        1.80065915255454
H            6.01994390697361       -4.09095674372480        0.21281592740796
H            4.40247274496330       -2.39984506114144       -0.00108120165086
H           -0.19642256645145       -1.62937997480900       -1.69671224281658
H           -1.01934349438624       -1.25970791293025       -0.16226095439513
H            0.55969057209950       -2.05871322385040       -0.15480273688244
H           -4.64363111567276        2.96273328399823       -0.18374320848985
H           -3.74461979470477        2.89732577028779        2.72362068663052
H           -4.87231727689904        1.76002720543238        1.97719726748128
H           -5.31125737266655        3.46336723476594        2.13195401087241
H           -2.59250137257602        4.67843319862305        1.27558125447476
H           -3.02493398341450        4.81138833221860       -0.43633420242300
H           -4.21269270860482        5.18617619527175        0.80439410975680
H           -0.59644429502284        2.77369141850435        2.73051723301222
72
 energy: -103.313873460556 gnorm: 0.023014315325 xtb: 6.6.1 (8d0f1dd)
N           -1.46649068037983        2.77575572132670        2.22428207074937
C           -1.53885451999431        2.14439578163663        1.13863844297621
C           -2.73757017046274        2.05793587912843        0.23942784009805
C           -3.30762956134178        0.64675023363992        0.32280514866076
C           -4.30089176277530        0.24479890409907       -0.57290399736811
C           -4.84849694589649       -1.02237825271392       -0.52564076348888
O           -5.82421657074510       -1.48996728675201       -1.35477303167967
C           -6.39924750787019       -0.61094716219446       -2.28802662069538
C           -4.39683948615584       -1.94266422657536        0.44724966307987
O           -4.99545170588556       -3.16685305924646        0.41786580379104
C           -4.66429576274869       -4.09992724164859        1.41466817245394
C           -3.41831150340179       -1.54315920563045        1.33587829628689
C           -2.87994100231904       -0.26210739599829        1.27288980739838
C           -2.20314057408825        2.29607485653534       -1.19829625358394
C           -1.27715950248040        1.17385851962111       -1.68654637932923
C           -0.01454848379822        1.14688064918775       -0.89734278207863
N            0.63134521388259       -0.03957409704143       -0.58326059307891
C            1.99084119879022       -0.03416555926871       -0.15272450088485
C            2.93072997236799       -0.53511443801184       -1.26733702306904
C            4.35255233620845       -0.42870165252871       -0.82392405142490
C            5.06630474474887        0.73709620194905       -1.02447461312193
C            6.37784086605792        0.84722615282987       -0.58882045193414
C            6.99132195744980       -0.20605863454247        0.06540814769944
O            8.27291776325619       -0.21177465404154        0.53082877408783
C            9.06584720956488        0.92820516145002        0.32144735621834
C            6.26496313403959       -1.39842262031993        0.28738858187122
O            6.95245731563823       -2.38302043306495        0.93230595963458
C            6.31725481175406       -3.61580654482373        1.15284162678791
C            4.95949573544885       -1.49036744764060       -0.15274920273219
C           -0.04464567361729       -1.30476459834373       -0.66156892094623
C           -3.85804255429194        3.07651866419188        0.58346680282476
C           -4.48422618705211        2.77523610432377        1.94390787031732
C           -3.38223844220600        4.52826486321240        0.54997214906974
H           -4.65736550407234        0.94398279904857       -1.31172791078425
H           -6.85101077868728        0.25906792706442       -1.79967098097010
H           -7.17758710437015       -1.18748299052391       -2.78566675103627
H           -5.67035199382260       -0.27312778973660       -3.03281183605100
H           -4.87934564371619       -3.71445420809500        2.41698188141391
H           -5.29398225043896       -4.96652474991555        1.21949691757909
H           -3.61181417761776       -4.39866987430241        1.35853795075790
H           -3.06517065739715       -2.21898994002737        2.09956645386483
H           -2.13576800543727        0.02054945613580        2.00129464313259
H           -3.03620161175051        2.38653917287717       -1.89603870846333
H           -1.64698426887738        3.23535094493609       -1.21812016107058
H           -1.80639913697695        0.22186998244666       -1.63348162613483
H           -1.02863689252182        1.36753731132418       -2.73900356825130
H           -0.66853692958073        1.66556780382179        0.62412853473134
H            0.56761133346131        2.05048113634746       -0.93285454588434
H            2.09355147232699       -0.67718322865577        0.72823916340548
H            2.28027088575598        0.98066032160404        0.12861770216284
H            2.76079135760732        0.07775348873136       -2.15357382203552
H            2.67876716732164       -1.56868751268681       -1.50923285347437
H            4.60871931927277        1.56775778584599       -1.54088571683875
H            6.91522021746130        1.76319477270618       -0.77621822625903
H            8.65134841516527        1.80934340578471        0.82332472905956
H            9.19175280248484        1.14376764841885       -0.74508778723087
H           10.03444018657671        0.68864595288169        0.75694843900505
H            7.05920750150765       -4.23803898994943        1.65089809415707
H            5.44069111189365       -3.51134114599316        1.80169658280072
H            6.01876888899116       -4.09266090428175        0.21276665869401
H            4.39527457311582       -2.39769863988522        0.00203455629032
H           -0.19267333241291       -1.62131190461076       -1.70023107065948
H           -1.01931768532627       -1.26290058243181       -0.16643535957219
H            0.56084143545465       -2.05585576798879       -0.15876833974028
H           -4.63454496712617        2.96001370732666       -0.18163027434909
H           -3.74466185271818        2.89679459886464        2.72905664777300
H           -4.86800230590664        1.75827422569319        1.97756020751229
H           -5.30809882104330        3.46153938854561        2.12761454114546
H           -2.59008479211834        4.68518332370285        1.27611478804819
H           -3.02314566587789        4.81372020495249       -0.43592899079835
H           -4.21327672962889        5.18322028373939        0.80399048368686
H           -0.56568368281679        2.75504458708456        2.70070127781495
72
 energy: -103.314479071418 gnorm: 0.010879609643 xtb: 6.6.1 (8d0f1dd)
N           -1.48535538552285        2.76924523470123        2.22951204567232
C           -1.54432367477144        2.14825954720564        1.13804874232058
C           -2.74218217454045        2.05801251526630        0.23929263100418
C           -3.31276171610281        0.64746749795874        0.32546829434681
C           -4.30482590624332        0.24585601251263       -0.57199619400553
C           -4.85147157243846       -1.02137805894983       -0.52394652761906
O           -5.82478707973550       -1.48876086705244       -1.35480529527382
C           -6.39846286739019       -0.60985241304700       -2.28878562988176
C           -4.39925515950879       -1.94119259450642        0.44946723458666
O           -4.99472752668670       -3.16595026507812        0.41908840413678
C           -4.66239093403460       -4.09920892918766        1.41501946515214
C           -3.42079849959883       -1.54233534117495        1.33880636232749
C           -2.88398169278985       -0.26083487711185        1.27648296235614
C           -2.19969739203514        2.29782202381794       -1.19409619724821
C           -1.27725058225113        1.17191699347703       -1.67758494192101
C           -0.01116356814758        1.14831434123541       -0.90616575910519
N            0.63045497691816       -0.03611543180413       -0.59458674945068
C            1.99135434628112       -0.03709031193517       -0.16225626926577
C            2.93524810179124       -0.53994511918433       -1.27381668538745
C            4.35604253246648       -0.43089999886212       -0.82433963038875
C            5.07098469869590        0.73475195446355       -1.02612106935916
C            6.38253290907174        0.84577444439955       -0.58989708469159
C            6.99520203722720       -0.20694343565925        0.06515099936993
O            8.27529433451050       -0.21024497136491        0.53245216493608
C            9.06828499235963        0.92975974242791        0.32309741248559
C            6.26940128758612       -1.40006647642056        0.28557856550876
O            6.95469045387234       -2.38385914068604        0.93258562566190
C            6.31822143681766       -3.61579914005758        1.15352666928823
C            4.96412739628959       -1.49321027295703       -0.15521725620062
C           -0.04625557357720       -1.30300297689292       -0.65862267132054
C           -3.86143997458223        3.07792995163498        0.58335357102938
C           -4.48745531845488        2.77621406162210        1.94391469913705
C           -3.38341070194140        4.52889254942216        0.54899330064363
H           -4.66276186891939        0.94516710385199       -1.30997044040799
H           -6.85200541645671        0.25971562708388       -1.80131206726250
H           -7.17571610099027       -1.18664230722667       -2.78754319460976
H           -5.66892154935930       -0.27202001736341       -3.03296879421243
H           -4.87870578271169       -3.71532387732046        2.41762120563215
H           -5.29099502001973       -4.96624446058697        1.21880231841840
H           -3.60966750579681       -4.39716805877979        1.35852045660411
H           -3.06725142010857       -2.21802508184251        2.10220624352724
H           -2.14189653732367        0.02248538300670        2.00695686404729
H           -3.03084557882572        2.38533252141223       -1.89434367651766
H           -1.64409702064550        3.23798183807271       -1.21105358149558
H           -1.80978749694764        0.22193125043470       -1.62855144436856
H           -1.01471199537567        1.36808690247655       -2.72398209689027
H           -0.67598192096613        1.65447848860511        0.62764423812288
H            0.56409939526732        2.06309986849896       -0.95552889390070
H            2.09690074259256       -0.68286315981912        0.71803044112370
H            2.29030160834940        0.97550236377558        0.11865495037770
H            2.76936714880261        0.07087723007751       -2.16290227964643
H            2.68770840645207       -1.57398824952106       -1.51762629031590
H            4.61552598644277        1.56520943534022       -1.54488193328180
H            6.91914192854902        1.76262356631550       -0.77469251627839
H            8.65415216574937        1.81152600805957        0.82417542801399
H            9.19550571130815        1.14429635895142       -0.74346275444825
H           10.03695760313983        0.69081851386117        0.75879743860000
H            7.05863321563813       -4.23846078474642        1.65323946782924
H            5.44085592155239       -3.51023619078365        1.80115252673625
H            6.02141034956587       -4.09307105316685        0.21332915219074
H            4.40233810511664       -2.40238054943608       -0.00315556850033
H           -0.19455429332941       -1.62492543433916       -1.69549988781048
H           -1.01985675178593       -1.25868506583060       -0.15999273977137
H            0.55693794248996       -2.05764995531759       -0.15562006683724
H           -4.63752011637725        2.96123430854269       -0.18192791379806
H           -3.74960166369328        2.89777944575431        2.73017628001535
H           -4.87378329822157        1.76020637867221        1.97786485021547
H           -5.30932594516609        3.46363009279308        2.12845808252341
H           -2.59243682113130        4.68646156069392        1.27591192742708
H           -3.02526843663814        4.81499023478966       -0.43697546543296
H           -4.21301572012356        5.18432070698770        0.80338380418275
H           -0.59072463378576        2.76055799335468        2.71454979337541
72
 energy: -103.314494301722 gnorm: 0.010451971021 xtb: 6.6.1 (8d0f1dd)
N           -1.47612138200537        2.77791769730089        2.22803823872738
C           -1.53961221478444        2.15182738127454        1.14088556052814
C           -2.73884308226156        2.05783672448380        0.24204060993482
C           -3.31143547909299        0.64790926865227        0.32709640926962
C           -4.30208563560504        0.24628133791777       -0.57263392841699
C           -4.84929897553512       -1.02113904410858       -0.52480532764263
O           -5.82252533209533       -1.48821220014753       -1.35484248458384
C           -6.39811973097126       -0.60973693347416       -2.28775878532550
C           -4.39727691770403       -1.94137458269272        0.44836679595650
O           -4.99334954998351       -3.16516901455225        0.41833137837595
C           -4.66348045272743       -4.09876508490114        1.41472614952598
C           -3.41747607835171       -1.54331470085499        1.33703212031611
C           -2.88059975469200       -0.26159731982386        1.27572904030525
C           -2.20024656679019        2.29523660866954       -1.19377523909203
C           -1.27528433757983        1.17370918227851       -1.68427501991133
C           -0.00786586187246        1.14261547599036       -0.91468461470364
N            0.62707417285463       -0.03839209632336       -0.59773365630227
C            1.98620799940304       -0.03732107877123       -0.15350563757156
C            2.93069183560404       -0.53686779342522       -1.26636809493607
C            4.35334169218742       -0.42874473659265       -0.82155456314121
C            5.06867755263588        0.73665642310613       -1.02434857243347
C            6.38047099608085        0.84733581572971       -0.58818358538419
C            6.99305761663096       -0.20609626024266        0.06616542166857
O            8.27295186665477       -0.21023915718637        0.53163300831085
C            9.06613769465409        0.92924135971379        0.32119429983370
C            6.26702537279138       -1.39906256474715        0.28689088622239
O            6.95174969635343       -2.38302442506344        0.93298696396365
C            6.31596910655785       -3.61545900556467        1.15282048498540
C            4.96136443861497       -1.49139668603098       -0.15318896811312
C           -0.04580145258428       -1.30775390948602       -0.66099511383452
C           -3.86079426864428        3.07684371994411        0.58279297194940
C           -4.48462437245068        2.77456826127144        1.94363859196780
C           -3.38215167766435        4.52694687658348        0.54944499971536
H           -4.65745290763008        0.94476540755606       -1.31231645893820
H           -6.85034574245611        0.25979610378635       -1.79918345580610
H           -7.17654809787816       -1.18624724453004       -2.78517553283997
H           -5.66958437668594       -0.27226902673132       -3.03296507040315
H           -4.87910331343307       -3.71357680149659        2.41686244905080
H           -5.29357443264970       -4.96508837362120        1.21950728327005
H           -3.61133190841409       -4.39854435849489        1.35847123256540
H           -3.06230738435082       -2.21989745855546        2.09841381940160
H           -2.13382149402613        0.01976381955627        2.00204501774246
H           -3.03583487795046        2.38330377996502       -1.88957695854387
H           -1.64821991613645        3.23700482927431       -1.21337697810542
H           -1.81035389575238        0.22640747062643       -1.63865293869346
H           -1.02329942226907        1.37390752380175       -2.73345702339266
H           -0.67372478836090        1.64777674195824        0.63199503363867
H            0.57499008134554        2.05784376198417       -0.96746365268609
H            2.09315989111485       -0.68193021712415        0.72834507784359
H            2.28251242451482        0.97649514195182        0.12744937449856
H            2.76178442710444        0.07583924756459       -2.15426527721355
H            2.68286024987924       -1.57037776119476       -1.51122059372072
H            4.61219843245930        1.56896616877219       -1.53955260476398
H            6.91697946270254        1.76417753216629       -0.77253127079216
H            8.65205812643280        1.81046116000923        0.82302815401474
H            9.19106708426648        1.14379347449419       -0.74564292820867
H           10.03569582407765        0.69051074283271        0.75525051158372
H            7.05693528559267       -4.23909126680462        1.65064272125653
H            5.43938322155424       -3.51084851000415        1.80155776806872
H            6.01811309673708       -4.09102275618565        0.21223094596214
H            4.39793728547964       -2.39867044006912        0.00268627223618
H           -0.18992729071207       -1.62866942328860       -1.69897623013757
H           -1.02126195427687       -1.26536261661271       -0.16554372526854
H            0.55824106588052       -2.06190517120599       -0.15702909644520
H           -4.63734305804345        2.96000016283760       -0.18216126456437
H           -3.74428649586011        2.89697592544895        2.72714435320938
H           -4.86868147689117        1.75781218205133        1.97770244253897
H           -5.30701919857156        3.46067324836522        2.13059592312781
H           -2.59101542599129        4.68166737397383        1.27661658481524
H           -3.02356717799137        4.81254015586504       -0.43631118813446
H           -4.21067316600933        5.18331701181849        0.80461902894982
H           -0.58211953457740        2.77259810387667        2.71416296674039
72
 energy: -103.314683077259 gnorm: 0.005188462868 xtb: 6.6.1 (8d0f1dd)
N           -1.47668085811857        2.77363235932694        2.23015279783768
C           -1.54211507234054        2.14773148584922        1.14305618486674
C           -2.74088800931078        2.05839835416795        0.24175980452453
C           -3.31336726205626        0.64825436834398        0.32574675217955
C           -4.30425161140292        0.24586431751076       -0.57313516070389
C           -4.85116847913206       -1.02183096146378       -0.52498772036560
O           -5.82444754664392       -1.48940929692681       -1.35532284448881
C           -6.39906016831734       -0.61093654770886       -2.28864161959366
C           -4.39933203477025       -1.94156620776637        0.44837129609356
O           -4.99468205912554       -3.16626632642059        0.41849496357171
C           -4.66335125937275       -4.09950107052602        1.41461636224388
C           -3.42082101276139       -1.54211407693699        1.33778722342346
C           -2.88389132214074       -0.26039952519647        1.27557380448489
C           -2.20118426041977        2.29542732536940       -1.19431236559220
C           -1.27416906322173        1.17386080948046       -1.68225691117255
C           -0.00803653969883        1.14316518946456       -0.90739458612972
N            0.62986556729663       -0.03823238281154       -0.59271804960400
C            1.99046160689946       -0.03622994476968       -0.15622265369297
C            2.93312284542278       -0.53773138648508       -1.27062404182386