72
 energy: 0.000000000000 xtb: 6.6.1 (8d0f1dd)
N           -1.47310934822924        2.74401318561852        2.22063942287560
C           -1.55658894218425        2.16490305624665        1.13274284460745
C           -2.74549225258129        2.05621251263064        0.23826250649470
C           -3.31377583855761        0.64333417511334        0.32332515650284
C           -4.30230195924506        0.24487112428158       -0.58026167086503
C           -4.85238808050968       -1.02286499940159       -0.53363593669082
O           -5.81420026757557       -1.48606047972767       -1.36157895357670
C           -6.39655692584623       -0.60827005826649       -2.29568495601309
C           -4.39972542350640       -1.94646120241305        0.44396933240983
O           -4.98748357557592       -3.16146026488900        0.41085995818162
C           -4.66362171172287       -4.10093865802695        1.40909140816864
C           -3.42072545213514       -1.54561399150247        1.33436558640148
C           -2.88302826362110       -0.26315802838497        1.27400162590187
C           -2.19303818453636        2.30467021687947       -1.18742988123374
C           -1.26651549989641        1.17243380322503       -1.65249445018642
C            0.01082525039567        1.09745464658138       -0.89354811789923
N            0.61779399208289       -0.02034948241203       -0.57705527866251
C            2.00145228921113       -0.02376006609561       -0.15611401051620
C            2.92554961797610       -0.53865287672537       -1.27700100652360
C            4.35756883501756       -0.43050761225877       -0.83075552032494
C            5.07346182539911        0.73206415878124       -1.03980975472950
C            6.38628045899965        0.84224449235903       -0.60344828301384
C            7.00047329721665       -0.20824758267940        0.05722314949100
O            8.26703733840855       -0.21011315050632        0.52410948507466
C            9.06912311989339        0.92943609656965        0.31863060963839
C            6.27040022445068       -1.40439766990411        0.28033468609137
O            6.94830004375713       -2.38012947787858        0.92752007684741
C            6.31537376337817       -3.61583233633369        1.15217722400438
C            4.96302840674480       -1.49347485723979       -0.16064431849589
C           -0.05511211878686       -1.29906259857679       -0.62085692079872
C           -3.86758072907722        3.07992629005348        0.58498065642721
C           -4.49286201346546        2.77383518785172        1.94313307512182
C           -3.39165211343248        4.52917708609625        0.54797528556046
H           -4.66030069703099        0.94509076131725       -1.31640581036773
H           -6.85037992114187        0.25803164586058       -1.80468862056629
H           -7.17287509152171       -1.18600121846629       -2.79318183475679
H           -5.66836870040540       -0.26952968819383       -3.04040283452035
H           -4.88416765986127       -3.71589494995018        2.40913564538747
H           -5.29223619720187       -4.96637504833431        1.20969248126828
H           -3.61139846644506       -4.39919876145526        1.35529370415983
H           -3.07077825100221       -2.21868786295666        2.10002682176568
H           -2.14562774333496        0.02067850888151        2.01001363031684
H           -3.02188903413801        2.38238034416975       -1.88813562572432
H           -1.65198546223364        3.25146730843841       -1.20556295755141
H           -1.81103391047759        0.23006526775522       -1.62116316669324
H           -0.99335697743926        1.37490224954061       -2.69443281971844
H           -0.67628070635666        1.65183902374723        0.61785732877701
H            0.63525847086258        1.98466388206871       -0.92314029755375
H            2.11132572081740       -0.65949698961381        0.72532619960637
H            2.30680494458141        0.98978260887088        0.11078973822125
H            2.76694224489122        0.06750735773687       -2.17075272340394
H            2.67954606229959       -1.57455642411728       -1.51167757545099
H            4.62170041431221        1.56295626549351       -1.56123593485311
H            6.92357738865082        1.75715832247601       -0.79119604059515
H            8.65159193263071        1.81001840117181        0.81701562739969
H            9.20136256512460        1.14042868409438       -0.74698998879646
H           10.03428931104811        0.69003246578081        0.76064945022918
H            7.05567240429544       -4.23621211097668        1.65347581279537
H            5.43848051513375       -3.50813590722545        1.79970582482858
H            6.02060097762632       -4.09420535105165        0.21253284608183
H            4.40102799328555       -2.40127288651695       -0.00490198294521
H           -0.22071301762289       -1.61775598610935       -1.65116024301020
H           -1.01972267469312       -1.24102728946113       -0.10935207845464
H            0.55899959333766       -2.04486104898380       -0.12333731565713
H           -4.63991918782192        2.95501120214274       -0.18098089750912
H           -3.76095251366987        2.90314731895452        2.73380846416528
H           -4.87457659255110        1.75695657819473        1.97884621460846
H           -5.31925601899505        3.45579242388173        2.12325583951056
H           -2.60025614255587        4.69225089676674        1.27368930043085
H           -3.03987434616939        4.81897697030947       -0.43870979129779
H           -4.22191779840287        5.18069696155015        0.80616701440619
H           -0.59832439338922        2.77744720721660        2.72959009765665
72
 energy: -1.218748237231 xtb: 6.6.1 (8d0f1dd)
N           -1.45737678170387        2.75441565312867        2.21962246884715
C           -1.53849787503169        2.14726548649771        1.12971789409830
C           -2.73477722065895        2.05434944030125        0.23605449240031
C           -3.30867065129966        0.64548884494892        0.32683954532480
C           -4.30451088639832        0.24579690720782       -0.56724798171734
C           -4.85543007045914       -1.02064299265216       -0.51573092687301
O           -5.82754536596054       -1.48673668050805       -1.34056689810388
C           -6.40351814295897       -0.61123216731636       -2.27863325256569
C           -4.39989254278644       -1.94215347287089        0.45830151105660
O           -4.99530013557445       -3.16120593824198        0.43082581739864
C           -4.66249688841275       -4.09862427374027        1.42559534476262
C           -3.41499533156529       -1.54289139485633        1.34133957732387
C           -2.87516664191770       -0.26196292243032        1.27520870489351
C           -2.19866343492035        2.29008548503101       -1.19936163286684
C           -1.28371684611207        1.16188734131857       -1.68927824521543
C           -0.01823079725282        1.14565493716236       -0.91723499853801
N            0.61808539387563       -0.02445493293796       -0.59140766997302
C            1.98110068274125       -0.04508543689550       -0.14988373722145
C            2.92619447474054       -0.53779073768954       -1.26376097366979
C            4.34983759273742       -0.42775019893199       -0.81232158352494
C            5.06064009132621        0.74124320346370       -1.00696267642321
C            6.37246328342928        0.85236445791833       -0.57119040838762
C            6.99082363687214       -0.20273695384790        0.07739019655550
O            8.26833805553915       -0.20838721097046        0.53671044532238
C            9.06553493216919        0.93087735049542        0.32562013796997
C            6.26496885975243       -1.39964829479691        0.29488851708692
O            6.95136750027554       -2.38179447015270        0.93505772563674
C            6.31982767198780       -3.61784550104045        1.15425928710633
C            4.95907292149520       -1.49162909550454       -0.14577324702955
C           -0.03750858611589       -1.31521686080291       -0.69302325216890
C           -3.85167560187047        3.07890084447621        0.58252148321661
C           -4.47299003262470        2.77635019389450        1.94375849139089
C           -3.36546938467563        4.52587743199520        0.55055260098958
H           -4.66228724731472        0.94442898811556       -1.30548882908805
H           -6.85481239042848        0.26039519915192       -1.79379476254290
H           -7.18124206773269       -1.18940906413266       -2.77452420244885
H           -5.67289583859638       -0.27813115785625       -3.02364714649080
H           -4.87321094911945       -3.71386667623958        2.42847645071818
H           -5.29392516826770       -4.96372432884722        1.23124968335753
H           -3.61078480979120       -4.39778678436733        1.36353388168161
H           -3.05827202140979       -2.21832510440909        2.10304258787005
H           -2.12512596870078        0.01890883969762        1.99847455253268
H           -3.03059280398119        2.38124217533557       -1.89626628466258
H           -1.63952961458443        3.22804666033387       -1.22131609208696
H           -1.81855115083460        0.21388139440654       -1.64423184028171
H           -1.01761792686733        1.36080240134235       -2.73398047095696
H           -0.66419327247196        1.65704295404943        0.60862253102645
H            0.49055720913858        2.15157661864559       -0.96174289320021
H            2.07761435824863       -0.69969738299862        0.72291845433961
H            2.26794098852467        0.96498598888147        0.14194661911733
H            2.76246074560121        0.08112142921112       -2.14707975022472
H            2.68485531452447       -1.57131236428849       -1.51455633176975
H            4.60257906289452        1.57491147748089       -1.51797896105095
H            6.90726749500107        1.77072180897257       -0.75266234966968
H            8.65518076997724        1.81100005445856        0.83154837099337
H            9.18532869945025        1.14699115653082       -0.74105828773533
H           10.03569212998732        0.68814474776239        0.75529724073650
H            7.06361589316708       -4.23980876562378        1.64930300962673
H            5.44482104703910       -3.51540438420357        1.80530029115382
H            6.02076456700637       -4.09207506488855        0.21347336151498
H            4.39833626743602       -2.40123474269199        0.00587022902613
H           -0.16318307001419       -1.62574356602424       -1.73507407683766
H           -1.02551836642115       -1.29145232657631       -0.22286700630167
H            0.55848711933938       -2.07403522406118       -0.18782391074333
H           -4.62885678242509        2.96488892109212       -0.18156555180305
H           -3.72976932598133        2.88943586754638        2.72678687459068
H           -4.86525443069714        1.76292384022618        1.97588687346148
H           -5.29007575175313        3.46819258683976        2.13427463789183
H           -2.57777665477558        4.68015367209670        1.28220556820265
H           -2.99880273024749        4.80953047744627       -0.43281698592370
H           -4.19358066172566        5.18574128262564        0.79938828523737
H           -0.56956574494930        2.76346212537791        2.71147600609644
72
 energy: 9.429188773029 xtb: 6.6.1 (8d0f1dd)
N           -1.43812561661203        2.76130199431736        2.20928640345507
C           -1.51312020611233        2.13631089757965        1.11821138619405
C           -2.72111278572358        2.05022780631978        0.22947930575063
C           -3.30024134943987        0.64489497460756        0.32944052672731
C           -4.30739053926676        0.24584292985993       -0.55169599785782
C           -4.85991737886552       -1.01844865709511       -0.49221660049301
O           -5.84552528974244       -1.48641397761060       -1.31078963922880
C           -6.41261821962730       -0.61509337573675       -2.25528535942789
C           -4.40030938858347       -1.93719324297069        0.47770398670366
O           -5.00534037830925       -3.15950054642839        0.45876701621183
C           -4.66066861894127       -4.09504964837450        1.44804825947677
C           -3.40571832066070       -1.54131524548736        1.35043487636677
C           -2.86243205008829       -0.26341771282642        1.27547907432264
C           -2.20756794970069        2.27554199046180       -1.21859933235233
C           -1.30476015213510        1.14445900835725       -1.72033023222024
C           -0.04202089070025        1.19209920713863       -0.94612997148280
N            0.60919464407884       -0.02099215841429       -0.61623991960952
C            1.94959073982596       -0.06584806252302       -0.14230690035858
C            2.92412248066407       -0.53453792573470       -1.24507241054255
C            4.33830153645711       -0.42197259929096       -0.78207712096794
C            5.04352144070747        0.75308833731158       -0.96145487820602
C            6.35550065105183        0.86574060802111       -0.52776030440367
C            6.97846982042393       -0.19537011826583        0.10394656018130
O            8.26699377839888       -0.20496006162858        0.55291583804916
C            9.05980459558809        0.93296416734078        0.33492299091469
C            6.25853885343545       -1.39336705932799        0.31397221174732
O            6.95430591507412       -2.38298978433914        0.94397350057810
C            6.32553510201107       -3.62000242389633        1.15689212190875
C            4.95277790238267       -1.48820943382226       -0.12514007749314
C           -0.02357598384773       -1.32591002488524       -0.79665265065938
C           -3.82764167729174        3.07862880262658        0.58086394297656
C           -4.44524743443203        2.77833160086292        1.94486785133492
C           -3.32898601888105        4.52251840665791        0.55324363133637
H           -4.66653229134504        0.94354578330027       -1.29062995268379
H           -6.86153994733190        0.26332387700386       -1.77937611595698
H           -7.19212435436214       -1.19363567031467       -2.74902350349335
H           -5.67896375911016       -0.29008493554846       -3.00123029889204
H           -4.85846998464070       -3.71168977054683        2.45483515037895
H           -5.29573839427940       -4.95970670211049        1.26082659976470
H           -3.60990949629721       -4.39636626124286        1.37456888090198
H           -3.04171941016535       -2.21822184211050        2.10811244628747
H           -2.09809059968628        0.01485811429681        1.98436755755611
H           -3.04677843828195        2.38472037332231       -1.90470991027846
H           -1.62664546805996        3.20240886502873       -1.24543766410343
H           -1.83302740138297        0.19330435621492       -1.66926987261202
H           -1.04832663654421        1.33584017401526       -2.77008555755619
H           -0.65317406243135        1.65032318033747        0.59810183780329
H            0.31544398439625        2.33499304976379       -1.01213781352038
H            2.02892837444559       -0.74858311936790        0.71753464497205
H            2.22326865935122        0.93631884853656        0.18497236707305
H            2.75807673324715        0.09917683963287       -2.11721054522115
H            2.69171704954956       -1.56573461908105       -1.51796677006886
H            4.57684697114653        1.59012147253145       -1.45923346091353
H            6.88568120861512        1.78912439467965       -0.69973562804744
H            8.66069727513056        1.81255706342967        0.85178151958942
H            9.16355831490528        1.15613058229760       -0.73278905791336
H           10.03688685812162        0.68583207388562        0.74750344812197
H            7.07394502584291       -4.24410167431049        1.64324881770427
H            5.45359313196094       -3.52523603655867        1.81343231068055
H            6.02149904527348       -4.08935908911042        0.21480781959531
H            4.39429788627350       -2.40065813245628        0.01989094230333
H           -0.08456197797658       -1.63029004465890       -1.85200644703322
H           -1.03833061102921       -1.35497944999202       -0.37849133995339
H            0.55626213534771       -2.09435145256366       -0.27676986771684
H           -4.60993731193819        2.97641056788044       -0.18077615026332
H           -3.68957207261849        2.87084527422411        2.71906222177921
H           -4.85445147831947        1.77095428036142        1.97264696069307
H           -5.24800493735362        3.48402261055386        2.14844605569612
H           -2.54869866844101        4.66625349262873        1.29488338948671
H           -2.94313048996819        4.79837854530625       -0.42542448982548
H           -4.15412811953060        5.19180680245179        0.78883134080481
H           -0.53128515675706        2.73968127755306        2.67623857838576
72
 energy: 23.049642465830 xtb: 6.6.1 (8d0f1dd)
N           -1.41332405928664        2.75695971671393        2.19457060753416
C           -1.49085212149515        2.12613651873056        1.10447702890154
C           -2.70841740842503        2.04479865357593        0.22077643145033
C           -3.29145213929379        0.64230401127653        0.33183418800671
C           -4.31052345184375        0.24546558675446       -0.53656440574956
C           -4.86644967237714       -1.01667411519580       -0.46746480129663
O           -5.86324126707516       -1.48464760440380       -1.27704370570135
C           -6.42271414144222       -0.61918909374124       -2.22970983873383
C           -4.40148750712367       -1.93352480572976        0.49946377689026
O           -5.01408111158819       -3.15549861954720        0.48994589427787
C           -4.65823508343799       -4.09139528884258        1.47303152582597
C           -3.39436073452108       -1.54116720883628        1.35994879697204
C           -2.84631573082824       -0.26642307305096        1.27455671017648
C           -2.22109752144431        2.26400451748487       -1.23993119011914
C           -1.32916206481943        1.13213592905316       -1.75165825043636
C           -0.06393802693620        1.22950055817900       -0.98555947491252
N            0.58596940823403       -0.01352032811935       -0.65003951952873
C            1.91129262570041       -0.08483212665916       -0.13430962840216
C            2.91746088161106       -0.52883368592556       -1.22430534530002
C            4.32489281617506       -0.41361040040429       -0.74560818835605
C            5.02438712176328        0.76744437116129       -0.91038779577667
C            6.33731898572800        0.88124325892460       -0.48025981842186
C            6.96661914839910       -0.18698855737571        0.13291083422059
O            8.26206601316483       -0.19979650201647        0.57016223279745
C            9.05340137197001        0.93610184525033        0.34512284309033
C            6.25210663716576       -1.38795550928743        0.33475350213198
O            6.95547515859131       -2.38276663733417        0.95259371904166
C            6.33161830095992       -3.62231756592072        1.15953623708026
C            4.94511556633087       -1.48442328449856       -0.10150173939157
C           -0.01353147497267       -1.33263481375007       -0.90968803524763
C           -3.80289834886538        3.07991141616862        0.58018522445517
C           -4.41483851451551        2.78010168980659        1.94672865485443
C           -3.28867094109205        4.51887660662545        0.55621382382236
H           -4.67271193979447        0.94271530499782       -1.27432499947632
H           -6.86938340059184        0.26600898162684       -1.76355437875507
H           -7.20378370767308       -1.19826042592030       -2.72088918984031
H           -5.68583910472436       -0.30354013407607       -2.97682732970383
H           -4.84232225911065       -3.70980577332258        2.48354713669452
H           -5.29715359852346       -4.95522869842770        1.29330826068285
H           -3.60884278126247       -4.39526040849289        1.38662051042922
H           -3.02376193724387       -2.21827827564852        2.11413281504573
H           -2.06901438931585        0.00990131217145        1.97018374659454
H           -3.06772145425126        2.38741162398911       -1.91275343766575
H           -1.62457795075972        3.18157972787357       -1.27411039013473
H           -1.84985377614820        0.17717281308701       -1.69126054109827
H           -1.08000730574943        1.30976301306259       -2.80638060674276
H           -0.63908935622112        1.64287850777603        0.58141559901360
H            0.17636764237432        2.46716058150250       -1.06299230473906
H            1.96907700230566       -0.79645460703656        0.70912930908725
H            2.18036679713800        0.90551809926746        0.23289232697373
H            2.75584340671581        0.11888236876198       -2.08716397313406
H            2.69838420118821       -1.55767309051526       -1.52024423754174
H            4.54963721586200        1.60778423324291       -1.39520546403159
H            6.86195881558914        1.80959690482373       -0.64211848007249
H            8.66707633702729        1.81471971268057        0.87414236598368
H            9.13974604495782        1.16634973876202       -0.72322867136481
H           10.03758404867289        0.68391677822193        0.73885459591633
H            7.08511384022732       -4.24822924819460        1.63632941144264
H            5.46342250019085       -3.53586389607128        1.82241087503025
H            6.02280260534891       -4.08618844252009        0.21605858473129
H            4.39030739389281       -2.40055099441087        0.03519402729011
H           -0.00146097698640       -1.62364490457074       -1.97557593221692
H           -1.05065019771236       -1.41306390388568       -0.54854577673583
H            0.55390838795071       -2.10490016590309       -0.37405819763299
H           -4.58936757898837        2.98845341062088       -0.17884006021699
H           -3.64848270288316        2.85093154232642        2.71300877799888
H           -4.84313409915031        1.78024368822897        1.96941139472726
H           -5.20122462498837        3.50032017315356        2.16385412998752
H           -2.51772900862451        4.65367651874023        1.30930849247160
H           -2.88368606703549        4.78717788201506       -0.41706778915692
H           -4.11005031619597        5.19757184207266        0.77728603148006
H           -0.49198162301464        2.71771452298967        2.63775960697929
72
 energy: 33.986967929230 xtb: 6.6.1 (8d0f1dd)
N           -1.38303704042651        2.74627988089035        2.17586171014123
C           -1.47075229274156        2.11842095183266        1.08555843974072
C           -2.69739698271049        2.03848729251357        0.21038521474874
C           -3.28326650704356        0.63838380227421        0.33355026423289
C           -4.31384340294458        0.24442780140719       -0.52248746603670
C           -4.87397833436962       -1.01547424721673       -0.44383009823125
O           -5.87958579366421       -1.48211311007150       -1.24293750990507
C           -6.43297299467784       -0.62305601143597       -2.20450247652536
C           -4.40280948203733       -1.93126173545902        0.52102292077041
O           -5.02112945882254       -3.15021591309967        0.52099552604863
C           -4.65548588591690       -4.08820378622618        1.49799481542355
C           -3.38287035474060       -1.54176153460759        1.36852894609502
C           -2.82970288331641       -0.27009168974261        1.27261893541484
C           -2.23873962271704        2.25507116005845       -1.26136867511902
C           -1.35192875130975        1.12633926369243       -1.78042698797993
C           -0.07999612610719        1.25273237765986       -1.03115628208487
N            0.55867406083238       -0.00950513445308       -0.68836362574554
C            1.87178805546096       -0.10239739744783       -0.12912639929664
C            2.90798392070214       -0.52206222629205       -1.20352138933381
C            4.31042944899465       -0.40378700512447       -0.70713094056400
C            5.00456340647769        0.78245065454488       -0.85849540433675
C            6.31894759961888        0.89665884384823       -0.43282921135701
C            6.95562590893387       -0.17822629640803        0.16187534391466
O            8.25460941182489       -0.19368035784317        0.58740206090791
C            9.04688786639201        0.93995673686493        0.35550493332893
C            6.24542152374133       -1.38322369435091        0.35537988410737
O            6.95505585316087       -2.38121074534328        0.96016505518223
C            6.33740767661728       -3.62456559968098        1.16175524365443
C            4.93654429776320       -1.47994553437783       -0.07722662844496
C           -0.00339894108248       -1.33797253674307       -1.01890467547687
C           -3.77954842213149        3.08185485533087        0.58054671163896
C           -4.38517033419180        2.78200355153690        1.94930167867719
C           -3.24931872372854        4.51519222513168        0.55970088698610
H           -4.68023630541665        0.94159596593157       -1.25790327928328
H           -6.87735490291621        0.26835518020777       -1.74782615022350
H           -7.21528059597370       -1.20293389312629       -2.69283194719727
H           -5.69284573573154       -0.31700918690294       -2.95259949041723
H           -4.82620182260164       -3.70820176596786        2.51157209089548
H           -5.29831815810201       -4.95066902683754        1.32513458584899
H           -3.60779148648309       -4.39446844527635        1.39835353422566
H           -3.00623801403501       -2.21856536807421        2.11969843188546
H           -2.04108672299137        0.00408945355502        1.95634139288014
H           -3.09391571151846        2.38690620077541       -1.91941283735243
H           -1.63685407126699        3.16867003007786       -1.30435067438984
H           -1.86488056786402        0.16765072073806       -1.70737067548409
H           -1.11256898074040        1.28872453996625       -2.84015607372610
H           -0.62265520095005        1.63550493202805        0.55737016637524
H            0.08443252178100        2.55254043827136       -1.11276531386995
H            1.90225225481045       -0.83863878731368        0.69644427347875
H            2.13660119704619        0.87443619885734        0.27800565754784
H            2.75516238431764        0.13814961901387       -2.05865549482953
H            2.70473651348470       -1.54817614258992       -1.52083485385750
H            4.52323671847950        1.62610046912410       -1.33111318294831
H            6.83832977919013        1.82947627514020       -0.58483731368325
H            8.67368191315347        1.81716637936910        0.89656416279801
H            9.11581632640683        1.17658268260305       -0.71292856908818
H           10.03722791255168        0.68202308937575        0.73045671452331
H            7.09617996138199       -4.25158505874775        1.62895809374599
H            5.47323031284036       -3.54645841623840        1.83104558406501
H            6.02421850500266       -4.08286244923873        0.21697525787489
H            4.38642151685951       -2.40024433255151        0.05034239369825
H            0.07430346978448       -1.60774019972063       -2.08904597915525
H           -1.05461535183253       -1.45856839402053       -0.71466046306269
H            0.55141383747867       -2.11184571257378       -0.46996751567333
H           -4.57015078234606        3.00090295064057       -0.17520768675198
H           -3.61005012060393        2.83134581132349        2.70850506203637
H           -4.83220594120930        1.79020275597916        1.96674253424960
H           -5.15496232043609        3.51577094071756        2.17988425151576
H           -2.48794765633651        4.64271816333886        1.32379051639674
H           -2.82637745715558        4.77662403911527       -0.40783202486375
H           -4.06618870926701        5.20344458202850        0.76655394907614
H           -0.45562640772043        2.69877269140159        2.60420660461756
72
 energy: 40.256170875485 xtb: 6.6.1 (8d0f1dd)
N           -1.35365715827066        2.73307184731397        2.15669437912652
C           -1.45432518238718        2.11186621136001        1.06501980601645
C           -2.68907490265376        2.03337660864149        0.20084727263519
C           -3.27683137939110        0.63502499479281        0.33464913363746
C           -4.31681752815778        0.24324971979202       -0.51083160811598
C           -4.88052552666705       -1.01468850107508       -0.42459670528186
O           -5.89304079440509       -1.47948051438906       -1.21367842309079
C           -6.44190782961012       -0.62609569511871       -2.18329060263071
C           -4.40360680920140       -1.92998128409055        0.53881012132407
O           -5.02631826239460       -3.14504836125863        0.54720284122898
C           -4.65293847516645       -4.08574739353107        1.51910393815848
C           -3.37333659575276       -1.54221350527357        1.37485385998841
C           -2.81586238434088       -0.27302172692230        1.27032295689479
C           -2.25470547956219        2.24805129417435       -1.27831723398560
C           -1.37007357650249        1.12339720560824       -1.80388229396354
C           -0.08891974038647        1.25951041643892       -1.07362828718286
N            0.53565821178290       -0.01053149354890       -0.72272841783183
C            1.83764473670212       -0.11605694623061       -0.12830451077590
C            2.89860761592151       -0.51540437220173       -1.18541308823897
C            4.29719825930539       -0.39457229315869       -0.67344913584447