72
 energy: 0.000000000000 xtb: 6.6.1 (8d0f1dd)
N           -1.47310921155849        2.74401293103706        2.22063921685122
C           -1.55658879776851        2.16490285539332        1.13274273951491
C           -2.74549199786261        2.05621232186130        0.23826248438941
C           -3.31377553111525        0.64333411542669        0.32332512650568
C           -4.30230156009016        0.24487110156316       -0.58026161703006
C           -4.85238763031941       -1.02286490450319       -0.53363588718165
O           -5.81419972815119       -1.48606034185536       -1.36157882725342
C           -6.39655633239252       -0.60827000183299       -2.29568474302620
C           -4.39972501531283       -1.94646102182611        0.44396929121966
O           -4.98748311285188       -3.16145997157803        0.41085992006324
C           -4.66362127904578       -4.10093827755394        1.40909127743729
C           -3.42072513477031       -1.54561384810496        1.33436546260297
C           -2.88302799614223       -0.26315800396994        1.27400150770375
C           -2.19303798107274        2.30467000305896       -1.18742977106749
C           -1.26651538239283        1.17243369445008       -1.65249429687285
C            0.01082524939134        1.09745454476277       -0.89354803499847
N            0.61779393476578       -0.02034948052406       -0.57705522512502
C            2.00145210352228       -0.02376006389122       -0.15611399603240
C            2.92554934655222       -0.53865282675074       -1.27700088804721
C            4.35756843073516       -0.43050757231754       -0.83075544324989
C            5.07346135469827        0.73206409086248       -1.03980965825901
C            6.38627986649936        0.84224441421807       -0.60344822702769
C            7.00047264773336       -0.20824756335880        0.05722314418200
O            8.26703657141718       -0.21011313101264        0.52410943644933
C            9.06912227848686        0.92943601033931        0.31863058007678
C            6.27039964270142       -1.40439753960823        0.28033466008274
O            6.94829939911432       -2.38012925705718        0.92751999079483
C            6.31537317745639       -3.61583200086742        1.15217711710877
C            4.96302794628964       -1.49347471867959       -0.16064430359178
C           -0.05511211367372       -1.29906247805359       -0.62085686319744
C           -3.86758037025447        3.07992600430699        0.58498060215443
C           -4.49286159663096        2.77383493050346        1.94313289484366
C           -3.39165179876499        4.52917666589254        0.54797523472093
H           -4.66030026466202        0.94509067363451       -1.31640568823548
H           -6.85037928558380        0.25803162192116       -1.80468845313260
H           -7.17287442604349       -1.18600110843259       -2.79318157561361
H           -5.66836817451085       -0.26952966318766       -3.04040255244073
H           -4.88416720672258       -3.71589460520039        2.40913542187496
H           -5.29223570620378       -4.96637458756866        1.20969236903657
H           -3.61139813139015       -4.39919835331056        1.35529357841967
H           -3.07077796610445       -2.21868765711333        2.10002662693138
H           -2.14562754426994        0.02067850696302        2.01001344383370
H           -3.02188875377605        2.38238012313952       -1.88813545054866
H           -1.65198530896729        3.25146700677685       -1.20556284570283
H           -1.81103374245520        0.23006524641044       -1.62116301628650
H           -0.99335688527853        1.37490212198123       -2.69443256973690
H           -0.67628064361333        1.65183887049447        0.61785727145403
H            0.63525841192517        1.98466369793744       -0.92314021190751
H            2.11132552493482       -0.65949692842762        0.72532613231274
H            2.30680473056284        0.98978251704176        0.11078972794250
H            2.76694198818247        0.06750735147374       -2.17075252200790
H            2.67954581369920       -1.57455627803457       -1.51167743520200
H            4.62169998552446        1.56295612048703       -1.56123579000624
H            6.92357674630170        1.75715815945204       -0.79119596719031
H            8.65159112996149        1.81001823324363        0.81701555159939
H            9.20136171144928        1.14042857828877       -0.74698991949293
H           10.03428838009630        0.69003240176163        0.76064937965836
H            7.05567174969094       -4.23621171795340        1.65347565939075
H            5.43848001056755       -3.50813558175093        1.79970565785717
H            6.02060041905269       -4.09420497120334        0.21253282636366
H            4.40102758497114       -2.40127266373392       -0.00490198249042
H           -0.22071299714579       -1.61775583601871       -1.65116008982042
H           -1.01972258008625       -1.24102717432227       -0.10935206830928
H            0.55899954147532       -2.04486085926761       -0.12333730421426
H           -4.63991875734388        2.95501092798550       -0.18098088071825
H           -3.76095216473977        2.90314704960906        2.73380821053058
H           -4.87457614030224        1.75695641518947        1.97884603101694
H           -5.31925552549014        3.45579210326349        2.12325564252114
H           -2.60025590131176        4.69225046143352        1.27368918226171
H           -3.03987406413880        4.81897652321898       -0.43870975059559
H           -4.22191740670577        5.18069648090034        0.80616693961239
H           -0.59832433787845        2.77744694953323        2.72958984441332
72
 energy: -6.939483657253 xtb: 6.6.1 (8d0f1dd)
N           -1.50223703367761        2.90079265270893        2.24307667970442
C           -1.57965105610198        2.15551908781223        1.23242542066949
C           -2.75280608016951        2.05887086803193        0.28818499461316
C           -3.34020606992357        0.65811023044812        0.34779994223679
C           -4.29698056284907        0.24685109717119       -0.58050608316904
C           -4.83958967798034       -1.02303978978317       -0.54307223836234
O           -5.78816526076009       -1.50779920400467       -1.39425215764428
C           -6.29945577903926       -0.62652233917607       -2.35121867087090
C           -4.42228781558898       -1.93533187656009        0.44397300275152
O           -5.01890477217494       -3.16078627160802        0.39222948684423
C           -4.70573041563456       -4.08248186596445        1.40030344343459
C           -3.47625469343798       -1.52539885082978        1.36007245950522
C           -2.94302589590634       -0.24428809976583        1.31077511424107
C           -2.18336426365115        2.28994125031420       -1.14136469884979
C           -1.25597237228340        1.17624928069047       -1.66211023018649
C            0.01697953520671        1.11408848701187       -0.89704377564041
N            0.63026339916788       -0.06902924547088       -0.52241023705487
C            2.00807639503180       -0.06677863896401       -0.14492848878861
C            2.93565774255316       -0.54862574148799       -1.27889763257479
C            4.36426346684834       -0.43479370792088       -0.85203533158862
C            5.07651898173778        0.73389651396532       -1.04535920557259
C            6.38690420248978        0.85012922446553       -0.60468564702576
C            7.00211137303287       -0.20181687246329        0.05122865820904
O            8.28294544239688       -0.20245921548073        0.51948438520886
C            9.06497361921197        0.94407718565710        0.30379665451189
C            6.27903016422645       -1.39466674507802        0.27025627507602
O            6.96591743540380       -2.37739041338084        0.92155021792961
C            6.32731637376840       -3.60859807585513        1.13063979110198
C            4.97719139096586       -1.49380389940303       -0.18343147390214
C           -0.04885296720350       -1.33138601759005       -0.60169257899464
C           -3.87751162483683        3.08432846336264        0.59585690166875
C           -4.47443021206852        2.82827808151495        1.97505786717246
C           -3.39860171631521        4.52853648285967        0.53393847194885
H           -4.60510489093501        0.93781273125483       -1.34401301125457
H           -6.74116783598286        0.25673016354612       -1.87673546970118
H           -7.06835482485431       -1.18415136226378       -2.88044969635627
H           -5.52551486932513       -0.29379174800637       -3.05048656623122
H           -4.94351108112260       -3.67870129594347        2.38768382890507
H           -5.31096883150301       -4.96493145824816        1.20661296867863
H           -3.64549709968630       -4.36408855579317        1.37524902128042
H           -3.12983277939897       -2.19654947957188        2.12402576008752
H           -2.20110824860828        0.04992799138998        2.03425732253835
H           -3.01496613548143        2.39664076652207       -1.83837041070318
H           -1.62099859103787        3.22206290335097       -1.13961934846134
H           -1.78725787690773        0.22721413662142       -1.62209767893760
H           -1.03932699119703        1.39075303821714       -2.72211654319883
H           -0.72880707148426        1.59089373126047        0.81527922019163
H            0.66377710144620        1.97521774962730       -0.95882277795411
H            2.14781297667507       -0.70432830455762        0.73587256145315
H            2.30099533110589        0.94859259802688        0.12332001000453
H            2.73724232240005        0.07559232884840       -2.14822926533276
H            2.68392059747063       -1.57997506228563       -1.52648531161539
H            4.61526141672478        1.56844273550927       -1.55005301305736
H            6.91938450907365        1.77074759676358       -0.78707153507746
H            8.63888173719211        1.82181469111295        0.79991250554836
H            9.17943102833613        1.16272162608095       -0.76584181420004
H           10.03849253666261        0.72263358293876        0.73735250570630
H            7.05618119291656       -4.23789541401198        1.63948792867252
H            5.44001382546173       -3.50295048917278        1.76426783727263
H            6.03046083833158       -4.07714458654900        0.18479133404621
H            4.41365341542119       -2.39985327920939       -0.02980863485728
H           -0.21477842763541       -1.64966999539112       -1.63900366075566
H           -1.01775351123348       -1.27203438565446       -0.09725075901509
H            0.55450838618564       -2.08694627720023       -0.10123128697087
H           -4.66184939547091        2.94885185522624       -0.16088975418635
H           -3.69849393212220        2.95052071498090        2.72571483857606
H           -4.83572802994085        1.80788948838097        2.03937565023490
H           -5.28987549395025        3.52177265130048        2.18206729014302
H           -2.59781702148518        4.68315024780169        1.25036797971279
H           -3.05411400258509        4.78464667066488       -0.46161725276673
H           -4.22065513542549        5.19148895794494        0.78959174658162
H           -0.60748429345511        2.88418471712458        2.73079018679131
72
 energy: -5.186846501139 xtb: 6.6.1 (8d0f1dd)
N           -1.47239012174870        3.05259719898753        2.20932479103432
C           -1.60315080195892        2.16328430501473        1.32835100156291
C           -2.75524285092329        2.05506375409855        0.34504292139547
C           -3.36512997679122        0.66616768988849        0.37753860302555
C           -4.27970967369100        0.24546104622302       -0.58698834493755
C           -4.82357613022690       -1.02408635270274       -0.55763101651474
O           -5.74500645778045       -1.52487199066541       -1.42764422497954
C           -6.19078837746389       -0.64544588130673       -2.40920010299880
C           -4.44989939978003       -1.92853359407032        0.44636148994530
O           -5.05011671080090       -3.15145757282062        0.37417166949356
C           -4.75974677106960       -4.06402685460327        1.39384627053624
C           -3.53775733349637       -1.51045504092065        1.38879130159896
C           -3.00658548730688       -0.23073962083376        1.35317402507348
C           -2.15946140512753        2.27570594165890       -1.08188640395600
C           -1.24758540681237        1.15795617764523       -1.62210210753228
C            0.02280494535162        1.08197649662259       -0.85837088886640
N            0.62587683404005       -0.10137795481628       -0.46791486775295
C            2.01208579019700       -0.10410546958365       -0.11973760109479
C            2.92599560530171       -0.55090402174830       -1.27313192228555
C            4.35882345746137       -0.42880148548316       -0.86179259148992
C            5.06584004853165        0.74424552709834       -1.04663042950177
C            6.37925841682252        0.86271344877231       -0.61389714713994
C            7.00197904167427       -0.19079496861923        0.03345044997591
O            8.28445529744329       -0.18973434939737        0.49747755779834
C            9.05856890150638        0.96282033216357        0.28048040655749
C            6.28417894911330       -1.38663309172238        0.24819324270886
O            6.97774173510003       -2.36954140004655        0.89481953409460
C            6.34175909490824       -3.60240910984123        1.09638102102521
C            4.98292504801714       -1.49019433683713       -0.20851384662053
C           -0.04659467220085       -1.36608232887214       -0.57472084332064
C           -3.87572403605899        3.09187720326325        0.62174392609257
C           -4.43783291884859        2.90197778104113        2.02237371221284
C           -3.39675713267436        4.52803106774660        0.50390961451978
H           -4.54272271943232        0.92894759248204       -1.37066375448412
H           -6.62458449462462        0.25177399039167       -1.95395756421265
H           -6.94678475143269       -1.19107026261209       -2.96439024935899
H           -5.37362663280457       -0.32407433606861       -3.06231507017277
H           -5.01871099396373       -3.64285908475588        2.36631902924731
H           -5.34743452895789       -4.95665778240697        1.19894822077297
H           -3.69579597190006       -4.33541091122064        1.39898559644077
H           -3.20384796095333       -2.17687801941324        2.15656696187041
H           -2.27388320882117        0.07323087990453        2.07849027293467
H           -2.97950806629066        2.40415572567105       -1.78544185207670
H           -1.57751303551293        3.19285833067634       -1.06080903548300
H           -1.78319726526822        0.21174175786099       -1.58976462778823
H           -1.03339690979246        1.37844108398496       -2.68320609329533
H           -0.78803650234234        1.50876029345658        1.01227852361712
H            0.66469722960614        1.94805131059592       -0.90776901276177
H            2.17096944228310       -0.75463744877414        0.74761009177191
H            2.30476137010045        0.90751703038759        0.15434824617020
H            2.70317127898370        0.09042051535299       -2.12118549037999
H            2.67743075597611       -1.57700249880704       -1.53948128927495
H            4.59811144137333        1.58206197438499       -1.53760831587337
H            6.90717630583073        1.78731808246749       -0.79348016122360
H            8.62715121439503        1.83511494967663        0.77943733782285
H            9.16002099679757        1.18962746338863       -0.79048249540254
H           10.03687819966192        0.75177680215084        0.70783811898264
H            7.06569086525636       -4.23492866200558        1.60874770932308
H            5.44998142915218       -3.50019547758136        1.72375744469888
H            6.04257657053985       -4.06356520607523        0.14676943563585
H            4.42410390055508       -2.39915053294294       -0.06181217509590
H           -0.20147131237082       -1.67582461045730       -1.61749451622959
H           -1.02038315623978       -1.30966136328682       -0.08036270489036
H            0.55192450849169       -2.12562961925227       -0.07385720043086
H           -4.67526947487662        2.92488456078922       -0.11304100515137
H           -3.63467252761109        3.04432044569415        2.73929122940129
H           -4.79234971900271        1.88368712629395        2.13006623218885
H           -5.23380475204129        3.61917017878190        2.23214338476416
H           -2.58965565702466        4.69287467622409        1.21118218187522
H           -3.07283485157940        4.74728622815605       -0.50462876961225
H           -4.21005017179283        5.20130308387738        0.74888214764334
H           -0.58685027363944        3.05890899631078        2.71279519132399
72
 energy: -1.627453066098 xtb: 6.6.1 (8d0f1dd)
N           -1.42089877663948        3.19424281536645        2.14068549136260
C           -1.62238004697198        2.17578233551918        1.42609376915207
C           -2.75409741276787        2.05104204822760        0.40554654369903
C           -3.38936447489335        0.67454777848600        0.41054629602436
C           -4.25415356509606        0.24294616755339       -0.59397787043538
C           -4.80271202110354       -1.02490950927899       -0.57297369845578
O           -5.69298703640827       -1.54108173798676       -1.46340725272010
C           -6.07096845746157       -0.66651632821183       -2.46877643715335
C           -4.48132061375161       -1.92089918985580        0.44960826764541
O           -5.08488786637673       -3.14053342574505        0.35596500878214
C           -4.82382745973319       -4.04439658785243        1.38825416591529
C           -3.60739677010396       -1.49526341328850        1.42031412831237
C           -3.07861311259862       -0.21693231499757        1.40026656956986
C           -2.12934633239452        2.26118939309468       -1.01652658525075
C           -1.23693854667110        1.13319486493620       -1.56633592669572
C            0.02754470156313        1.04326133008439       -0.79812835960213
N            0.62287948449854       -0.14026619842024       -0.40245757931128
C            2.01696972188241       -0.14509164868427       -0.08688381826859
C            2.91194465024927       -0.54971953017492       -1.26405666114570
C            4.34915670453589       -0.41903089702389       -0.87183613171774
C            5.04948703161183        0.75902542020676       -1.04848687041961
C            6.36753988393950        0.87872413576206       -0.62813636142819
C            7.00027339256161       -0.17718383282422        0.00667592353096
O            8.28518375466788       -0.17475969550189        0.46458133023887
C            9.05173084658729        0.98422374139710        0.25081095517703
C            6.28916047431175       -1.37731941213392        0.21616908249555
O            6.99086696542152       -2.36111250177085        0.85504753399931
C            6.35864201061997       -3.59603597076508        1.05186413358616
C            4.98708401072584       -1.48421361479787       -0.23896772167971
C           -0.04289930290380       -1.40528318714922       -0.54225108120260
C           -3.86955756940265        3.09923191446353        0.65565421822242
C           -4.38952184367442        2.98567314010340        2.07797733927915
C           -3.39497054668355        4.52581417320720        0.46493344569297
H           -4.47281517719727        0.91831316756073       -1.39573691610979
H           -6.50035484415517        0.24380967613842       -2.03631153125371
H           -6.81012140868410       -1.20535496075944       -3.04777677880126
H           -5.21258549357398       -0.35941788888611       -3.07353208568071
H           -5.10629901856905       -3.60654363225523        2.34470255185749
H           -5.39742660777208       -4.94419800045330        1.18911010811996
H           -3.75887387635172       -4.30958395579192        1.42686639236834
H           -3.29060847471254       -2.15740047144626        2.19369999444890
H           -2.36276619854314        0.09550656485351        2.13447310222496
H           -2.92926341636684        2.41303427160586       -1.73300169869913
H           -1.52568969067267        3.16115589808804       -0.97259053705165
H           -1.78032894863817        0.19163412669017       -1.53723884351469
H           -1.01982268682671        1.35190146195374       -2.62766341060885
H           -0.86484306452224        1.42271762040412        1.24036042244439
H            0.66661235575282        1.91200257595172       -0.83324099716441
H            2.19731706656545       -0.81301826132585        0.76153529386946
H            2.30941044734294        0.86181385799037        0.19742393766611
H            2.66554456852034        0.11018516443997       -2.08903431271909
H            2.66510061172245       -1.56856340394779       -1.55296208701428
H            4.57352531966185        1.59987337547502       -1.52433216851480
H            6.89047970976736        1.80738922626275       -0.80435226648402
H            8.61573924273994        1.84963971584651        0.75574151302355
H            9.14197951999497        1.22122233548585       -0.82030778641425
H           10.03430546339731        0.78166539188041        0.67232676636168
H            7.08077237758853       -4.23117308276809        1.56399751228107
H            5.46599910189640       -3.49775030257503        1.67817666731548
H            6.05476835705665       -4.05076776834733        0.09993013700923
H            4.43445296892451       -2.39733388933651       -0.10004832149916
H           -0.18310795017427       -1.70295283264556       -1.59126284114052
H           -1.02302803788643       -1.35275800534177       -0.06147456627150
H            0.54968696409387       -2.16963321127428       -0.04201639151941
H           -4.68903647249354        2.89188087269485       -0.04548992378425
H           -3.56404989698390        3.16570986736806        2.75762046947147
H           -4.74122756295841        1.97310595891583        2.23923583164030
H           -5.16480149539202        3.72759754994157        2.28007357047556
H           -2.57770016888544        4.70432193063191        1.15812669370579
H           -3.10037660398941        4.70518904476290       -0.55884566958062
H           -4.19755557930129        5.21073037705385        0.70118264710935
H           -0.55827501159348        3.23313987156815        2.68080250343512
72
 energy: 2.555755444887 xtb: 6.6.1 (8d0f1dd)
N           -1.35090222694879        3.29348759708484        2.05070154159263
C           -1.63348430307382        2.18936705573214        1.50498460278152
C           -2.75013313606114        2.04616122842454        0.46042732052949
C           -3.41183142940506        0.68206103971758        0.44217816421644
C           -4.22168276735644        0.23815014500018       -0.60238000608079
C           -4.77836833975816       -1.02651480922755       -0.58916637492835
O           -5.63341278866079       -1.55734629275468       -1.50102396909337
C           -5.94101294480922       -0.69012281774671       -2.52903884119210
C           -4.51642159774957       -1.91244277716761        0.45312706791940
O           -5.12249446746858       -3.12836437572293        0.33775921693369
C           -4.89673320027043       -4.02374717605803        1.38334311187241
C           -3.68476218570403       -1.47882077302159        1.45306630475937
C           -3.15782603975687       -0.20196208770803        1.44843006747201
C           -2.09593837736235        2.24628409073817       -0.95216946949153
C           -1.22424119412193        1.10350250337645       -1.50046376271167
C            0.03022390490705        1.00016079222001       -0.72034883782936
N            0.62098597213240       -0.18421250181298       -0.32912055878950
C            2.02213949972643       -0.18866311596287       -0.04806542061794
C            2.89408135506488       -0.54543857106455       -1.25177234599426
C            4.33579293052392       -0.40617896492346       -0.88162423478000
C            5.02836772349635        0.77737120867523       -1.05053905167951
C            6.35228679639786        0.89753050726865       -0.64639933282703
C            6.99701949004106       -0.16125273005058       -0.02749664787804
O            8.28512633481191       -0.15775235447426        0.42244075071943
C            9.04439618747421        1.00781225277699        0.21561474294795
C            6.29375512732254       -1.36680339289803        0.17602261093166
O            7.00485707318955       -2.35196294567728        0.80431016170441
C            6.37746852285127       -3.58948152913871        0.99880032038724
C            4.98960345769908       -1.47605364466323       -0.27331416081673
C           -0.03812107725192       -1.44756714047579       -0.50539796225488
C           -3.86085474840167        3.10498112806773        0.69455430495100
C           -4.33168537293251        3.06782548154862        2.13701389668020
C           -3.39616304627168        4.52051027243403        0.42503022900200
H           -4.39699380749746        0.90491634060699       -1.42012630532029
H           -6.36848188687762        0.23248403574610       -2.12249390563611
H           -6.65967550272562       -1.22664225530771       -3.13029215795593
H           -5.04349309353830       -0.39958446490246       -3.08271376113534
H           -5.20492880213738       -3.56980501292574        2.32244713416889
H           -5.45944914133122       -4.92810408766749        1.17708214091951
H           -3.83359030252104       -4.28620058696610        1.45836797858513
H           -3.38961207799811       -2.13690427650272        2.23389942936271
H           -2.46530547122327        0.11760293724766        2.19713826282828
H           -2.86843293355006        2.42213265066119       -1.68625620408168
H           -1.46993054258757        3.12752921410335       -0.88089135431222
H           -1.77782311332192        0.16799748805945       -1.47055946766528
H           -0.99850498369936        1.31325778373244       -2.56117973267116
H           -0.95826931296976        1.34817427729254        1.47845945914249
H            0.66877968817468        1.86915085515852       -0.74007866393509
H            2.22537023831937       -0.87748092897175        0.77639384013242
H            2.31471821716649        0.81240454632764        0.25060574681776
H            2.62503300776416        0.13411553255579       -2.05196237164116
H            2.64766571058354       -1.55522272388270       -1.56630129668795
H            4.54272334283489        1.62111216258216       -1.50982840469864
H            6.86994203835605        1.83021426708573       -0.81891001890893
H            8.60454364302755        1.86514289529396        0.72908111517000
H            9.12501153211813        1.25669125365780       -0.85446346058088
H           10.03079498625975        0.81206727893512        0.63168340633904
H            7.10069007691062       -4.22658005733711        1.50737983796522
H            5.48712432198081       -3.49565018078201        1.62850454285868
H            6.06688069731359       -4.03858565204214        0.04588855386709
H            4.44432183076646       -2.39430865984299       -0.14261145431257
H           -0.16081222831089       -1.73084186211639       -1.56079586580378
H           -1.02547137590283       -1.39956693542542       -0.04085803576508
H            0.54766455904741       -2.21725089997867       -0.00643065184568
H           -4.70276713330363        2.85522025533533        0.03619730357087
H           -3.48862250233744        3.29699854141264        2.77631807862972
H           -4.68074413616648        2.06452794070060        2.35650578743732
H           -5.09167226039939        3.82612319881821        2.32900487046868
H           -2.56346608966666        4.71413711268795        1.09710501442962
H           -3.13875509080711        4.66170384894491       -0.61458865705369
H           -4.18755233909064        5.21579140404507        0.66309355264628
H           -0.52276387782492        3.36109877555507        2.64110347821996
72
 energy: 5.386208790103 xtb: 6.6.1 (8d0f1dd)
N           -1.25960182713309        3.33805793008688        1.94363616412147
C           -1.61665054827141        2.19472795047771        1.53297960284417
C           -2.74181751607074        2.03726371589510        0.50023900895037
C           -3.43091405863362        0.68689598000713        0.46890462834165
C           -4.18365846742213        0.23018069641309       -0.61230155428475
C           -4.75181872955170       -1.02920812794382       -0.60557819440807
O           -5.56778172073444       -1.57399123393576       -1.54022960838325
C           -5.80257314098517       -0.71737197961986       -2.58902410527827
C           -4.55524559176077       -1.90274564493265        0.45665322800248
O           -5.16244684687438       -3.11509997890580        0.31983240341272
C           -4.97737361013715       -4.00200583100740        1.37838056898923
C           -3.76939639432942       -1.46010775818361        1.48597999627628
C           -3.24230325323862       -0.18513385296157        1.49489751486579
C           -2.06227775444912        2.23121314298028       -0.89798579930762
C           -1.20920204249707        1.07048172010376       -1.42958584910308
C            0.02972563601793        0.95515225294266       -0.62724692581901
N            0.62004739340773       -0.23156231225871       -0.25027817541631
C            2.02774908940685       -0.23392251378681       -0.00514992749999
C            2.87293622444810       -0.53854634790532       -1.23624910762437
C            4.31946936366910       -0.39112927674057       -0.89083726765966