25
 energy: 0.000000000000 xtb: 6.6.1 (8d0f1dd)
C            3.23720132972391        1.16630909158653        0.08434468864950
N            2.29877796055224        0.07527476373246        0.03981602671198
C            2.58028186251803       -1.21425391179017        0.03006175752192
N            1.43813944744728       -1.93419254010258        0.00098261751768
C            0.39035684826767       -1.05887462812143       -0.00790371763344
C            0.93510047688824        0.21347817468824        0.01709077332874
C            0.09450143016486        1.40504290868848       -0.00410946993748
O            0.49712746915594        2.54126690785742       -0.00342325656480
N           -1.25076628431515        1.06271869620815       -0.03085477937476
C           -2.21907191394203        2.15522079838987       -0.05001256521996
C           -1.81739470187490       -0.20012724136556       -0.04692818139228
O           -2.99983858926755       -0.37846413507442       -0.07008877579474
N           -0.92618577614240       -1.30210203518959       -0.03682761236648
C           -1.46982251276835       -2.64643077634382       -0.06029819901142
H            3.71247229913541        1.21471443890471        1.06488839270555
H            4.00791460421487        1.03430799217987       -0.67357688121503
H            2.69909982127087        2.09770098766290       -0.09130154035862
H            3.56654087521359       -1.63682977417947        0.04233139674524
H           -1.67107945562430        3.09322822573871       -0.02552706696334
H           -2.82428927394145        2.09428605349656       -0.95318074103337
H           -2.87644002486466        2.07745706351925        0.81450059976605
H           -1.17061985538665       -3.19584861009707        0.83242224714061
H           -1.14560246782873       -3.17511580834413       -0.95688266944647
H           -2.55549768731684       -2.55659960601237       -0.07459039105944
H            1.38130842369251       -2.94313824728853       -0.01389874052104
25
 energy: -5.514502001996 xtb: 6.6.1 (8d0f1dd)
C            3.25255902688899        1.19345806545887        0.07405564482575
N            2.32844589793825        0.09922339369723        0.01422431481056
C            2.65381898468760       -1.25575868471454        0.02188219952975
N            1.44831551010852       -1.95019541284473        0.00231841151109
C            0.41838909936029       -1.07194976150278       -0.01572428232053
C            0.93585755271067        0.21502882357913       -0.00862434255263
C            0.11838377752099        1.36801015506303       -0.00609063277339
O            0.48556593075839        2.54572190404689        0.00209903019071
N           -1.27149492300272        1.03701077533052       -0.02476460414263
C           -2.21978833910926        2.14108025305016       -0.03704698598753
C           -1.82136521124737       -0.20622710186383       -0.04539912557971
O           -3.02114225777683       -0.39249431194369       -0.06786285879924
N           -0.93219332598383       -1.30455334860926       -0.03968625388159
C           -1.48495849895410       -2.63870524281613       -0.06421856532189
H            3.63918556389218        1.30743691510650        1.09292583035935
H            4.11918118242703        0.96864062463377       -0.56339469801271
H            2.71419084416666        2.10283753056273       -0.18894322842987
H            3.63943407441540       -1.66582008072878        0.01680000635777
H           -1.65497567877743        3.07174555408443       -0.01228541201268
H           -2.82914817742798        2.09800470872675       -0.94010585011225
H           -2.87780266728692        2.07205537873271        0.82943389797858
H           -1.19149833226196       -3.19672258549358        0.82688549338392
H           -1.16586082261356       -3.17256802743532       -0.96182018913273
H           -2.57071518399246       -2.53735815534534       -0.07744500219759
H            1.34222658288220       -2.95061296263147       -0.00928312527428
25
 energy: -1.666120244627 xtb: 6.6.1 (8d0f1dd)
C            3.26511698462723        1.21529313350568        0.06149848031371
N            2.35558187052677        0.09756572767060       -0.00480313777168
C            2.71425007606834       -1.27116524926413        0.01553991830701
N            1.48269175242454       -1.96307306068699        0.00748074427635
C            0.44156768592953       -1.08767883986162       -0.02323941874086
C            0.95518960522834        0.19725015827975       -0.02884975081132
C            0.12173301579874        1.34065923794089       -0.00874919677996
O            0.48198472059292        2.51745308877779        0.00942928569330
N           -1.27474853377009        1.01923803922751       -0.01981814043487
C           -2.21841612764436        2.13104602297548       -0.02286073047120
C           -1.82252739558499       -0.22292804081003       -0.05012625591824
O           -3.02427675277065       -0.40695454020457       -0.06691638943728
N           -0.92142953110067       -1.31475443757916       -0.04741859027894
C           -1.49712141019020       -2.63891257394026       -0.07132833741748
H            3.55385194795081        1.39972174112794        1.10900100826560
H            4.20918916154677        0.90686740068008       -0.44995863222466
H            2.73676568341283        2.10097917620663       -0.29172340732074
H            3.70724989648753       -1.67991251701036        0.00402627298680
H           -1.64529330579110        3.05722248659398        0.00299208832626
H           -2.83209273023422        2.10363610793436       -0.92443972561092
H           -2.87804482634743        2.06743592697674        0.84388675891573
H           -1.21421365577245       -3.20497338944603        0.81681191541513
H           -1.19062920371310       -3.17360209887645       -0.97167009722591
H           -2.58261146096914       -2.51907600265996       -0.08102651548867
H            1.31744867260195       -2.95703626736159        0.00984830024264
25
 energy: 4.914422239794 xtb: 6.6.1 (8d0f1dd)
C            3.26631157461313        1.23692237623852        0.06359973968080
N            2.37848606312184        0.09859693232880       -0.02142965444873
C            2.77688057681773       -1.27556806886105       -0.00295666134596
N            1.52020392934753       -1.97872136076223        0.00107231766934
C            0.46596215339677       -1.10762878658425       -0.02677186981479
C            0.97351116952785        0.17508321819193       -0.03267457580067
C            0.12591458566428        1.31105784084001       -0.00868137419467
O            0.48488210244794        2.48554378388251        0.02129841444962
N           -1.27753374145979        1.00163620954898       -0.01632935451846
C           -2.21516698543507        2.12219151764195       -0.01092431735044
C           -1.82066492577779       -0.24079398470183       -0.05068486367808
O           -3.02461572065906       -0.42332800241984       -0.06814694659281
N           -0.90715714409583       -1.32767194498130       -0.04774393805146
C           -1.50751566661936       -2.64043438205959       -0.07498288836202
H            3.47112155807968        1.48454196695308        1.12240566706202
H            4.27972733777389        0.86373796233568       -0.31837867815552
H            2.75796468660364        2.09744489963060       -0.37779476793334
H            3.77794404510531       -1.67989549317905       -0.01945080006068
H           -1.63391534816744        3.04400518206150        0.01622334098103
H           -2.83236174761177        2.11092389135021       -0.91145791655372
H           -2.87608395895958        2.06292188303874        0.85609380593750
H           -1.23212401334945       -3.21473835743201        0.80840847882316
H           -1.21365500866972       -3.17495866441478       -0.97859466969990
H           -2.59254649581467       -2.50198696306484       -0.07861701190144
H            1.30185379187608       -2.96614501205110        0.03627317350374
25
 energy: 12.231622427523 xtb: 6.6.1 (8d0f1dd)
C            3.25956093823746        1.26218249445036        0.07519718154351
N            2.38765623328009        0.11835226440432       -0.03559326989127
C            2.81159988847340       -1.23867676910463       -0.00485788518782
N            1.55047398155639       -1.98580364067426       -0.01103246107727
C            0.48488514488039       -1.12110136915198       -0.02874071811297
C            0.98063139874019        0.16443018390128       -0.02859913611147
C            0.12105315896481        1.29741047700564        0.00373439504519
O            0.48872426169028        2.46763201679973        0.04403188243749
N           -1.28506760345419        0.99284960819730       -0.00855861965970
C           -2.21672202678014        2.11678316777591        0.00441710670708
C           -1.81711035126112       -0.25353723044637       -0.04700569514545
O           -3.02237470055381       -0.43957028109320       -0.07271430768539
N           -0.89415902596092       -1.33682923893469       -0.04634136920342
C           -1.51740148666176       -2.63978212024044       -0.07988939768899
H            3.38205595838309        1.57252666661404        1.13243699664521
H            4.34065349912186        0.82351125267581       -0.17230792416189
H            2.78329411732371        2.09423317049652       -0.45878354173215
H            3.82804726635197       -1.65384892875077       -0.03765095878306
H           -1.62617505764538        3.03323467717206        0.03420419906487
H           -2.83537219048686        2.12045867583027       -0.89596665828794
H           -2.87683684146948        2.05583261374658        0.87202373151856
H           -1.24938943666570       -3.22399852711929        0.79790110321055
H           -1.23572633067612       -3.17280521340989       -0.98769226091329
H           -2.60183524448779       -2.48440832989245       -0.07473713381382
H            1.29669577194006       -2.97178828252553        0.04805718248533
25
 energy: 18.829238341757 xtb: 6.6.1 (8d0f1dd)
C            3.24266090348009        1.28677716694912        0.07934001045989
N            2.38787333865982        0.14247383321313       -0.03927061732442
C            2.83548979197572       -1.18956596377416       -0.04644463388215
N            1.58568892039380       -1.97459388127428       -0.03006790963808
C            0.50041687925178       -1.13240510398094       -0.02945700613721
C            0.98190832153938        0.15743831014988       -0.02251842342806
C            0.11524607921491        1.29123034145357        0.02329501087387
O            0.50280011657155        2.45531714093905        0.07720898778614
N           -1.28385811502516        0.99401318801420        0.00247461407531
C           -2.21766366457711        2.11467118727566        0.01942579829098
C           -1.80761011026031       -0.25969712169012       -0.04168933208221
O           -3.01366854372414       -0.45084406548571       -0.08310287089242
N           -0.88300869663928       -1.34583605972384       -0.04272153448379
C           -1.52989229851112       -2.63833895696745       -0.08352651937481
H            3.29429608625286        1.65937436106859        1.12704636100665
H            4.37471239667163        0.79972310589467       -0.02317583991432
H            2.81192636246642        2.09183299360829       -0.53778488066188
H            3.87275362598527       -1.60783861982902       -0.04622970938799
H           -1.61944392370170        3.02591018030973        0.05246172626973
H           -2.83591704044031        2.13051643721997       -0.88216050138875
H           -2.87958069919969        2.04954995597383        0.88549904717487
H           -1.27086841313907       -3.23284528425472        0.78896788299935
H           -1.26011041029142       -3.16987454141975       -0.99550091187390
H           -2.61309972122499       -2.46532365673048       -0.07053147543448
H            1.35324241792991       -2.96692254066482        0.03326826146900
25
 energy: 28.616021938376 xtb: 6.6.1 (8d0f1dd)
C            3.22264259339203        1.31058071419961        0.08212301418215
N            2.38262708461015        0.15699557551769       -0.01231287572221
C            2.86519393140070       -1.14442998578720       -0.10897198818880
N            1.61296449612347       -1.96088773828001       -0.04513762448623
C            0.50952099000914       -1.14361029395936       -0.02548176564801
C            0.98253998041189        0.14860068750482        0.00030254582195
C            0.11248865211047        1.28250405462164        0.05216757593477
O            0.51436666714246        2.44268235582252        0.11942963862920
N           -1.27600807582682        0.99172565788299        0.01399887225334
C           -2.21767918940785        2.11119738716167        0.03175317637932
C           -1.79491861547308       -0.26325797596137       -0.03551550678377
O           -3.00138561043840       -0.45438623727148       -0.08901435079305
N           -0.87351899746781       -1.35501537921174       -0.03489649288200
C           -1.54221812018119       -2.63723100314316       -0.08540179660207
H            3.22774432234739        1.74247064387068        1.10921232735512
H            4.41329881422753        0.77157950236445        0.10392265807359
H            2.84868231608028        2.08517915529352       -0.61230969352399
H            3.92037042248845       -1.54581481502244       -0.07268519270622
H           -1.61598329284303        3.01970248102099        0.06976298714007
H           -2.83324515668794        2.13840633579817       -0.87300361462902
H           -2.88696743009657        2.04158181455153        0.89244763552575
H           -1.29150300046035       -3.24084625927149        0.78251169216421
H           -1.28245682727403       -3.16709643590151       -1.00122311127880
H           -2.62387674044567       -2.44847522980895       -0.06554940088792
H            1.40165283339696       -2.95664253571453        0.03546384979792
25
 energy: 44.830614173750 xtb: 6.6.1 (8d0f1dd)
C            3.19058465384118        1.33090378452622        0.07231179447843
N            2.38031183234356        0.15789622297848       -0.01942126434101
C            2.89545928047792       -1.13642080952501       -0.13678074337119
N            1.61905396695734       -1.95275875572298       -0.06025806030779
C            0.50673800261238       -1.14700029743438       -0.02000941387147
C            0.98161624887731        0.14471337055574        0.02238967675047
C            0.11336244124271        1.27784025553800        0.07346344424925
O            0.50638084733778        2.44245352829359        0.13991046734799
N           -1.26697052365518        0.99252515914792        0.01986086180825
C           -2.21490578481244        2.11285123685380        0.04515559567337
C           -1.78902718569645       -0.25798539942404       -0.03254211967765
O           -2.99429147577743       -0.44447989570781       -0.08865340228817
N           -0.87609639892756       -1.35873458470217       -0.02851319826508
C           -1.55863683170449       -2.63452290577445       -0.08768618919700
H            3.15517602089389        1.81548013544874        1.07835398891014
H            4.50528768647777        0.71189097416268        0.22045262959591
H            2.88276358461962        2.07624085940728       -0.68608557036929
H            3.94288550873046       -1.48594894341867       -0.09549003227260
H           -1.60831182398918        3.01623006366142        0.08937480195050
H           -2.82972628960613        2.14966302986222       -0.86073415141752
H           -2.88970051347535        2.03540176635925        0.90242009321165
H           -1.31511518007679       -3.24630594169243        0.77647091269657
H           -1.30806739699558       -3.16372512415542       -1.00703820681266
H           -2.63807611633910       -2.43072149868458       -0.06225230383030
H            1.42397099665553       -2.95294709844751        0.00653093327220
25
 energy: 87.918201362435 xtb: 6.6.1 (8d0f1dd)
C            3.07967523448643        1.39531095941688        0.03595022508088
N            2.37016242469917        0.17243227740203       -0.04449411195399
C            2.92654488914052       -1.09209980906676       -0.16503458899969
N            1.61683812260625       -1.94570406240739       -0.06997611495522
C            0.50045230130897       -1.14751671063012       -0.00309518470318
C            0.97562754937706        0.14337539614768        0.05486666942481
C            0.10917830380451        1.28266522931997        0.09561065429581
O            0.48084544105655        2.44761374259539        0.14086791189278
N           -1.25986014912213        0.99323721676322        0.02567427306685
C           -2.21034215668509        2.11609481117955        0.05617759808351
C           -1.79161694350410       -0.25468710321700       -0.02645412157998
O           -2.99372283024850       -0.43130917803024       -0.08740119882839
N           -0.88458124737974       -1.35914026858599       -0.02450020134036
C           -1.57767121114504       -2.63187964834804       -0.08856635118463
H            3.07097499296245        1.88992730341107        1.02954802022177
H            4.77489066033135        0.53392784618595        0.37958816736197
H            2.90734827967348        2.08798967189118       -0.77602338839768
H            3.96833977094754       -1.40643010002562       -0.11240045467658
H           -1.59790332472701        3.01287924372171        0.10514008796303
H           -2.82609858386902        2.16476576420490       -0.84954570142120
H           -2.88493436794703        2.03798964447366        0.91436577708621
H           -1.34273532979824       -3.24989503905555        0.77361553397038
H           -1.33410215561036       -3.16149515810181       -1.01008583064958
H           -2.65491630401043       -2.41401191487328       -0.06186742404363
H            1.41416201252151       -2.94737511016169       -0.04616727090715
25
 energy: 121.263723231279 xtb: 6.6.1 (8d0f1dd)
C            2.99226422829448        1.44346892023372       -0.00741694438060
N            2.38054521925288        0.18200532008415       -0.05967708448636
C            3.03235886240885       -1.01424853702208       -0.13904725510688
N            1.60651495674241       -1.95524193975298       -0.06870583315951
C            0.50261687918436       -1.15317068132045       -0.00041386058124
C            0.97625391666347        0.14230435319689        0.05832298500029
C            0.10723004208457        1.29049979950611        0.10037980810136
O            0.45844028085312        2.45306295205438        0.14079202831255
N           -1.25634637183893        0.99034964413057        0.04113992716901
C           -2.20496927228147        2.11359443511884        0.06603539915144
C           -1.79974082874075       -0.25016512678982       -0.02169586745772
O           -2.99911240379731       -0.41126004953296       -0.08320224763703
N           -0.89790456485070       -1.35633475582819       -0.02833829154555
C           -1.60103395389264       -2.62655043618953       -0.09008871046336
H            3.00771395533034        1.95613976334194        0.97541849964731
H            4.93440486494380        0.31189351310103        0.50173549861327
H            2.92224430767356        2.09062958988599       -0.85189620249669
H            4.06501001054820       -1.32369280886975       -0.10891353586231
H           -1.59319498909860        3.00886355564602        0.12200911649108
H           -2.82080896107880        2.17121501673877       -0.83669759127557
H           -2.87909185058649        2.03002259761843        0.92125028073438
H           -1.36895292964595       -3.24712309178464        0.77162682120803
H           -1.35867289299131       -3.15813780626974       -1.01175128253287
H           -2.67914382680796       -2.39975432657411       -0.05822424155485
H            1.36851709412471       -2.95274868540443       -0.08013338771708
25
 energy: 128.473876767855 xtb: 6.6.1 (8d0f1dd)
C            2.82494502030744        1.56227272783007       -0.04094836665696
N            2.43093932863665        0.20303171925467       -0.03016464975761
C            3.52576433727373       -0.62155665821298       -0.03481396584731
N            1.43534739040495       -2.05562897381856       -0.04910068939671
C            0.48196931560235       -1.20494594328546        0.00483483818564
C            1.00510114415890        0.12656448215928        0.05431049889103
C            0.12136663966208        1.27633260046973        0.09147640491672
O            0.45951938457242        2.44962517775505        0.13867633715204
N           -1.25101860250495        0.99072667651636        0.04633268555107
C           -2.19350464075390        2.10984312211016        0.07680516263294
C           -1.80875252102216       -0.25817974733433       -0.01909619674892
O           -3.01102632636091       -0.39374467707632       -0.08295001460826
N           -0.93333551327745       -1.34125036912688       -0.02380138644800
C           -1.62015695659657       -2.62335308621118       -0.09539238098721
H            2.94796280000984        2.02805987654820        0.92206386346343
H            4.87967480576765        0.09251929766254        0.49525041840174
H            2.96532846488425        2.06069563058668       -0.95253621769936
H            4.13565250679204       -1.47859540072739       -0.15279556965509
H           -1.58997005988920        3.00819018734242        0.14494330409648
H           -2.81291759926613        2.17291957896299       -0.82552838288379
H           -2.87405068591975        2.01580592314774        0.92599402399395
H           -1.38861450236270       -3.24376606614344        0.76811995628761
H           -1.37173755531180       -3.15257586109082       -1.01731296894652
H           -2.69215363907250       -2.39478507604789       -0.07830778224930
H            1.20966148439687       -3.03002813087107       -0.08090038401333
25
 energy: 131.495822989371 xtb: 6.6.1 (8d0f1dd)
C            2.77070702009388        1.57894822028587       -0.06475824435588
N            2.46250162941328        0.21155280487608       -0.01385991192777
C            3.64336854585445       -0.57168097994935       -0.03241278526817
N            1.40697402158158       -2.07775315301058       -0.04902613258566
C            0.46898289758478       -1.20849943971747        0.00718534193316
C            1.00404883489778        0.11531009636399        0.06683555043140
C            0.11272342688845        1.26868442336371        0.08194983025846
O            0.45345048044201        2.43926373630557        0.12354544846073
N           -1.26218890147318        0.98739769386890        0.05011454587328
C           -2.19711293088453        2.10903083501322        0.08684601406063
C           -1.82445721444191       -0.25691138316677       -0.01469597658921
O           -3.02590355846425       -0.39798173262284       -0.06796051138899
N           -0.94770509155691       -1.33879422389499       -0.02699942622462
C           -1.63660398766600       -2.62209478168197       -0.09784897544444
H            2.85348460939872        2.09045896293154        0.88040201878582
H            4.97923227213640       -0.00174908579954        0.54324264654026
H            3.02094786283169        2.02505390703043       -0.99072711138412
H            4.15185399708492       -1.48802944906519       -0.14720079024211
H           -1.59172534458882        3.00618352371668        0.16104725587510
H           -2.80888539380293        2.16936188751110       -0.81944781174135
H           -2.87458426861089        2.00368308090245        0.93437633749959
H           -1.41427688409397       -3.24391311391922        0.76840063203374
H           -1.39418711885148       -3.15338040322498       -1.01999204425858
H           -2.70691156958163       -2.38289583201968       -0.08933093359581
H            1.15734908349159       -3.04448983866609       -0.09218440235273
25
 energy: 144.281678299967 xtb: 6.6.1 (8d0f1dd)
C            2.73003717152433        1.58446960983400       -0.07652970018380
N            2.48514327280014        0.21215228669410       -0.00198718970223
C            3.72890611306097       -0.55869662125365       -0.02938578060671
N            1.38209241001799       -2.09637382210210       -0.04313754309135
C            0.45791535638346       -1.21281359746800        0.01136460311033
C            1.00469143713022        0.10075200454726        0.08020452669523
C            0.10438233768492        1.25885196540150        0.07905809552371
O            0.47757983124395        2.42563040246523        0.11632828387268
N           -1.27254866576398        0.99243850054596        0.05596268483542
C           -2.20630657555721        2.11371336770787        0.09355762210749
C           -1.83694674537943       -0.25554776679052       -0.01127704992307
O           -3.03847932941297       -0.40091082831197       -0.05838886081346
N           -0.95653146895469       -1.33316637063408       -0.03092213140422
C           -1.65252989973891       -2.61757762038896       -0.10278025527252
H            2.76271873836479        2.13725170499758        0.84738851609140
H            5.10542984669579       -0.09401548162846        0.54901838662303
H            3.07933184337776        1.96931009125990       -1.00392299979322
H            4.22394168431401       -1.48766644566956       -0.13266902129891
H           -1.60912937641942        3.01627973371455        0.16984805182973
H           -2.80827271198775        2.16051450855924       -0.81752752861143
H           -2.88016930806527        1.99669590995936        0.94181269431986
H           -1.44128967857669       -3.24201596912509        0.76547839639216
H           -1.41622110650544       -3.15216380150195       -1.02345724634997
H           -2.71961963450290       -2.36818073285599       -0.10398222641887
H            1.11009050076223       -3.05573889356327       -0.09591627943113
25
 energy: 166.721184552457 xtb: 6.6.1 (8d0f1dd)
C            2.61266679052597        1.62395176245079       -0.10533639951896
N            2.21674243452887        0.39727084202912       -0.03839964310340
C            4.21944736787733       -0.62123406578342       -0.14166619128577
N            1.34279678874970       -2.11126189138459       -0.02894462274887
C            0.42673588651707       -1.22105031921948        0.01670228498635
C            0.93012428008084        0.11155616848460        0.09786672787800
C            0.02751287186830        1.27301213467606        0.08263007807341
O            0.49402794481208        2.40950850403692        0.10019075367470
N           -1.31371279482442        1.00836277750315        0.05764923329595
C           -2.23074531150377        2.12797442597089        0.10179548919131
C           -1.86273582619656       -0.25746726976966       -0.00772444939633
O           -3.06322114945532       -0.40424557777763       -0.04322423988617
N           -0.98066321850835       -1.32940003784878       -0.03422028976428
C           -1.67243478734775       -2.61896866592960       -0.10284862160118
H            2.67907672098030        2.19556535096767        0.80365386541970
H            5.31739647576065       -0.28877219040214        0.58763894048848
H            3.13411605879897        1.91287594938133       -1.01180896922674
H            4.43173257123386       -1.64289248315798       -0.07089037140899
H           -1.62204391775536        3.02389828137501        0.18349472904739
H           -2.81727878038481        2.15818458943876       -0.81433437435148
H           -2.89332418506664        2.00581021170963        0.95580170580317
H           -1.46439990414975       -3.24308118754776        0.76725120928120
H           -1.43673185939507       -3.15673771830883       -1.02017732182626
H           -2.73560499742731       -2.36248909287351       -0.11500510310142
H            1.05853042899535       -3.06689496991608       -0.10576917897830
25
 energy: 163.615401126459 xtb: 6.6.1 (8d0f1dd)
C            2.55843721037839        1.63382959908422       -0.11860791251075
N            2.19434568958838        0.39889906867742       -0.04337583919523
C            4.36269629730847       -0.62394163122281       -0.12170424480086
N            1.31225684624977       -2.13051842325322       -0.02250688397656
C            0.40706377028023       -1.22678858988380        0.01647928377199
C            0.91889431359149        0.09847423815728        0.09273736031761
C            0.00902798351228        1.26116079585451        0.07926151164938
O            0.51155924849932        2.39140705830330        0.08594803938288
N           -1.33249245671821        1.01513647862435        0.06014551503011
C           -2.24457052464491        2.13728859245847        0.10528956860046
C           -1.88265356262995       -0.25588939218361       -0.00641746939949
O           -3.08349076056839       -0.40056185595815       -0.04108923127689
N           -1.00125723369000       -1.32548165680296       -0.03581804017517
C           -1.69002027452342       -2.61544169225518       -0.10587462462675
H            2.59821718962966        2.21997186448517        0.76825600462791
H            5.46936239853635       -0.40794864541987        0.54485887032308
H            3.08035716755451        1.94681794139440       -1.02715155365322
H            4.51382957761606       -1.65584165515651       -0.10605391641023
H           -1.63647765165702        3.03522975343778        0.18473751532733
H           -2.83254036090485        2.15676044322179       -0.80802172476872
H           -2.90365000817715        2.01969043033551        0.96206427684261
H           -1.48885583775905       -3.24019560393160        0.76761110074351
H           -1.45773173972604       -3.15917325206939       -1.02087512490673
H           -2.75293145839733       -2.36186191082005       -0.12675302092822
H            1.01035492681372       -3.07981192282119       -0.09936287792339
25