72
 energy: 0.000000000000 xtb: 6.6.1 (8d0f1dd)
N           -1.47310921155849        2.74401293103706        2.22063921685122
C           -1.55658879776851        2.16490285539332        1.13274273951491
C           -2.74549199786261        2.05621232186130        0.23826248438941
C           -3.31377553111525        0.64333411542669        0.32332512650568
C           -4.30230156009016        0.24487110156316       -0.58026161703006
C           -4.85238763031941       -1.02286490450319       -0.53363588718165
O           -5.81419972815119       -1.48606034185536       -1.36157882725342
C           -6.39655633239252       -0.60827000183299       -2.29568474302620
C           -4.39972501531283       -1.94646102182611        0.44396929121966
O           -4.98748311285188       -3.16145997157803        0.41085992006324
C           -4.66362127904578       -4.10093827755394        1.40909127743729
C           -3.42072513477031       -1.54561384810496        1.33436546260297
C           -2.88302799614223       -0.26315800396994        1.27400150770375
C           -2.19303798107274        2.30467000305896       -1.18742977106749
C           -1.26651538239283        1.17243369445008       -1.65249429687285
C            0.01082524939134        1.09745454476277       -0.89354803499847
N            0.61779393476578       -0.02034948052406       -0.57705522512502
C            2.00145210352228       -0.02376006389122       -0.15611399603240
C            2.92554934655222       -0.53865282675074       -1.27700088804721
C            4.35756843073516       -0.43050757231754       -0.83075544324989
C            5.07346135469827        0.73206409086248       -1.03980965825901
C            6.38627986649936        0.84224441421807       -0.60344822702769
C            7.00047264773336       -0.20824756335880        0.05722314418200
O            8.26703657141718       -0.21011313101264        0.52410943644933
C            9.06912227848686        0.92943601033931        0.31863058007678
C            6.27039964270142       -1.40439753960823        0.28033466008274
O            6.94829939911432       -2.38012925705718        0.92751999079483
C            6.31537317745639       -3.61583200086742        1.15217711710877
C            4.96302794628964       -1.49347471867959       -0.16064430359178
C           -0.05511211367372       -1.29906247805359       -0.62085686319744
C           -3.86758037025447        3.07992600430699        0.58498060215443
C           -4.49286159663096        2.77383493050346        1.94313289484366
C           -3.39165179876499        4.52917666589254        0.54797523472093
H           -4.66030026466202        0.94509067363451       -1.31640568823548
H           -6.85037928558380        0.25803162192116       -1.80468845313260
H           -7.17287442604349       -1.18600110843259       -2.79318157561361
H           -5.66836817451085       -0.26952966318766       -3.04040255244073
H           -4.88416720672258       -3.71589460520039        2.40913542187496
H           -5.29223570620378       -4.96637458756866        1.20969236903657
H           -3.61139813139015       -4.39919835331056        1.35529357841967
H           -3.07077796610445       -2.21868765711333        2.10002662693138
H           -2.14562754426994        0.02067850696302        2.01001344383370
H           -3.02188875377605        2.38238012313952       -1.88813545054866
H           -1.65198530896729        3.25146700677685       -1.20556284570283
H           -1.81103374245520        0.23006524641044       -1.62116301628650
H           -0.99335688527853        1.37490212198123       -2.69443256973690
H           -0.67628064361333        1.65183887049447        0.61785727145403
H            0.63525841192517        1.98466369793744       -0.92314021190751
H            2.11132552493482       -0.65949692842762        0.72532613231274
H            2.30680473056284        0.98978251704176        0.11078972794250
H            2.76694198818247        0.06750735147374       -2.17075252200790
H            2.67954581369920       -1.57455627803457       -1.51167743520200
H            4.62169998552446        1.56295612048703       -1.56123579000624
H            6.92357674630170        1.75715815945204       -0.79119596719031
H            8.65159112996149        1.81001823324363        0.81701555159939
H            9.20136171144928        1.14042857828877       -0.74698991949293
H           10.03428838009630        0.69003240176163        0.76064937965836
H            7.05567174969094       -4.23621171795340        1.65347565939075
H            5.43848001056755       -3.50813558175093        1.79970565785717
H            6.02060041905269       -4.09420497120334        0.21253282636366
H            4.40102758497114       -2.40127266373392       -0.00490198249042
H           -0.22071299714579       -1.61775583601871       -1.65116008982042
H           -1.01972258008625       -1.24102717432227       -0.10935206830928
H            0.55899954147532       -2.04486085926761       -0.12333730421426
H           -4.63991875734388        2.95501092798550       -0.18098088071825
H           -3.76095216473977        2.90314704960906        2.73380821053058
H           -4.87457614030224        1.75695641518947        1.97884603101694
H           -5.31925552549014        3.45579210326349        2.12325564252114
H           -2.60025590131176        4.69225046143352        1.27368918226171
H           -3.03987406413880        4.81897652321898       -0.43870975059559
H           -4.22191740670577        5.18069648090034        0.80616693961239
H           -0.59832433787845        2.77744694953323        2.72958984441332
72
 energy: -5.513962547723 xtb: 6.6.1 (8d0f1dd)
N           -1.49412663552808        2.78148279655369        2.23989987176087
C           -1.54877659338314        2.15255194331760        1.15439679443277
C           -2.74303935488725        2.06143490089012        0.24960245306534
C           -3.31199303184928        0.65065101449099        0.33017160797594
C           -4.29531981304534        0.24659724859529       -0.57468291513932
C           -4.84104171703080       -1.02162677322537       -0.52922573896471
O           -5.80618304745332       -1.49176089898981       -1.36804846299047
C           -6.37631488785289       -0.61344102782082       -2.30391357243781
C           -4.39649633793453       -1.93946643364288        0.44849123857214
O           -4.99205539784318       -3.16441623306095        0.41659937115984
C           -4.66824468690211       -4.09450631547906        1.41752173736040
C           -3.42466948748364       -1.53846278476182        1.34443522760186
C           -2.88863160281661       -0.25659641620789        1.28426764309270
C           -2.19066468443025        2.30438989189169       -1.17895705069223
C           -1.26242644187781        1.18078560263358       -1.66758195532082
C            0.00781312185452        1.12992433402441       -0.89939666496554
N            0.63376466163506       -0.04918047063827       -0.56256449137782
C            2.00409591157299       -0.04137093500298       -0.16592479408490
C            2.93073927561758       -0.55614899477035       -1.28935289823601
C            4.35687758299935       -0.44851591164488       -0.85678046059726
C            5.07092127259320        0.71398539276695       -1.07698206779204
C            6.37817373831138        0.83397146006242       -0.63489127135987
C            6.98185826471898       -0.20377934506816        0.04731136214770
O            8.23342339774647       -0.15845354860782        0.57620758531537
C            9.04421190473916        0.96381940367756        0.36153834186839
C            6.27003727165460       -1.40653881882972        0.26383483086029
O            6.95635922307958       -2.39007046775148        0.91281358480496
C            6.31867746870975       -3.62090319749143        1.14144849464595
C            4.96586285782946       -1.50539359227280       -0.17957564018062
C           -0.05385788654463       -1.30534104615353       -0.62153921595808
C           -3.86714986171401        3.07746384988125        0.58763521398830
C           -4.49380348636622        2.77666269192411        1.94724983950853
C           -3.39363438216609        4.52955043020088        0.55156753142074
H           -4.64442368069987        0.94336045240001       -1.31901318748737
H           -6.83173521604718        0.25643640461821       -1.81850292457135
H           -7.15114075468750       -1.19027645115874       -2.80662350860610
H           -5.64341870175420       -0.27501563357835       -3.04443683890135
H           -4.89146144229510       -3.70668912077789        2.41713353280004
H           -5.29572506315192       -4.96229285315289        1.21995020135666
H           -3.61512319023485       -4.39292368218768        1.37054986387226
H           -3.07609630904046       -2.21202134440664        2.11159712602896
H           -2.14973790662803        0.02917293085065        2.01752494440951
H           -3.02227617332151        2.39633736509509       -1.87818398248623
H           -1.64133919196751        3.24730001315388       -1.19209310583234
H           -1.80201834859889        0.23507774867340       -1.62429269144083
H           -1.01429381919146        1.38158236684182       -2.71790492021219
H           -0.68345460886074        1.64863991530448        0.65770770319890
H            0.65349490292753        1.98911499285235       -0.95486587560185
H            2.12532479211946       -0.67192889609754        0.72194403597013
H            2.30555390983174        0.97544117005070        0.09698433893802
H            2.75679521494385        0.04820193962213       -2.18138632738447
H            2.67255714138829       -1.59103618711289       -1.51742637249078
H            4.61333920837419        1.53804614710863       -1.60269958299941
H            6.92009738474199        1.74587294805456       -0.82581873159005
H            8.66836451762341        1.85390185433495        0.88092682187648
H            9.18628514500951        1.19648646417370       -0.69496102229489
H            9.99852382173159        0.65842391933952        0.77375134703339
H            7.05848232230082       -4.24437305286450        1.64184132289431
H            5.44358957082554       -3.51060479019511        1.79141964042679
H            6.01620647980634       -4.10492804213719        0.20612807405870
H            4.40269950383327       -2.41268009569887       -0.01786396150384
H           -0.22662366780780       -1.62656565983087       -1.65488583456699
H           -1.01968033864139       -1.23952580181016       -0.11119951316568
H            0.55457353826467       -2.05629302429278       -0.12241319424466
H           -4.64211752194733        2.95613771311144       -0.17794940906992
H           -3.75452677813499        2.90492225610404        2.73118923398271
H           -4.87160762120727        1.75772942930236        1.98305853710680
H           -5.32164158739158        3.45817288058546        2.12761680168107
H           -2.59957578520079        4.68578026032691        1.27557110424973
H           -3.03844720668639        4.81546957914942       -0.43557427642906
H           -4.22400969634842        5.18333601125424        0.80852373348727
H           -0.60134485618715        2.77639495282690        2.73041868521787
72
 energy: -4.749278943900 xtb: 6.6.1 (8d0f1dd)
N           -1.49682118984956        2.79187600800763        2.24661865162810
C           -1.54822489003885        2.15282800688796        1.16647478309765
C           -2.73886628342307        2.06297237796965        0.25630251682434
C           -3.30882697689928        0.65325102666951        0.33609214818294
C           -4.28713969872141        0.24704014956185       -0.57241188151740
C           -4.83312109768102       -1.02122157669554       -0.52757651116670
O           -5.79270939171542       -1.49422108973766       -1.37162527768856
C           -6.35594665516600       -0.61762070900978       -2.31302682936001
C           -4.39463565450104       -1.93706056597655        0.45412507522444
O           -4.99220767113304       -3.16169227140954        0.42265684194387
C           -4.67351402990963       -4.08917699373844        1.42725742139139
C           -3.42698118741064       -1.53416065760413        1.35373320860626
C           -2.89043267971441       -0.25257783867301        1.29342287904881
C           -2.18508860496631        2.30727142885697       -1.17209495298811
C           -1.26046900221354        1.18412456514990       -1.67049897462996
C            0.01272435171839        1.13258618683112       -0.90575369902526
N            0.63385560197910       -0.05173745810088       -0.56247902978722
C            2.00675699887145       -0.05104327579901       -0.17343467409699
C            2.92730539838046       -0.57232577390743       -1.29997448142899
C            4.35537666148740       -0.46412364461779       -0.87649828229236
C            5.06667607570928        0.69644532858169       -1.11232330446041
C            6.37038615451101        0.82489988382176       -0.66672401289187
C            6.96818871670393       -0.19883520692065        0.03811728568671
O            8.18903585650639       -0.10408469839095        0.62576539493870
C            9.02229099060371        0.99853842777379        0.40314885696962
C            6.27119238290403       -1.41244121461047        0.24815631090346
O            6.96018969263806       -2.39774416877061        0.89459776772961
C            6.32059117367465       -3.62764496210193        1.12945135066193
C            4.96755574840441       -1.51706845667682       -0.19626245183073
C           -0.05625891932368       -1.30777242048140       -0.62147405612623
C           -3.86461347667664        3.07755734816846        0.59131703418381
C           -4.49356717302722        2.77832052898558        1.95013007502027
C           -3.39323829731200        4.53001541567898        0.55462680253241
H           -4.63097903931671        0.94202973710979       -1.32069220561399
H           -6.81359295704249        0.25415348710512       -1.83296932053651
H           -7.12752801154564       -1.19494590478611       -2.82015264026814
H           -5.61742854192376       -0.28115917858717       -3.04863964835712
H           -4.90095517133589       -3.69802258800228        2.42465813291845
H           -5.30040542759454       -4.95741415709912        1.22928162619631
H           -3.62020582647381       -4.38791158809318        1.38619104298218
H           -3.08205604906630       -2.20600087620908        2.12414517650574
H           -2.15425825994637        0.03518362625867        2.02878040590997
H           -3.01754914307251        2.40864890358503       -1.86971286363217
H           -1.63060425418089        3.24706375818727       -1.18104540038344
H           -1.79895713072277        0.23839065795657       -1.62566870714931
H           -1.02154607617276        1.38532390604819       -2.72426885522119
H           -0.68268941782816        1.64521040311124        0.67887826716524
H            0.66058459259465        1.98965764749541       -0.96666745340357
H            2.13236924332013       -0.67877768528715        0.71641824463111
H            2.31000474007057        0.96596341802029        0.08318510434067
H            2.74873642920991        0.02841144370529       -2.19344521932041
H            2.66636753710327       -1.60752552536902       -1.52240193421442
H            4.60543975819433        1.51413992448557       -1.64370006862400
H            6.91649667021769        1.73288913801889       -0.86281153615901
H            8.68889820883202        1.89381615939370        0.94552673014763
H            9.16745636860205        1.25423236026482       -0.64401777283850
H            9.96255547524368        0.62573899317638        0.78328665669242
H            7.06044544145319       -4.25304285530654        1.62793885774206
H            5.44904430685477       -3.51338938662974        1.78339245342012
H            6.01064656060623       -4.11618000246053        0.19862803830300
H            4.40500557240979       -2.42468079434274       -0.03025533521426
H           -0.22948049445027       -1.63087712598802       -1.65458815543109
H           -1.02337931646338       -1.23778739258119       -0.11363512612599
H            0.54875211533050       -2.06094701527114       -0.12034041262461
H           -4.63772452174462        2.95409912013886       -0.17539692436450
H           -3.75314185491508        2.90833761867695        2.73275324138947
H           -4.86983227780732        1.75878416896406        1.98670383170406
H           -5.32268561081786        3.45899042218668        2.12880714619042
H           -2.59989453294772        4.68452596611793        1.27973743014002
H           -3.03599930484476        4.81389944507539       -0.43238705782362
H           -4.22428018628701        5.18422156090120        0.80933852155326
H           -0.60633110869746        2.78441779890802        2.74149969147819
72
 energy: -3.265089838401 xtb: 6.6.1 (8d0f1dd)
N           -1.49952636071927        2.80308710986070        2.25222999589587
C           -1.54695337519945        2.15408967866926        1.17755968974784
C           -2.73451978116563        2.06475936945525        0.26278692623971
C           -3.30502283359022        0.65576500539785        0.34143533618719
C           -4.27849079239351        0.24732848705694       -0.57076280392425
C           -4.82513217076858       -1.02080368060429       -0.52606800389361
O           -5.77939286707025       -1.49651717556830       -1.37510826594104
C           -6.33591618820960       -0.62173240466328       -2.32196804004886
C           -4.39290015680392       -1.93449228113484        0.45986036257213
O           -4.99221742087801       -3.15888364160315        0.42890767283611
C           -4.67838981487302       -4.08381262034096        1.43706618312073
C           -3.42945060266848       -1.52971261114107        1.36311684933271
C           -2.89221324675732       -0.24850950823532        1.30240935583476
C           -2.17947191245292        2.31105933839587       -1.16525669728794
C           -1.25866677676306        1.18770628756115       -1.67312700972322
C            0.01839934606720        1.13453242506323       -0.91392274914686
N            0.63385284651718       -0.05486382026389       -0.56290006577112
C            2.00913490643579       -0.06079067914011       -0.18161235194326
C            2.92319556820438       -0.58857415509706       -1.31101421571481
C            4.35338380145467       -0.47979203716142       -0.89664762828741
C            5.06240176604920        0.67868988966143       -1.14791763745457
C            6.36258205053673        0.81537277397276       -0.69875970720110
C            6.95420975155105       -0.19348884491437        0.02982334055638
O            8.13959119423591       -0.04750421584054        0.67649816843001
C            9.00025863472847        1.03272722664521        0.44532603594818
C            6.27221581576454       -1.41792338462649        0.23265772263873
O            6.96373741658454       -2.40484073242468        0.87684435825922
C            6.32282023083035       -3.63397700034518        1.11786201873488
C            4.96917681924662       -1.52853691114966       -0.21339760574302
C           -0.05936998309003       -1.31018901179401       -0.62267134826881
C           -3.86224010093160        3.07783630258433        0.59525591821139
C           -4.49276477187716        2.77980941683433        1.95357065574875
C           -3.39285943392467        4.53084004332931        0.55782950042639
H           -4.61706394044380        0.94027522470782       -1.32327505150365
H           -6.79558084888174        0.25194689645589       -1.84719545477581
H           -7.10457122151122       -1.19940487840547       -2.83314314980196
H           -5.59215256439050       -0.28741935765536       -3.05308414087822
H           -4.90995152882559       -3.68962902785578        2.43238117173411
H           -5.30468262981809       -4.95249538418832        1.23875223215015
H           -3.62497230226927       -4.38305141125670        1.40172405486457
H           -3.08820631608474       -2.19977551109333        2.13681484952651
H           -2.15861539140992        0.04094413269984        2.03973844701823
H           -3.01323653211365        2.42078452185314       -1.86077299465669
H           -1.62020815958262        3.24781284452814       -1.17003027444358
H           -1.79607996178876        0.24178819728820       -1.62701761863080
H           -1.02895294882650        1.38974623001628       -2.72987307628275
H           -0.68183250643620        1.64119259599337        0.69978585887624
H            0.66956257088609        1.98840186452754       -0.97943756245685
H            2.13923175330701       -0.68608245366158        0.70974090294698
H            2.31546207533524        0.95608087448657        0.06936559496490
H            2.73964051474022        0.00868624173864       -2.20569367971112
H            2.65911928715058       -1.62393846437987       -1.52763837921556
H            4.59792665856508        1.49042170996999       -1.68472604112016
H            6.91288940753315        1.71966927277233       -0.89909558449543
H            8.71124489083515        1.93179682339634        1.01044746348439
H            9.14698636821377        1.31260300026589       -0.59238583440826
H            9.92238066698328        0.59418528177282        0.79271598397330
H            7.06321986393264       -4.26065739716256        1.61443314983511
H            5.45487319840452       -3.51615209948977        1.77580964035172
H            6.00603164183505       -4.12707474423818        0.19144617012942
H            4.40723868055098       -2.43640567792415       -0.04308266872333
H           -0.23385867862795       -1.63447666910898       -1.65549344435372
H           -1.02665610287594       -1.23659722042132       -0.11541670970395
H            0.54304306692263       -2.06554576538109       -0.12072747545571
H           -4.63379501756483        2.95202536369707       -0.17246283096621
H           -3.75132519828093        2.91171941654528        2.73499181388935
H           -4.86776349471260        1.75974524358544        1.99094244829071
H           -5.32290499222019        3.45980150286527        2.13106340012556
H           -2.60024553718782        4.68449265655605        1.28401184322443
H           -3.03387873588321        4.81289671501006       -0.42912748811082
H           -4.22453076528899        5.18526876872637        0.81071365886905
H           -0.61145162794327        2.79401847131879        2.75116201229892
72
 energy: -1.188258368630 xtb: 6.6.1 (8d0f1dd)
N           -1.50183511999683        2.81509119391167        2.25679290110250
C           -1.54479926455730        2.15562349479330        1.18810220369804
C           -2.72985444368656        2.06643694718522        0.26923270417693
C           -3.30083738395294        0.65810832033481        0.34668274128388
C           -4.26952005777852        0.24758513527088       -0.56931153937552
C           -4.81697488101143       -1.02033178858058       -0.52458854393509
O           -5.76603119263055       -1.49858204536996       -1.37844470189989
C           -6.31588526358002       -0.62581503504017       -2.33087769643790
C           -4.39106804958010       -1.93185985815748        0.46562370852925
O           -4.99199261517395       -3.15598434838681        0.43513178213873
C           -4.68319830350669       -4.07841635414912        1.44684723792792
C           -3.43182489335588       -1.52533660606070        1.37254940478946
C           -2.89382175010319       -0.24454875061537        1.31143866623596
C           -2.17375085387943        2.31481536128626       -1.15841337804449
C           -1.25692469288991        1.19120664035457       -1.67590955661959
C            0.02477331815509        1.13527976749305       -0.92460303046971
N            0.63369812635329       -0.05848957888331       -0.56337955329102
C            2.01128660076774       -0.07050573990179       -0.19016861683542
C            2.91888926996967       -0.60473720234561       -1.32220563134842
C            4.35113277930655       -0.49533555434519       -0.91674244282914
C            5.05826924672800        0.66086785955363       -1.18344345101027
C            6.35491902178346        0.80573324765589       -0.73082646365693
C            6.93970569554812       -0.18708600542604        0.02312699708533
O            8.08519408888748        0.01144539981319        0.72752972912249
C            8.97787429555977        1.06636095811776        0.48759880653835
C            6.27324300542412       -1.42275018415924        0.21760882028770
O            6.96711113828012       -2.41161227722779        0.85914461772947
C            6.32505938008005       -3.64005292802717        1.10618890863523
C            4.97083924764646       -1.53964251895449       -0.23045228008859
C           -0.06299708870076       -1.31270318796574       -0.62425553906326
C           -3.85956684583102        3.07813808960267        0.59937950586080
C           -4.49177381679378        2.78123265074644        1.95720210360218
C           -3.39228199365767        4.53173313641731        0.56112874513081
H           -4.60301635196782        0.93856849967908       -1.32585285205844
H           -6.77765871164862        0.24974118450300       -1.86151977517671
H           -7.08159644151803       -1.20394691995164       -2.84597383801428
H           -5.56700133031193       -0.29373655523715       -3.05760286909407
H           -4.91891957848760       -3.68129350851057        2.44007798523805
H           -5.30894249296150       -4.94749240964060        1.24815026243175
H           -3.62973629951811       -4.37827148625274        1.41724215042051
H           -3.09433627812813       -2.19363633333947        2.14949998808327
H           -2.16289955775157        0.04656150265565        2.05081448275250
H           -3.00869885614421        2.43278474755761       -1.85185338271517
H           -1.60982159187340        3.24861581482216       -1.15905369727883
H           -1.79296057252651        0.24493432539551       -1.62836123596141
H           -1.03687883255416        1.39463638664914       -2.73524834667792
H           -0.68076347472356        1.63635516967676        0.72090195920503
H            0.67947987113881        1.98584770043410       -0.99230471221129
H            2.14589167228051       -0.69332452610636        0.70265502328336
H            2.32105807995721        0.94617673445978        0.05535857061601
H            2.73044780967891       -0.01098822345474       -2.21811022931916
H            2.65159441627733       -1.64023374431607       -1.53288667059586
H            4.59104532083766        1.46673225384253       -1.72600682234585
H            6.90921152558873        1.70651887314620       -0.93535119091303
H            8.73451573344577        1.96693653054662        1.07560765729686
H            9.12630207225376        1.37166460429318       -0.54010806342342
H            9.87812671445856        0.56542296248403        0.80090720112932
H            7.06617129562329       -4.26781750623359        1.60081305553555
H            5.46076071741871       -3.51882335965873        1.76818882408343
H            6.00165981417130       -4.13772012973165        0.18414262683505
H            4.40985104058219       -2.44794993984368       -0.05600778223906
H           -0.23853752379918       -1.63813654946216       -1.65672064653185
H           -1.03021613781019       -1.23553107707810       -0.11732715708424
H            0.53677810380539       -2.07004378971163       -0.12127691834930
H           -4.62963601848068        2.94986484727599       -0.16936194561435
H           -3.75008022385805        2.91507407340940        2.73819530462908
H           -4.86566978060891        1.76070953226017        1.99521556025596
H           -5.32294287529397        3.46060006611831        2.13335674888902
H           -2.60058022955869        4.68498110314660        1.28847445284410
H           -3.03178259683423        4.81220249621347       -0.42576021239063
H           -4.22477686850903        5.18611227670119        0.81227962424653
H           -0.61586323683942        2.80531735209541        2.75919409690530
72
 energy: 1.369114239987 xtb: 6.6.1 (8d0f1dd)
N           -1.50427055639060        2.82754434150502        2.26081249933457
C           -1.54255149139754        2.15767809285956        1.19827326207710
C           -2.72512918667825        2.06811207257127        0.27556348212108
C           -3.29644434470312        0.66033447319059        0.35185027900495
C           -4.26031285323299        0.24779872813896       -0.56802877168297
C           -4.80868982708717       -1.01983794388316       -0.52315982275946
O           -5.75265076026597       -1.50043954750281       -1.38168300935710
C           -6.29581720222541       -0.62983217310479       -2.33977539211663
C           -4.38917361965160       -1.92919525907799        0.47139653445955
O           -4.99166255611327       -3.15299230521584        0.44135814229904
C           -4.68800440114139       -4.07298175211549        1.45662740867233
C           -3.43410018772705       -1.52101698731904        1.38196879497291
C           -2.89525087018892       -0.24065890513450        1.32043666274684
C           -2.16786650275981        2.31877852406457       -1.15161270545182
C           -1.25529190507844        1.19467875485394       -1.67887501329867
C            0.03160546839595        1.13470174437996       -0.93744737965485
N            0.63364506030492       -0.06252804592629       -0.56425865585891
C            2.01341796594436       -0.08019550323027       -0.19889917734790
C            2.91460648060329       -0.62084699969508       -1.33349163674628
C            4.34886875056902       -0.51077330553191       -0.93675777889117