25
 energy: -43.826221585535 gnorm: 0.105629177655 xtb: 6.6.1 (8d0f1dd)
C            3.24930432257804        1.17915703102363        0.08879729011150
N            2.30970650429110        0.09328562727402        0.04008715097346
C            2.61121430418086       -1.21760383447103        0.03639783226655
N            1.46043924673156       -1.92306838646690        0.00768919030373
C            0.41137498024084       -1.05709771610284       -0.01450963725728
C            0.93804309266295        0.23409037779363        0.00853972487391
C            0.10121454233134        1.37577096687004       -0.01607221388738
O            0.47669530360240        2.56393458415095       -0.01888567820300
N           -1.27254143960240        1.03199097858365       -0.03682560374843
C           -2.20950866232539        2.14425345957393       -0.05845191618839
C           -1.84216216107188       -0.26254511183021       -0.04613651161509
O           -3.02884383770337       -0.54022640107413       -0.05816933061832
N           -0.93356942315568       -1.33274895843524       -0.03879035719672
C           -1.53723631678648       -2.62090757177281       -0.05743727159337
H            3.73253886393486        1.22698598052314        1.06954340604135
H            4.02277369951907        1.05263661924585       -0.67179156195094
H            2.71555767786531        2.11556784747583       -0.08006566058508
H            3.59443620963048       -1.63679041479686        0.05647675859968
H           -1.64443925854569        3.07688267654803       -0.02822806548610
H           -2.80550123964587        2.11018428477680       -0.96950210859075
H           -2.86433815607639        2.09247810522852        0.80433050415086
H           -1.11812808927164       -3.23459017192166        0.73354364745860
H           -1.29167745057753       -3.13417112537972       -0.97677754762717
H           -2.70942741436094       -2.53770261706605        0.04440095139855
H            1.40260962963594       -2.92303721736506        0.00342478318300
25
 energy: -43.833765767648 gnorm: 0.040169929556 xtb: 6.6.1 (8d0f1dd)
C            3.24970561027930        1.18453850837476        0.09060472792880
N            2.31149645469584        0.10386950467752        0.03807993857948
C            2.61281127709355       -1.22960641274781        0.03684567625678
N            1.44236366299553       -1.93173397825727        0.00714326168194
C            0.40456091492332       -1.06150981259385       -0.01193676995129
C            0.92783437134221        0.23026210948940        0.00787922429317
C            0.09876459295547        1.37167020127279       -0.01613271334301
O            0.46794086512203        2.55712820166570       -0.02007680864304
N           -1.28058373412373        1.02790020594151       -0.03708857085729
C           -2.21821580297359        2.13758868444667       -0.05869375653892
C           -1.83565195894627       -0.23634287427465       -0.04554115690595
O           -3.02774576527303       -0.46648146478927       -0.05947144233109
N           -0.93871846185226       -1.32263535438310       -0.03695235653084
C           -1.51059988411959       -2.63926876366282       -0.05989110968258
H            3.73431930206948        1.22976882693730        1.07126091461105
H            4.01958795303501        1.05694665018257       -0.67375723440941
H            2.70721750635994        2.11383317982471       -0.07872929220460
H            3.59241772045178       -1.64997880130716        0.05656408086815
H           -1.63613392394552        3.05895601354369       -0.02933912774339
H           -2.81502329480289        2.10730810322760       -0.97002372312910
H           -2.87638418193339        2.08851496295251        0.80636710101584
H           -1.12714847192002       -3.24710522194582        0.76014483782004
H           -1.29852771460782       -3.14683292211273       -1.00095919776189
H           -2.61643485778743       -2.52602114609659        0.04384102087984
H            1.38068274904360       -2.93403938798016        0.00145025091048
25
 energy: -43.834971199465 gnorm: 0.016816133353 xtb: 6.6.1 (8d0f1dd)
C            3.25370816258799        1.18821959359153        0.09002902227717
N            2.31360349693573        0.11403700948046        0.03527027834687
C            2.62155453338245       -1.22505155911857        0.03715658848236
N            1.44698592031417       -1.93069895723220        0.00764403038907
C            0.40677933889856       -1.06757796801426       -0.01191792411515
C            0.92427435828094        0.22714747400128        0.00645273285472
C            0.09799653607605        1.36794985033291       -0.01620095175562
O            0.46295809448218        2.55277840400314       -0.01904212747917
N           -1.28699086678972        1.01816588843685       -0.03734238871954
C           -2.21429520494332        2.13749177819012       -0.05897512673985
C           -1.83296722538421       -0.23996606535229       -0.04478763543510
O           -3.02289443645235       -0.48114387767339       -0.05682798741521
N           -0.93963456760044       -1.32385790149347       -0.03484819656342
C           -1.53767464627388       -2.63553994827020       -0.05731057523686
H            3.73599093973098        1.22907622535786        1.07167359268427
H            4.02549970203708        1.05355013760238       -0.67145636171525
H            2.71739967925226        2.11920845005412       -0.08197198148690
H            3.60208392411423       -1.63645288508689        0.05687187046430
H           -1.63490505250905        3.06164333417346       -0.02900943395450
H           -2.81000080704552        2.10900309383093       -0.97002466221681
H           -2.87125829787384        2.09048839257521        0.80676112482365
H           -1.13753055112256       -3.23979255931686        0.75340168687925
H           -1.30816352464980       -3.13659712298184       -0.99577717876077
H           -2.64158996759793       -2.54229077909475        0.03796331911222
H            1.39760539023149       -2.93306099561005        0.00385606009342
25
 energy: -43.835072328714 gnorm: 0.010381494574 xtb: 6.6.1 (8d0f1dd)
C            3.25044440381407        1.18280870752889        0.09166052341823
N            2.31182630724928        0.11178155933916        0.03613040913593
C            2.61799167133091       -1.23118970175941        0.03759098861991
N            1.43987498867165       -1.93104835898406        0.00593663874941
C            0.40617548839114       -1.06624457127551       -0.01394726468774
C            0.92230471329972        0.22754671882653        0.00749789302497
C            0.10303115576125        1.37291631905440       -0.01564523256852
O            0.46983453369113        2.55596908761926       -0.01831703124983
N           -1.28859436231032        1.01994119650466       -0.03873539340294
C           -2.21556388649583        2.14069353140533       -0.05988343918619
C           -1.83125796762247       -0.23841908587597       -0.04781976540306
O           -3.02072481514426       -0.49172184513476       -0.06157121096545
N           -0.93734947231896       -1.31958624976119       -0.03752891566294
C           -1.53581220724019       -2.63397434388676       -0.05543388590125
H            3.73461878627132        1.22429241869579        1.07198982664037
H            4.01868478431752        1.05357238775477       -0.67419794758137
H            2.70927642904866        2.11155558845873       -0.07577303138027
H            3.59474422976980       -1.64618167724232        0.05584988695884
H           -1.64335483274476        3.06934796748062       -0.02884605574737
H           -2.81193519172013        2.10958467754753       -0.97005199592394
H           -2.87269513785752        2.09035563795703        0.80515376238493
H           -1.11352180179533       -3.23234318294860        0.74826120866225
H           -1.28932367465721       -3.13590635760646       -0.98924403942865
H           -2.64177470567897       -2.53421808441592        0.04812661374972
H            1.39163549205098       -2.93280332689621        0.00038523255813
25
 energy: -43.835246682628 gnorm: 0.005067534128 xtb: 6.6.1 (8d0f1dd)
C            3.25070580844389        1.18515950073398        0.08958323578261
N            2.31213600255914        0.11266827417144        0.03613147227246
C            2.61862251333213       -1.22947203464261        0.03957431420787
N            1.44128015718657       -1.92993903093768        0.00884181613712
C            0.40662157381931       -1.06667466106532       -0.01159169542228
C            0.92285809911379        0.22768727048469        0.00826619704139
C            0.10437744239612        1.37313989109064       -0.01596795166325
O            0.46826370708134        2.55644123647789       -0.02054790847835
N           -1.28772371766470        1.01890313135715       -0.03657164994454
C           -2.21453610942523        2.13874687663161       -0.05840426498973
C           -1.83183778964809       -0.23909105899015       -0.04427218472204
O           -3.02278297728384       -0.49007689351763       -0.05728681403729
N           -0.93710504804117       -1.32146526188280       -0.03627546494842
C           -1.53604035938879       -2.63723080009135       -0.05870521348709
H            3.73390388806558        1.23190913331000        1.07027358944423
H            4.02207767561880        1.05520530022476       -0.67311210580826
H            2.71228345831216        2.11523427836137       -0.08254659916031
H            3.59607392893340       -1.64335095178915        0.05712838287072
H           -1.63597656738381        3.06307481155608       -0.02881006882433
H           -2.81118458860470        2.10806787974183       -0.96873284417878
H           -2.87138916273757        2.09087159468641        0.80722760810308
H           -1.12878221138556       -3.24243822113387        0.74888220341551
H           -1.29723464972174       -3.14038132936560       -0.99446818955697
H           -2.64118492880756       -2.52836997049975        0.03857657774715
H            1.39510878331203       -2.93188995252644        0.00439533301266
25
 energy: -43.835219248828 gnorm: 0.005446975107 xtb: 6.6.1 (8d0f1dd)
C            3.25273384049994        1.18427998181139        0.09247682505102
N            2.31241157869980        0.11292025080417        0.03475538685693
C            2.61908224182838       -1.22827489999364        0.03562312788137
N            1.44195336656164       -1.92907276028815        0.00431260316321
C            0.40629467127408       -1.06617839217375       -0.01417346163471
C            0.92299490692939        0.22824893483757        0.00639981123928
C            0.10402630464467        1.37312416167451       -0.01618378159867
O            0.46481247405469        2.55663484304288       -0.01799425826258
N           -1.28863971224966        1.01961204509461       -0.03847687090367
C           -2.21613015593298        2.13878725825935       -0.06047512156872
C           -1.83334834084048       -0.23737847533658       -0.04649815408351
O           -3.02491308860107       -0.48541650545270       -0.05887036421646
N           -0.93809285038837       -1.32072099629663       -0.03673779728388
C           -1.53476568433851       -2.63762309598772       -0.05490950587072
H            3.73669538583952        1.22465796325224        1.07341740109535
H            4.02446333476590        1.05467079686300       -0.67017497026863
H            2.71777463823070        2.11748963565873       -0.07576229842355
H            3.59789922387627       -1.64054022735935        0.05303994929574
H           -1.63719295994672        3.06256162328912       -0.02920826138422
H           -2.81151855606372        2.10977506060929       -0.97188132914821
H           -2.87433021690292        2.09003685114014        0.80420416490902
H           -1.12848707042902       -3.23938384914095        0.75587243913733
H           -1.30305191513956       -3.14073612891810       -0.99227961071411
H           -2.63906717939231       -2.53929710736065        0.04595463537557
H            1.39693069110185       -2.93144795564328       -0.00084278383005
25
 energy: -43.835280346436 gnorm: 0.002418576103 xtb: 6.6.1 (8d0f1dd)
C            3.25079722285555        1.18408383033597        0.08970728845926
N            2.31225901214710        0.11171292685524        0.03571741593029
C            2.61898146114562       -1.22986916972531        0.03948002996483
N            1.44138806004692       -1.93027371108844        0.00830176378195
C            0.40641708651429       -1.06702616082889       -0.01219753182395
C            0.92293876657769        0.22717693965995        0.00774184157291
C            0.10517120929526        1.37252794621570       -0.01598045542099
O            0.46642316590860        2.55568573396280       -0.01882787744880
N           -1.28835718407190        1.01951935398902       -0.03763282190149
C           -2.21531703708659        2.13934559779755       -0.05866319798302
C           -1.83259981684400       -0.23718965059546       -0.04609082970364
O           -3.02369169808195       -0.48632120871798       -0.05945420366251
N           -0.93766536918700       -1.32035066462365       -0.03662102820340
C           -1.53477612788169       -2.63642337931658       -0.05788750254466
H            3.73513395738681        1.22838696409965        1.07025829073133
H            4.02122289872514        1.05373244781626       -0.67416361346400
H            2.71243148201492        2.11490893619279       -0.08085302898025
H            3.59761741261003       -1.64226514948703        0.05798759232119
H           -1.63839113005365        3.06452371327684       -0.02847378651755
H           -2.81195510224641        2.10938141831839       -0.96907986439927
H           -2.87215764723532        2.09039706246498        0.80693115503204
H           -1.12573015142410       -3.23818106302744        0.75094973199162
H           -1.29808322582161       -3.13663944273053       -0.99527960556043
H           -2.63970781636249       -2.53742126334545        0.04129847532523
H            1.39618549915026       -2.93269299511289        0.00441953731648
25
 energy: -43.835268720465 gnorm: 0.003196232766 xtb: 6.6.1 (8d0f1dd)
C            3.25047685585947        1.18477000799994        0.09158817204933
N            2.31233974292748        0.11207514672190        0.03561821229085
C            2.61876019215534       -1.22995307452574        0.03740540154054
N            1.44105103525837       -1.93011779458283        0.00602635744532
C            0.40658033196380       -1.06719709476667       -0.01254847782802
C            0.92284322008701        0.22726609967775        0.00769957803391
C            0.10574759367786        1.37273518371666       -0.01609457713351
O            0.46685297532513        2.55600642733725       -0.02062473521757
N           -1.28832824154672        1.01850145765788       -0.03705557309021
C           -2.21460642953625        2.13867598537487       -0.05955358558705
C           -1.83193338463496       -0.23857219470267       -0.04435416387812
O           -3.02251776164420       -0.48982794865029       -0.05686289223193
N           -0.93698419086513       -1.32120518158261       -0.03607940552758
C           -1.53592776537033       -2.63661239892463       -0.05682069921896
H            3.73329790817368        1.22968372179283        1.07279070223309
H            4.02223321707676        1.05605409216183       -0.67114965897214
H            2.71181076156601        2.11522376080160       -0.07906272654063
H            3.59682290038605       -1.64294758169162        0.05397528518873
H           -1.63722289437964        3.06371743775089       -0.03011894350516
H           -2.81069832482790        2.10750347522796       -0.97021622118358
H           -2.87177532556363        2.09089706995617        0.80578340983273
H           -1.12732436898255       -3.23960087813493        0.75120088627394
H           -1.29756988133263       -3.13955705288063       -0.99225843335088
H           -2.64116269836064       -2.52840638896567        0.04174249552469
H            1.39576946066910       -2.93238326438374        0.00055736766539
25
 energy: -43.835292008885 gnorm: 0.001140337751 xtb: 6.6.1 (8d0f1dd)
C            3.25162630170207        1.18427995329498        0.09037464080977
N            2.31229005181811        0.11236379715894        0.03551619719117
C            2.61843178099067       -1.22941311399478        0.03856447696295
N            1.44081390482297       -1.92949398628943        0.00735525591209
C            0.40615833074723       -1.06654299698908       -0.01265409840205
C            0.92270291390376        0.22794945972988        0.00760932666297
C            0.10537323561592        1.37325018610554       -0.01586752300455
O            0.46592633067177        2.55663361285643       -0.01890303741986
N           -1.28882139509996        1.01909413995341       -0.03765750502240
C           -2.21542934704267        2.13903134095693       -0.05900669306739
C           -1.83267230069235       -0.23794677598236       -0.04608487365448
O           -3.02345591374541       -0.48846764776770       -0.05917735541032
N           -0.93751203420200       -1.32089010944738       -0.03680743741028
C           -1.53505551427582       -2.63712392704339       -0.05729205830729
H            3.73574853750880        1.22822491153390        1.07101002952532
H            4.02265927852775        1.05404837254355       -0.67289634765095
H            2.71460755974901        2.11577732270842       -0.07998755808843
H            3.59667288227320       -1.64230725087017        0.05631984061011
H           -1.63763257757293        3.06370780415402       -0.02814645337686
H           -2.81148605569424        2.10950480922902       -0.96982844920506
H           -2.87287317626145        2.09024612656896        0.80611994231314
H           -1.12658076680126       -3.23977812731745        0.75115366556716
H           -1.29829295099889       -3.13963792152144       -0.99340891439258
H           -2.64020859708170       -2.53396887803668        0.04218182308761
H            1.39554444921892       -2.93181208914864        0.00310088058338
25
 energy: -43.835273171130 gnorm: 0.002761006545 xtb: 6.6.1 (8d0f1dd)
C            3.24984462279229        1.18452774967396        0.09111979448400
N            2.31245863737896        0.11122811250125        0.03556016652374
C            2.61932611815918       -1.23007208097158        0.03817835196101
N            1.44189976669247       -1.93053320842668        0.00663042230280
C            0.40655004760075       -1.06753605921885       -0.01246317011704
C            0.92313380705566        0.22679706147810        0.00744367905346
C            0.10654208674995        1.37234322223998       -0.01647732508473
O            0.46746804696467        2.55540908876764       -0.02003216614997
N           -1.28799279244520        1.01953039833486       -0.03740487432449
C           -2.21474194065698        2.13930737760970       -0.05955943174172
C           -1.83250318271376       -0.23685458942965       -0.04447296291737
O           -3.02364343928444       -0.48565318702026       -0.05707292487925
N           -0.93761152446921       -1.32061002865028       -0.03590495849637
C           -1.53499913418699       -2.63641476682311       -0.05721508464696
H            3.73334936913362        1.22837102399263        1.07209886654134
H            4.02073824273952        1.05598132203030       -0.67254174890285
H            2.71021647703535        2.11480296191752       -0.07862494443283
H            3.59822388121600       -1.64218769256411        0.05605379298562
H           -1.63750599506204        3.06434886089618       -0.03128860246111
H           -2.81197200206333        2.10797049594269       -0.96958752483454
H           -2.87110320880283        2.09174710752814        0.80650127290167
H           -1.12662624269609       -3.23863806262887        0.75163768753650
H           -1.29962706801474       -3.13629422242452       -0.99510219514328
H           -2.63998554494589       -2.53780346801682        0.04215729816828
H            1.39709589990456       -2.93303840435270        0.00195435648727
25
 energy: -43.794755521930 gnorm: 0.154584047285 xtb: 6.6.1 (8d0f1dd)
C            3.26140447947374        1.19199607114158        0.09327953242121
N            2.32062426400404        0.11130115064125        0.04038368476350
C            2.64190758146782       -1.22004291391013        0.04320633045743
N            1.48249622100512       -1.91185289284765        0.01504866341137
C            0.43228258455124       -1.05634959651067       -0.02046183480722
C            0.94348119323042        0.25241515457166       -0.00303228323264
C            0.10402227379192        1.34662346099910       -0.02911833250519
O            0.45136903629453        2.56485157170886       -0.03613389699825
N           -1.29463064679842        1.00164258666569       -0.04325301616505
C           -2.19954644785227        2.13515260815607       -0.06754738768653
C           -1.87179807669268       -0.32252619535055       -0.04570611978902
O           -3.05376154259633       -0.70280239707938       -0.04657789732677
N           -0.94783747023407       -1.36091593835917       -0.03135102538991
C           -1.60572894470000       -2.60289372432221       -0.05335843276027
H            3.75266273176299        1.23919349634280        1.07405352943789
H            4.03745467240823        1.07107801579871       -0.66994908675838
H            2.73204809480805        2.13334617310125       -0.06874715061441
H            3.62166438866620       -1.63672338379725        0.07104386614077
H           -1.61772378469359        3.06068979044555       -0.03099549281369
H           -2.78711327985407        2.12680343121667       -0.98543618311338
H           -2.85380676292131        2.10802515924563        0.79354735747137
H           -1.06618360817304       -3.28058244048412        0.63788138307141
H           -1.43760320981165       -3.09438674674575       -0.99887117239622
H           -2.83954785001318       -2.53531585242855        0.18849787360794
H            1.43059962546420       -2.91078856247718        0.01714591826813
25
 energy: -43.818076284089 gnorm: 0.052630374363 xtb: 6.6.1 (8d0f1dd)
C            3.25807290067877        1.19336689197639        0.09420608951006
N            2.31716119542086        0.11403876479016        0.03814117148118
C            2.63070834444455       -1.22482711751641        0.04381201927869
N            1.46169138798995       -1.92388095944196        0.01499541379334
C            0.41444183443869       -1.07043025145457       -0.01477024014538
C            0.92839396821166        0.23443723630041       -0.00171511565224
C            0.09129158982723        1.34693436890635       -0.02766113031896
O            0.43838585033348        2.54609616511082       -0.03691891427923
N           -1.30384958386421        0.99951948792791       -0.04284792743331
C           -2.21267434930439        2.12926337140908       -0.06809338264484
C           -1.85539272064643       -0.28235352930531       -0.04331862573230
O           -3.04368100563595       -0.57239753480489       -0.05186976410234
N           -0.94825787605823       -1.34906513181688       -0.02696073934971
C           -1.56306318526611       -2.64122794030003       -0.05195416611596
H            3.74923096835181        1.23755049821734        1.07353117205937
H            4.03064935924418        1.07198001366548       -0.67066934182698
H            2.72275730609487        2.12860251734043       -0.06897226947480
H            3.61223769221845       -1.63883468605243        0.07064893242557
H           -1.61214733613538        3.04149894091768       -0.03293076008550
H           -2.79988669670009        2.12316090969597       -0.98599252319813
H           -2.87085845589690        2.10279101669953        0.79606451231417
H           -1.07747854533851       -3.30425490802680        0.67591528340107
H           -1.45692622439968       -3.10775528389371       -1.03066413027098
H           -2.68747005828805       -2.51991424361801        0.17594592753202
H            1.41339916286732       -2.92636057100436        0.01562733552925
25
 energy: -43.819614153528 gnorm: 0.022598420869 xtb: 6.6.1 (8d0f1dd)
C            3.26412932650143        1.19876381628657        0.09469174562680
N            2.32184585655664        0.12257913251617        0.03489271195386
C            2.63692768422852       -1.21884880452680        0.04337081486339
N            1.46414652477760       -1.92301081141717        0.01399990899731
C            0.41250303782875       -1.07621397227290       -0.01527506651364
C            0.92633026388686        0.22773350802864       -0.00429927018139
C            0.08790704467153        1.34815689181960       -0.03032663489031
O            0.43412526848408        2.54055274595862       -0.03746161081888
N           -1.30994635059215        0.98689054930315       -0.04499352221845
C           -2.20891460681983        2.12610490991418       -0.06867495502782
C           -1.85267099813413       -0.28141771884769       -0.04249328822263
O           -3.03422183299445       -0.57693665907947       -0.04392205767747
N           -0.94683127747957       -1.34527911489857       -0.02359212201781
C           -1.59280751996604       -2.63557940012478       -0.04427639781388
H            3.75361192740898        1.23913372544461        1.07435513336267
H            4.03731665473556        1.07282505752143       -0.66863264802543
H            2.73229929550405        2.13441082036340       -0.06976417097683
H            3.61992117625462       -1.63039631674817        0.07118038288723
H           -1.60675757301987        3.03801645877073       -0.03278609242369
H           -2.79550792010541        2.12265065329018       -0.98548741215352
H           -2.86531474193769        2.10184880859007        0.79683434076418
H           -1.09536482045714       -3.28509406015099        0.66786732004283
H           -1.46266860249997       -3.09411414089496       -1.02040756703530
H           -2.70879569757611       -2.55930814152036        0.16207482917087
H            1.42547340333164       -2.92552991160331        0.01667445502203
25
 energy: -43.819971251264 gnorm: 0.013617503886 xtb: 6.6.1 (8d0f1dd)
C            3.26135731393506        1.19628612310925        0.09555640005809
N            2.32198508115010        0.12151733478456        0.03600432096405
C            2.63673264848323       -1.22242156977901        0.04480596540745
N            1.46109715438714       -1.92435719555840        0.01376379188458
C            0.41214990332669       -1.07683178529077       -0.01774083605096
C            0.92532705410919        0.22547995479876       -0.00192246331783
C            0.09054488603731        1.35339719753216       -0.02671460497163
O            0.43990233424748        2.54243619927082       -0.03236202704152
N           -1.31218040452923        0.98399825604857       -0.04547867686726
C           -2.21038170289149        2.12749718341190       -0.06938274908236
C           -1.85188250642332       -0.28329182688999       -0.04813682739026
O           -3.03090015904788       -0.59070203227939       -0.05741365318484
N           -0.94147646513113       -1.34381095243538       -0.02938640025223
C           -1.59556294740718       -2.63738011316857       -0.04461774964656
H            3.75069407836816        1.23681750837393        1.07479836794300
H            4.03115927327459        1.07110976577061       -0.67114827124201
H            2.72462278334661        2.12894277505375       -0.06777528050720
H            3.61719161894759       -1.63871672376418        0.07116583111534
H           -1.61613393275609        3.04472249452948       -0.03153673717823
H           -2.79663721053728        2.12346694564801       -0.98585498629300
H           -2.86865279495170        2.10196712863253        0.79430434198862
H           -1.07689398457828       -3.28192719971441        0.65482940947912
H           -1.45263754343445       -3.09587092709953       -1.02020248103610
H           -2.70623290119031       -2.52818905289694        0.19241221509759
H            1.42354394585310       -2.92620146236557        0.01558192681826
25
 energy: -43.820119310689 gnorm: 0.008646393091 xtb: 6.6.1 (8d0f1dd)
C            3.26081280423552        1.19640322993130        0.09397804203655
N            2.32091527001902        0.12211738877388        0.03560634924701
C            2.63556900804616       -1.22185083394165        0.04514177262761
N            1.45976252927155       -1.92279150166594        0.01606920700040
C            0.41173804316594       -1.07447314097659       -0.01307454567904
C            0.92527820074344        0.22758542847501       -0.00115479253732
C            0.09271459631179        1.35594960621473       -0.02908932197551
O            0.44022164276207        2.54555694798495       -0.04086113165344
N           -1.31161298357892        0.98536969212746       -0.04224112579255
C           -2.20954375815887        2.12931490778878       -0.06740977874862
C           -1.85435574406941       -0.28370404439563       -0.04055720734334
O           -3.03583310962271       -0.59270968903502       -0.04624517265216
N           -0.94090047482212       -1.34483892311001       -0.02535180142493
C           -1.59065345771406       -2.64314494410962       -0.04518773404118
H            3.75020118308106        1.23882243317523        1.07316133461459
H            4.03236423319220        1.07139162217388       -0.67111123970758
H            2.72647731006333        2.13048845874444       -0.07057926937052
H            3.61505112268544       -1.63903863608108        0.06928792517283
H           -1.61102304952229        3.04372035725541       -0.03333079413835
H           -2.79786553094281        2.12380395176518       -0.98300849537553