25
 energy: 0.000000000000 xtb: 6.6.1 (8d0f1dd)
C            3.23720132972391        1.16630909158653        0.08434468864950
N            2.29877796055224        0.07527476373246        0.03981602671198
C            2.58028186251803       -1.21425391179017        0.03006175752192
N            1.43813944744728       -1.93419254010258        0.00098261751768
C            0.39035684826767       -1.05887462812143       -0.00790371763344
C            0.93510047688824        0.21347817468824        0.01709077332874
C            0.09450143016486        1.40504290868848       -0.00410946993748
O            0.49712746915594        2.54126690785742       -0.00342325656480
N           -1.25076628431515        1.06271869620815       -0.03085477937476
C           -2.21907191394203        2.15522079838987       -0.05001256521996
C           -1.81739470187490       -0.20012724136556       -0.04692818139228
O           -2.99983858926755       -0.37846413507442       -0.07008877579474
N           -0.92618577614240       -1.30210203518959       -0.03682761236648
C           -1.46982251276835       -2.64643077634382       -0.06029819901142
H            3.71247229913541        1.21471443890471        1.06488839270555
H            4.00791460421487        1.03430799217987       -0.67357688121503
H            2.69909982127087        2.09770098766290       -0.09130154035862
H            3.56654087521359       -1.63682977417947        0.04233139674524
H           -1.67107945562430        3.09322822573871       -0.02552706696334
H           -2.82428927394145        2.09428605349656       -0.95318074103337
H           -2.87644002486466        2.07745706351925        0.81450059976605
H           -1.17061985538665       -3.19584861009707        0.83242224714061
H           -1.14560246782873       -3.17511580834413       -0.95688266944647
H           -2.55549768731684       -2.55659960601237       -0.07459039105944
H            1.38130842369251       -2.94313824728853       -0.01389874052104
25
 energy: -0.899027085087 xtb: 6.6.1 (8d0f1dd)
C            3.23287010498074        1.16942184241995        0.08550148064282
N            2.31629415795237        0.07939604665534        0.03757495563788
C            2.66257271484239       -1.24394632035885        0.03141303138260
N            1.45896622798048       -1.94637598379897        0.00146929102789
C            0.40440113599663       -1.06807168355543       -0.00835290994052
C            0.93246006495584        0.20937135701749        0.01515783002784
C            0.09392712767975        1.38767016500469       -0.00466730037004
O            0.48834233819732        2.55390035310455       -0.00324136180952
N           -1.27152777774122        1.05368200420358       -0.03112158738632
C           -2.23290070204678        2.15478387105146       -0.04980336386140
C           -1.83298345493480       -0.19737119625215       -0.04778386123382
O           -3.03093674353228       -0.37605333300637       -0.07121948264132
N           -0.93885325700194       -1.30089295632403       -0.03737824029118
C           -1.50062029154756       -2.63443914082138       -0.06082914660242
H            3.70588864988245        1.20887715213615        1.06904324914399
H            3.99750056194113        1.02650871401586       -0.67777461474278
H            2.68228749749698        2.09107169165833       -0.09175581496764
H            3.75420177706537       -1.62223684724909        0.04808747887696
H           -1.67594136995998        3.08928631534187       -0.02521105628667
H           -2.84204376256794        2.10599966398142       -0.95262056126469
H           -2.89423534458647        2.08907663224524        0.81422888249941
H           -1.20537181838841       -3.18844140310054        0.83153228742766
H           -1.18014900128991       -3.16798906226019       -0.95706631761279
H           -2.58689850107237       -2.53576551789551       -0.07525738311498
H            1.37496397067071       -2.94843357546934       -0.01289157234637
25
 energy: 12.116695525156 xtb: 6.6.1 (8d0f1dd)
C            3.22468547774585        1.16545459030227        0.08591576378163
N            2.32472133445083        0.07197766274166        0.03318734697906
C            2.74387681896007       -1.27223604554457        0.03324884132875
N            1.48520607278704       -1.95657876451839        0.00274102270561
C            0.42095311070099       -1.08318615960146       -0.00865939329122
C            0.92861748785688        0.19960777553402        0.01286006568493
C            0.09392838413689        1.36496831509251       -0.00497586643709
O            0.46837837723547        2.54600162800255       -0.00293828958100
N           -1.29159652491107        1.04864030235371       -0.03132632110403
C           -2.24600000197683        2.15790576035492       -0.04950125441162
C           -1.83871753001842       -0.19422559927121       -0.04845106153311
O           -3.04187205902975       -0.37665363448586       -0.07248271803251
N           -0.94445881087398       -1.29962520964828       -0.03777529303185
C           -1.53592350115250       -2.62042561343490       -0.06150295574797
H            3.69878224497226        1.20471994175496        1.07016103088508
H            3.98767912878082        1.02273011782196       -0.67999011500892
H            2.66792559546563        2.08233698356382       -0.09101348861783
H            3.95572061577102       -1.57676754284179        0.05469381142946
H           -1.68277608321702        3.08957985064932       -0.02473456287296
H           -2.85986571537483        2.11824081848290       -0.95104779861784
H           -2.91192045697536        2.10109415069899        0.81313421093786
H           -1.25433856862664       -3.18289980268520        0.83067777317466
H           -1.22869373056807       -3.16270022348739       -0.95787697519315
H           -2.62240125881014       -2.50384941374729       -0.07607752494245
H            1.37030389764332       -2.95508109934324       -0.01123233628895
25
 energy: 23.539361602701 xtb: 6.6.1 (8d0f1dd)
C            3.22122995746987        1.16363175321675        0.08566343848060
N            2.32796633558491        0.06447710484778        0.02993336364558
C            2.78113799388435       -1.28462305691244        0.03437214705886
N            1.49823884048562       -1.96144358363674        0.00413511998355
C            0.42864189129966       -1.09367940782183       -0.00835736014658
C            0.92873672845907        0.19349937911475        0.01196626712768
C            0.09555690618359        1.35739463413024       -0.00486963159362
O            0.45706380472752        2.53984830369215       -0.00251754381848
N           -1.29934339027116        1.04985304145752       -0.03145343550570
C           -2.25307245748101        2.15939313700064       -0.04941784520665
C           -1.83914151620948       -0.19370220558070       -0.04884400556484
O           -3.04218099096771       -0.37977827977870       -0.07350272262898
N           -0.94452904680485       -1.30065234061475       -0.03771820488126
C           -1.55672326798684       -2.61392511528559       -0.06185172460924
H            3.69440239999778        1.20504556652090        1.07048447967671
H            3.98462229200128        1.02631382194432       -0.68082813761204
H            2.66130111019286        2.07919836750600       -0.09039105565090
H            4.07228688128849       -1.55413305539815        0.05719661460821
H           -1.68995615542138        3.09058020903430       -0.02451048619543
H           -2.86865648768049        2.12095895733190       -0.95025713506088
H           -2.92061017962052        2.10358245539406        0.81247579064146
H           -1.28714076813413       -3.18125513766559        0.83064398950606
H           -1.26095959544812       -3.16106490705757       -0.95881716478006
H           -2.64244115280114       -2.48116537827202       -0.07661011168735
H            1.36578417222428       -2.95932547442319       -0.00989073359214
25
 energy: 30.223694406216 xtb: 6.6.1 (8d0f1dd)
C            3.21967575303283        1.16216778515515        0.08555326414751
N            2.32703425478473        0.06073112660315        0.02825490051213
C            2.78753994369471       -1.28786492667036        0.03517134704263
N            1.49697135725286       -1.96193475727078        0.00462010842091
C            0.42708157302375       -1.09609386980299       -0.00818107587022
C            0.92795164508188        0.19250043929966        0.01179251667641
C            0.09639819053928        1.35881594127643       -0.00492524331654
O            0.45252071942742        2.53937672162385       -0.00222530192802
N           -1.30141645610122        1.05255169116428       -0.03155093423863
C           -2.25558257354079        2.16052906916778       -0.04944903103106
C           -1.84098776398151       -0.19259459014299       -0.04892684245685
O           -3.04338633930445       -0.37868412188436       -0.07378749262163
N           -0.94606677468739       -1.30058616478976       -0.03758730316707
C           -1.56166174947063       -2.61320467096536       -0.06187121302704
H            3.69157720765237        1.20383535731333        1.07073208504226
H            3.98308048855843        1.02646660115557       -0.68081901879768
H            2.65963960154747        2.07809294448515       -0.09047274085336
H            4.13142775193535       -1.55344456762499        0.05786132566693
H           -1.69345710546228        3.09189434864193       -0.02453712654387
H           -2.87125009222725        2.12118812607901       -0.95023296094493
H           -2.92311192209901        2.10377481685394        0.81245901463257
H           -1.29397089800275       -3.18039313140654        0.83050232350773
H           -1.26767486682379       -3.16014807097427       -0.95878780338021
H           -2.64678230624958       -2.47851776455700       -0.07667921061697
H            1.35666466639206       -2.95942954398577       -0.00987967466039
25
 energy: 42.122623063116 xtb: 6.6.1 (8d0f1dd)
C            3.21703487052547        1.15967682955960        0.08544372616723
N            2.32227863973103        0.05700234131095        0.02627973827114
C            2.78145433497249       -1.28793322655533        0.03760267310493
N            1.48704145602256       -1.96101128849258        0.00497178435727
C            0.41889073027031       -1.09578088455878       -0.00816839019833
C            0.92466639696990        0.19339394643612        0.01195090883056
C            0.09641472765893        1.36449881001036       -0.00517329544605
O            0.44658886187199        2.54170903144593       -0.00181982777457
N           -1.30354781568140        1.05605957917414       -0.03175702753699
C           -2.25802910027344        2.16200674216001       -0.04953290594046
C           -1.84609772592316       -0.19091346221732       -0.04898743791199
O           -3.04721904939101       -0.37581108824894       -0.07384079724163
N           -0.95037582879196       -1.29951877343611       -0.03752135970185
C           -1.56448687528160       -2.61382267108896       -0.06185888040570
H            3.68722528171231        1.20035568302216        1.07087414429374
H            3.98018132118223        1.02318928618514       -0.68031615940453
H            2.65879379997638        2.07701426163357       -0.09120725113431
H            4.23150293245310       -1.56500342724685        0.05808365586312
H           -1.69711280158032        3.09376819836149       -0.02460573771109
H           -2.87361361353362        2.12201930001361       -0.95035000162554
H           -2.92533173579979        2.10456186788062        0.81254525252095
H           -1.29549067151849       -3.17906529630478        0.83042769707932
H           -1.26924187866522       -3.15875360553165       -0.95870548307517
H           -2.64911263050023       -2.48081513557045       -0.07665229470710
H            1.33980067856604       -2.95779822919794       -0.01064881847837
25
 energy: 55.554277380266 xtb: 6.6.1 (8d0f1dd)
C            3.21314587533660        1.15672545809706        0.08551044146392
N            2.31278337773535        0.05618318851560        0.02742907362752
C            2.75561071240248       -1.28246334203418        0.04974888557008
N            1.46833533782092       -1.95941731788774        0.00488798809427
C            0.40386751283435       -1.09150505623508       -0.00927756778133
C            0.91715659591888        0.19648738787540        0.01243596093750
C            0.09361222639799        1.37192069846313       -0.00658223634855
O            0.44125324033436        2.54677993391419       -0.00207379628650
N           -1.30676096634636        1.05818643466532       -0.03229010321364
C           -2.26022277130399        2.16388000030446       -0.04956899134153
C           -1.85490990872515       -0.18869849497329       -0.04920130647006
O           -3.05475863393487       -0.37168330322848       -0.07319480892112
N           -0.95848568261383       -1.29713521221372       -0.03853808771625
C           -1.56608260884981       -2.61501892939838       -0.06198516588550
H            3.68256623142353        1.19608264826080        1.07063804153660
H            3.97604122336933        1.01473624589050       -0.67911164425740
H            2.65885932347834        2.07613628867450       -0.09329882232487
H            4.37961069795960       -1.59158492326434        0.05191318269138
H           -1.69936266474826        3.09582372627620       -0.02467320453949
H           -2.87565076259798        2.12444742958023       -0.95046022905214
H           -2.92699814909651        2.10691244339826        0.81290603353106
H           -1.29236738846095       -3.17739142927452        0.83045111381548
H           -1.26662669129134       -3.15766049363162       -0.95860185929650
H           -2.65083549782154       -2.48702811636710       -0.07648205429311
H            1.32243367575133       -2.95568647666316       -0.01354693134524
25
 energy: 51.847087942944 xtb: 6.6.1 (8d0f1dd)
C            3.20191363933101        1.14587732700585        0.08492929879403
N            2.28402012002671        0.04472517813157        0.03993240719012
C            2.68155176181247       -1.26724575962647        0.12386472488632
N            1.42151845435100       -1.95250994418416       -0.00001206604280
C            0.36544151887625       -1.08572948724601       -0.01970782292415
C            0.89849681755223        0.20009784474586        0.00687767990344
C            0.08889489569163        1.38751696134557       -0.01600952240928
O            0.43004651649289        2.55036217552621       -0.00351512645248
N           -1.31297884229452        1.06508703254289       -0.03296815412118
C           -2.26436283004356        2.16819202506491       -0.04884162370501
C           -1.87299059930557       -0.18497238744250       -0.04909075492631
O           -3.06801211240421       -0.36289637418776       -0.07004507756350
N           -0.97993258781926       -1.29299363937388       -0.04404400753857
C           -1.57568967229221       -2.61716880243373       -0.06220529610082
H            3.67186857731108        1.18827648036135        1.06703552615882
H            3.96669953281740        0.99656081889710       -0.67556419910704
H            2.65812263186974        2.07200371214862       -0.09875484132302
H            4.76600771968331       -1.63306325870565        0.01163336116674
H           -1.70347369501727        3.09975790792382       -0.02462979576061
H           -2.87903143858220        2.12774565529602       -0.94994214201153
H           -2.92968691578814        2.11068204905608        0.81436104022639
H           -1.29461214411255       -3.17326723509808        0.83068093389154
H           -1.27055173155593       -3.15575421143520       -0.95803216706792
H           -2.65906117971866       -2.49276388032982       -0.07545159916921
H            1.28801586809083       -2.94949139923860       -0.02346686379937
25
 energy: 54.147223920933 xtb: 6.6.1 (8d0f1dd)
C            3.18850215022788        1.12963556986468        0.08503359755829
N            2.24173475970214        0.02557062190244        0.04933793254616
C            2.54264850014312       -1.23306492250719        0.17783332033214
N            1.35736051045424       -1.93518119086343       -0.00554973696791
C            0.31409025106184       -1.07235703922755       -0.03218197832917
C            0.87590431099875        0.20458213888224       -0.00408859360270
C            0.07765175838729        1.40491000756293       -0.02015717680988
O            0.42258626710131        2.54514906457766       -0.00329921623354
N           -1.31430548927265        1.07252569197491       -0.03182253624790
C           -2.26621033928702        2.17233982814046       -0.04880289834037
C           -1.88942177440690       -0.18446294649440       -0.04897301354780
O           -3.07742117331521       -0.35383906211165       -0.06912403793512
N           -1.00644577734443       -1.28633490661141       -0.04671225057329
C           -1.58384205852024       -2.61864094358821       -0.06197842711799
H            3.66428106379387        1.17364778734863        1.06113639556590
H            3.95633728493653        0.98070850405417       -0.67124834703709
H            2.65898761236112        2.06649197529312       -0.09795892140675
H            5.22567667485211       -1.69133531126982       -0.02387366657304
H           -1.70624719858553        3.10391605660399       -0.02470684245169
H           -2.87893586502597        2.12966127022338       -0.95046642021881
H           -2.93047602134792        2.11299925397752        0.81415887942998
H           -1.29520839941397       -3.16989505984547        0.83072366330502
H           -1.27134879491168       -3.15269406888704       -0.95709533352608
H           -2.66540466336885       -2.49718845419024       -0.07525507228748
H            1.27172071575265       -2.93811507606571       -0.01789540733629
25
 energy: 61.092520746715 xtb: 6.6.1 (8d0f1dd)
C            3.17399572872710        1.12380871091257        0.08600272074386
N            2.23613105035594        0.03636581616421        0.04923384969016
C            2.62887305756138       -1.27852965235768        0.23184960688622
N            1.34699226049163       -1.94703324648611        0.00654093335940
C            0.30033434342204       -1.07028612287441       -0.03919012607798
C            0.85054290248953        0.21552440970676       -0.01077086960292
C            0.07177696395560        1.41324659378290       -0.03535959935055
O            0.39435243714409        2.57893207350197       -0.00264211965892
N           -1.34488846931285        1.07987030584572       -0.03632896582693
C           -2.28191365748301        2.18426817491948       -0.04594633689848
C           -1.92187245946622       -0.16641188934807       -0.05265115758122
O           -3.11648919164740       -0.33535647501732       -0.06477453909964
N           -1.03189851035588       -1.27818074156248       -0.05726391597667
C           -1.59640229687228       -2.61804383448657       -0.06460765647828
H            3.64524960178096        1.15616231512237        1.06531387334890
H            3.93524276564397        0.95090429014190       -0.67294950040389
H            2.65241776908949        2.06072374235736       -0.10310955646127
H            5.56252380578711       -1.72832727240209       -0.05115971829784
H           -1.71452547123028        3.11250196059832       -0.02169974502067
H           -2.89277707383035        2.14287114584913       -0.94909487390547
H           -2.94232081869887        2.12460883345160        0.82029947436492
H           -1.29024851517339       -3.16028376120987        0.82836393059190
H           -1.27020828704949       -3.14787676060862       -0.95747384215106
H           -2.67987316596367       -2.52171542967941       -0.07510055718986
H            1.19719953560733       -2.93871439757764       -0.02044739680910
25
 energy: 53.709352514885 xtb: 6.6.1 (8d0f1dd)
C            3.17494701758225        1.11985336917394        0.09159677209196
N            2.22173704749775        0.03302550504574        0.05617729285995
C            2.52765837764214       -1.25796861647266        0.19202435114209
N            1.33564717288902       -1.92956913843085        0.01445555927371
C            0.29838528611929       -1.05167548876460       -0.04363587762136
C            0.84844861709667        0.22021862155012       -0.02614128163997
C            0.05508644801663        1.40237182004190       -0.02811217531493
O            0.41369878192365        2.56404287064480       -0.00339706688784
N           -1.33541031966159        1.07422139971479       -0.03468329987371
C           -2.27726392463071        2.18214465505828       -0.04652628902642
C           -1.90852957783894       -0.17348953792872       -0.05430439422552
O           -3.10556010857707       -0.33857185731705       -0.06708996222365
N           -1.03606392162539       -1.27274265374569       -0.05473694016353
C           -1.58845937342397       -2.61296868350995       -0.06502053619962
H            3.65973474023267        1.16007057067055        1.06591947003780
H            3.93696499978318        0.96276737816185       -0.67205221493840
H            2.65530498006851        2.05839365746078       -0.09302061569935
H            5.52799809836193       -1.76012889396448       -0.05590286767852
H           -1.70798218147503        3.10945569271211       -0.02132746319665
H           -2.88743567982297        2.14027007951850       -0.94932911149076
H           -2.93706670668754        2.12083453816883        0.81879102360530
H           -1.28360129108819       -3.16181296916908        0.82745510458745
H           -1.26230644122370       -3.14911156193488       -0.95741560926833
H           -2.67274955015009       -2.51727859957770       -0.07677689917738
H            1.25903181396400       -2.93332336836256        0.01008694322228
25
 energy: 53.276194414116 xtb: 6.6.1 (8d0f1dd)
C            3.17546808347761        1.12152110576768        0.08991275686714
N            2.22248149404606        0.03790083776764        0.05903172626969
C            2.51537200643566       -1.25582944338154        0.17123584955096
N            1.33717413130552       -1.92525253018125        0.00729063535918
C            0.30016071401707       -1.04785664382732       -0.04186849471992
C            0.84956436734867        0.21981005202409       -0.02284582775350
C            0.04696264688616        1.39772314196644       -0.02038606268667
O            0.41935544602703        2.55536747706349       -0.00340545963284
N           -1.33325233778692        1.07432817014982       -0.03193936483478
C           -2.27717072254119        2.18253071238716       -0.04813363641316
C           -1.90388112723226       -0.17530180926149       -0.04966420250187
O           -3.10229909466678       -0.33854036463856       -0.06665495214191
N           -1.03737389243186       -1.27279893465139       -0.05150909042056
C           -1.58783451449370       -2.61162800450688       -0.06390220937004
H            3.66188273876980        1.16180789383792        1.06346922901225
H            3.93817800688734        0.96498389968218       -0.67397637388093
H            2.65529415733907        2.06029695183621       -0.09392162708086
H            5.50593203808184       -1.77206845588087       -0.02879386093926
H           -1.70765630654526        3.10940800688796       -0.02408833884751
H           -2.88615939875428        2.13777258656867       -0.95116283865796
H           -2.93791240225234        2.12152635942944        0.81613006319178
H           -1.28446211311956       -3.16219601355340        0.82876295866062
H           -1.26245067291384       -3.14840652533436       -0.95671079001297
H           -2.67254675293500       -2.51498407064904       -0.07555026705677
H            1.27738781002361       -2.93108561075852       -0.00428590976550
25
 energy: 52.751454883327 xtb: 6.6.1 (8d0f1dd)
C            3.17539866271967        1.12380884146145        0.08761945555430
N            2.22339966351061        0.04774858189695        0.05994898620088
C            2.51415121153189       -1.25718100450682        0.12652468564245
N            1.33720031604528       -1.92250570739954        0.00423676687442
C            0.30021005696938       -1.04393020695667       -0.03566609584130
C            0.84934905690786        0.21905881582952       -0.01425475977022
C            0.03374605738547        1.39446702373462       -0.01435806207723
O            0.42395688916901        2.54751480599654       -0.00426707994492
N           -1.33192910662539        1.07663664816796       -0.03237790836902
C           -2.27829466618157        2.18428740851660       -0.04857419191304
C           -1.90022279689489       -0.17685963479267       -0.04950491321641
O           -3.10097549902041       -0.33615554514214       -0.06934962561916
N           -1.04153486323239       -1.27317613484059       -0.04796449987778
C           -1.58774929540881       -2.61089300550618       -0.06280483243945
H            3.66333902982413        1.16265431908786        1.06110489226253
H            3.93934744672402        0.96741858653595       -0.67544063476339
H            2.65644859998030        2.06390242649879       -0.09356103620274
H            5.49695383195550       -1.79133995026238        0.00782514396427
H           -1.70762128446097        3.10995170843526       -0.02434927489327
H           -2.88687199864223        2.13776958005932       -0.95129926998298
H           -2.93823498456532        2.12098455324165        0.81567177532859
H           -1.28562651710486       -3.16231831269961        0.83039237821393
H           -1.26083118508676       -3.14789311006831       -0.95528884168146
H           -2.67308531660066       -2.51556987916405       -0.07623000452920
H            1.29169099607359       -2.92935201937944       -0.01099914072519
25
 energy: 52.458971012343 xtb: 6.6.1 (8d0f1dd)
C            3.17390169292068        1.12363101096077        0.08413462556988
N            2.22199017076286        0.05393483233370        0.05459881634886
C            2.52472954994888       -1.25820136170646        0.07259922726248
N            1.33642757269189       -1.92190253400641        0.00092043268001
C            0.29855645627639       -1.04240571073580       -0.02255808274895
C            0.84830631488870        0.21784287091188        0.00237883388447
C            0.02417377833945        1.39582620364847       -0.00567266611353
O            0.42471011077439        2.54556485934779       -0.00226508324683
N           -1.33129244265830        1.07979818361876       -0.03104110374759
C           -2.28002359297272        2.18582444002981       -0.05080327906081
C           -1.90029980189787       -0.17830316244506       -0.04656533194191
O           -3.10234307697257       -0.33268255681441       -0.07089889377947
N           -1.04504838239084       -1.27296391914951       -0.04129687811986
C           -1.58853176116486       -2.61056228580633       -0.06241517605178
H            3.65996299668134        1.16045794663340        1.05979512793217
H            3.93966035071579        0.96490221285746       -0.67596945595200
H            2.65801967692624        2.06563957512321       -0.09585672644336
H            5.51245095716951       -1.80403539726066        0.04811817937921
H           -1.70966030579386        3.11142912540423       -0.02708104841037
H           -2.88705059944498        2.13711363379908       -0.95415713842226
H           -2.94071636961385        2.12242170989782        0.81273748632145
H           -1.28562669618871       -3.16356105174748        0.82934613701098
H           -1.26005154659732       -3.14471323405998       -0.95603766624739
H           -2.67425800938886       -2.51783926143813       -0.07646140478808
H            1.29422726196107       -2.92818734065214       -0.01851501912072
25
 energy: 52.301846951694 xtb: 6.6.1 (8d0f1dd)
C            3.17222188272260        1.12163785507535        0.08194683486144
N            2.21876549570262        0.05148869650299        0.04343111890901
C            2.53313729748076       -1.25725682660182        0.04098101166639
N            1.33583137231542       -1.92215748519601        0.00137785800592
C            0.29686522779689       -1.04304300156812       -0.01474242478313
C            0.84693369342884        0.21775949852811        0.00993431647696
C            0.02414390854888        1.39927865351132       -0.00642240638164
O            0.42195758127367        2.54892883813760       -0.00286405927289
N           -1.33155689913329        1.08091749961569       -0.03345928923097
C           -2.28062569984516        2.18617602926625       -0.04923553352358
C           -1.90316731764281       -0.17918570730731       -0.05074211958464
O           -3.10475395656756       -0.33071603127093       -0.07400224758346
N           -1.04559389977975       -1.27189348632407       -0.04017898197211
C           -1.58932323498802       -2.61079196042026       -0.06256630042470
H            3.65458560563099        1.15669419750873        1.06033043310355
H            3.93987579235718        0.96200022305231       -0.67472614768748
H            2.65911535905227        2.06509034597404       -0.09742788336491
H            5.53542484259572       -1.80409765667573        0.07440499293051
H           -1.71084477327127        3.11239401552898       -0.02382088719074
H           -2.88902417716480        2.13989395406325       -0.95187060147548
H           -2.93977685296418        2.12109163004909        0.81552711837627
H           -1.28566323086009       -3.16289753548936        0.82896454102564
H           -1.25925815190608       -3.14436327277180       -0.95583418266856
H           -2.67494805439335       -2.52003981439470       -0.07768109795713
H            1.28789249458295       -2.92787987004956       -0.01429015005970
25