25
 energy: -42.497038598739 xtb: 6.6.1 (8d0f1dd)
C            3.17375062072803        1.12224738451900        0.08804324585065
N            2.21926363075629        0.04445180639387        0.05715792346115
C            2.53307817887883       -1.25641683328060        0.09640138459022
N            1.33768527304620       -1.92373669381292        0.01996525446143
C            0.29881298682961       -1.04530638957010       -0.02420483618276
C            0.84681362432608        0.21844090428974        0.00310734521036
C            0.03136246923583        1.39762645439548       -0.00985622296400
O            0.41838129827254        2.54969818744541       -0.00402618001067
N           -1.33295462704794        1.07701585486553       -0.03346244946898
C           -2.27999831450683        2.18363241345132       -0.05057404387058
C           -1.90380875869083       -0.18044709137145       -0.05026568385632
O           -3.10404617548937       -0.33596804370320       -0.06742711853318
N           -1.04234020996809       -1.27269481834066       -0.04887119751519
C           -1.59264512073145       -2.61342381422715       -0.06505574915588
H            3.66134871852648        1.16062687630796        1.06188978396089
H            3.93656570138088        0.96255317674974       -0.67347252226607
H            2.65679744325851        2.06278278649648       -0.09435606478631
H            5.54541658346732       -1.73095565033810       -0.05200819828183
H           -1.71032510990285        3.11015330566165       -0.02561276520320
H           -2.88704126889187        2.13774696820515       -0.95429812056690
H           -2.94013256185392        2.12131449997364        0.81382588716866
H           -1.28705625175707       -3.16064632909957        0.82806246380782
H           -1.26447655172843       -3.14960428524763       -0.95721349179506
H           -2.67787867795657       -2.52048098431175       -0.07620309269237
H            1.28469473572291       -2.92824584674187       -0.00682462193905
