      -----------------------------------------------------------      
     |                   =====================                   |     
     |                           x T B                           |     
     |                   =====================                   |     
     |                         S. Grimme                         |     
     |          Mulliken Center for Theoretical Chemistry        |     
     |                    University of Bonn                     |     
      -----------------------------------------------------------      

   * xtb version 6.6.1 (8d0f1dd) compiled by 'conda@1efc2f54142f' on 2023-08-01

   xtb is free software: you can redistribute it and/or modify it under
   the terms of the GNU Lesser General Public License as published by
   the Free Software Foundation, either version 3 of the License, or
   (at your option) any later version.
   
   xtb is distributed in the hope that it will be useful,
   but WITHOUT ANY WARRANTY; without even the implied warranty of
   MERCHANTABILITY or FITNESS FOR A PARTICULAR PURPOSE.  See the
   GNU Lesser General Public License for more details.
   
   Cite this work as:
   * C. Bannwarth, E. Caldeweyher, S. Ehlert, A. Hansen, P. Pracht,
     J. Seibert, S. Spicher, S. Grimme, WIREs Comput. Mol. Sci., 2020, 11,
     e01493. DOI: 10.1002/wcms.1493
   
   for GFN2-xTB:
   * C. Bannwarth, S. Ehlert and S. Grimme., J. Chem. Theory Comput., 2019,
     15, 1652-1671. DOI: 10.1021/acs.jctc.8b01176
   for GFN1-xTB:
   * S. Grimme, C. Bannwarth, P. Shushkov, J. Chem. Theory Comput., 2017,
     13, 1989-2009. DOI: 10.1021/acs.jctc.7b00118
   for GFN0-xTB:
   * P. Pracht, E. Caldeweyher, S. Ehlert, S. Grimme, ChemRxiv, 2019, preprint.
     DOI: 10.26434/chemrxiv.8326202.v1
   for GFN-FF:
   * S. Spicher and S. Grimme, Angew. Chem. Int. Ed., 2020, 59, 15665-15673.
     DOI: 10.1002/anie.202004239
   
   for ALPB and GBSA implicit solvation:
   * S. Ehlert, M. Stahn, S. Spicher, S. Grimme, J. Chem. Theory Comput.,
     2021, 17, 4250-4261. DOI: 10.1021/acs.jctc.1c00471
   
   for DFT-D4:
   * E. Caldeweyher, C. Bannwarth and S. Grimme, J. Chem. Phys., 2017,
     147, 034112. DOI: 10.1063/1.4993215
   * E. Caldeweyher, S. Ehlert, A. Hansen, H. Neugebauer, S. Spicher,
     C. Bannwarth and S. Grimme, J. Chem. Phys., 2019, 150, 154122.
     DOI: 10.1063/1.5090222
   * E. Caldeweyher, J.-M. Mewes, S. Ehlert and S. Grimme, Phys. Chem. Chem. Phys.
     2020, 22, 8499-8512. DOI: 10.1039/D0CP00502A
   
   for sTDA-xTB:
   * S. Grimme and C. Bannwarth, J. Chem. Phys., 2016, 145, 054103.
     DOI: 10.1063/1.4959605
   
   in the mass-spec context:
   * V. Asgeirsson, C. Bauer and S. Grimme, Chem. Sci., 2017, 8, 4879.
     DOI: 10.1039/c7sc00601b
   * J. Koopman and S. Grimme, ACS Omega 2019, 4, 12, 15120-15133.
     DOI: 10.1021/acsomega.9b02011
   
   for metadynamics refer to:
   * S. Grimme, J. Chem. Theory Comput., 2019, 155, 2847-2862
     DOI: 10.1021/acs.jctc.9b00143
   
   for SPH calculations refer to:
   * S. Spicher and S. Grimme, J. Chem. Theory Comput., 2021, 17, 1701-1714
     DOI: 10.1021/acs.jctc.0c01306
   
   with help from (in alphabetical order)
   P. Atkinson, C. Bannwarth, F. Bohle, G. Brandenburg, E. Caldeweyher
   M. Checinski, S. Dohm, S. Ehlert, S. Ehrlich, I. Gerasimov, C. Hölzer
   A. Katbashev, J. Koopman, C. Lavigne, S. Lehtola, F. März, M. Müller,
   F. Musil, H. Neugebauer, J. Pisarek, C. Plett, P. Pracht, F. Pultar,
   J. Seibert, P. Shushkov, S. Spicher, M. Stahn, M. Steiner, T. Strunk,
   J. Stückrath, T. Rose, and J. Unsleber
   
 * started run on 2024/04/06 at 11:14:44.570     

           -------------------------------------------------
          |                Calculation Setup                |
           -------------------------------------------------

          program call               : xtb xtbopt.xyz --opt crude --input .xc2 --gfn2
          hostname                   : n-62-30-23
          coordinate file            : xtbopt.xyz
          omp threads                :                     1

   ID    Z sym.   atoms
    1    7 N      1, 17
    2    6 C      2-6, 8, 9, 11-16, 18-23, 25, 26, 28-33
    3    8 O      7, 10, 24, 27
    4    1 H      34-72

molecular fragmentation (1/2 indicates fragments):
111111111111111111111111111111111111111111111111111111111112111111111111
# atoms in fragment 1/2:    71     1
 fragment masses (1/2) :      454.60        1.01
CMA distance (Bohr)    :   6.250
constraining FC (au)   :  0.0500
########################################################################
[WARNING] Please study the warnings concerning your input carefully
-1- readin_getIntValue: could not parse ''
########################################################################

           -------------------------------------------------
          |                 G F N 2 - x T B                 |
           -------------------------------------------------

        Reference                      10.1021/acs.jctc.8b01176
      * Hamiltonian:
        H0-scaling (s, p, d)           1.850000    2.230000    2.230000
        zeta-weighting                 0.500000
      * Dispersion:
        s8                             2.700000
        a1                             0.520000
        a2                             5.000000
        s9                             5.000000
      * Repulsion:
        kExp                           1.500000    1.000000
        rExp                           1.000000
      * Coulomb:
        alpha                          2.000000
        third order                    shell-resolved
        anisotropic                    true
        a3                             3.000000
        a5                             4.000000
        cn-shift                       1.200000
        cn-exp                         4.000000
        max-rad                        5.000000

q/qsh data taken from xtbrestart
CAMM data taken from xtbrestart

          ...................................................
          :                      SETUP                      :
          :.................................................:
          :  # basis functions                 171          :
          :  # atomic orbitals                 171          :
          :  # shells                          105          :
          :  # electrons                       180          :
          :  max. iterations                   250          :
          :  Hamiltonian                  GFN2-xTB          :
          :  restarted?                       true          :
          :  GBSA solvation                  false          :
          :  PC potential                    false          :
          :  electronic temp.         5000.0000000     K    :
          :  accuracy                    1.0000000          :
          :  -> integral cutoff          0.2500000E+02      :
          :  -> integral neglect         0.1000000E-07      :
          :  -> SCF convergence          0.1000000E-05 Eh   :
          :  -> wf. convergence          0.1000000E-03 e    :
          :  Broyden damping             0.4000000          :
          ...................................................

 iter      E             dE          RMSdq      gap      omega  full diag
   1   -100.6700766 -0.100670E+03  0.217E-05    1.28       0.0  T
   2   -100.6700766  0.464695E-10  0.279E-05    1.28     422.7  T
   3   -100.6700766 -0.601830E-10  0.130E-05    1.28     909.1  T

   *** convergence criteria satisfied after 3 iterations ***

         #    Occupation            Energy/Eh            Energy/eV
      -------------------------------------------------------------
         1        2.0000           -0.8562640             -23.3001
       ...           ...                  ...                  ...
        84        1.9914           -0.5150197             -14.0144
        85        1.9907           -0.5138164             -13.9817
        86        1.9702           -0.4952429             -13.4762
        87        1.9376           -0.4832570             -13.1501
        88        1.9062           -0.4765545             -12.9677
        89        1.7983           -0.4635079             -12.6127
        90        1.7224           -0.4577654             -12.4564 (HOMO)
        91        0.4840           -0.4107870             -11.1781 (LUMO)
        92        0.2205           -0.3958020             -10.7703
        93        0.0097           -0.3446269              -9.3778
        94        0.0026           -0.3237264              -8.8090
        95        0.0022           -0.3208864              -8.7318
       ...           ...                  ...                  ...
       171                          0.5668234              15.4241
      -------------------------------------------------------------
                  HL-Gap            0.0469783 Eh            1.2783 eV
             Fermi-level           -0.4288637 Eh          -11.6700 eV

 SCC (total)                   0 d,  0 h,  0 min,  0.120 sec
 SCC setup                      ...        0 min,  0.001 sec (  0.963%)
 Dispersion                     ...        0 min,  0.002 sec (  1.437%)
 classical contributions        ...        0 min,  0.000 sec (  0.362%)
 integral evaluation            ...        0 min,  0.018 sec ( 15.135%)
 iterations                     ...        0 min,  0.029 sec ( 23.997%)
 molecular gradient             ...        0 min,  0.069 sec ( 57.546%)
 printout                       ...        0 min,  0.001 sec (  0.547%)

         :::::::::::::::::::::::::::::::::::::::::::::::::::::
         ::                     SUMMARY                     ::
         :::::::::::::::::::::::::::::::::::::::::::::::::::::
         :: total energy             -99.287465705560 Eh    ::
         :: gradient norm              0.002336446545 Eh/a0 ::
         :: HOMO-LUMO gap              1.278344979960 eV    ::
         ::.................................................::
         :: SCC energy              -100.670076553555 Eh    ::
         :: -> isotropic ES            0.136593048369 Eh    ::
         :: -> anisotropic ES         -0.009323531797 Eh    ::
         :: -> anisotropic XC          0.047182189734 Eh    ::
         :: -> dispersion             -0.095655596346 Eh    ::
         :: repulsion energy           1.381355550310 Eh    ::
         :: add. restraining           0.000000000000 Eh    ::
         :: total charge               1.000000000012 e     ::
         :::::::::::::::::::::::::::::::::::::::::::::::::::::

      ----------------------------------------------------------- 
     |                   =====================                   |
     |                        A N C O P T                        |
     |                   =====================                   |
     |               Approximate Normal Coordinate               |
     |                Rational Function Optimizer                |
      ----------------------------------------------------------- 

          ...................................................
          :                      SETUP                      :
          :.................................................:
          :   optimization level             crude          :
          :   max. optcycles                   200          :
          :   ANC micro-cycles                  20          :
          :   degrees of freedom               210          :
          :.................................................:
          :   RF solver                   davidson          :
          :   write xtbopt.log                true          :
          :   linear?                        false          :
          :   energy convergence         0.5000000E-03 Eh   :
          :   grad. convergence          0.1000000E-01 Eh/α :
          :   maxmium RF displ.          1.0000000          :
          :   Hlow (freq-cutoff)         0.1000000E-01      :
          :   Hmax (freq-cutoff)         5.0000000          :
          :   S6 in model hess.         20.0000000          :
          ...................................................

generating ANC from model Hessian ...
Using Lindh-Hessian (1995)
 Shifting diagonal of input Hessian by    1.7860683663568390E-002
 Lowest  eigenvalues of input Hessian
    0.010000    0.013072    0.015097    0.000000    0.000000    0.000000
    0.000000    0.000000    0.000000    0.017899    0.017907    0.017989
    0.018120    0.018169    0.018414    0.018483    0.018664    0.018746
 Highest eigenvalues
    2.050951    2.091793    2.120133    2.129412    2.192580    2.210109


........................................................................
.............................. CYCLE    1 ..............................
........................................................................

 iter      E             dE          RMSdq      gap      omega  full diag
   1   -100.6700766 -0.100670E+03  0.106E-05    1.28       0.0  T
   2   -100.6700766  0.236753E-10  0.162E-05    1.28     727.5  T
   3   -100.6700766 -0.264464E-10  0.664E-06    1.28    1773.5  T
     SCC iter.                  ...        0 min,  0.026 sec
     gradient                   ...        0 min,  0.069 sec
 * total energy  :   -99.2874657 Eh     change       -0.8029133E-11 Eh
   gradient norm :     0.0023359 Eh/α   predicted     0.0000000E+00 (-100.00%)
   displ. norm   :     0.0382523 α      lambda       -0.3434671E-04
   maximum displ.:     0.0230528 α      in ANC's #2, #3, #5, ...

   *** GEOMETRY OPTIMIZATION CONVERGED AFTER 1 ITERATIONS ***

------------------------------------------------------------------------
 total energy gain   :        -0.0000000 Eh       -0.0000 kcal/mol
 total RMSD          :         0.0000000 a0        0.0000 Å
 total power (kW/mol):        -0.0000000 (step)   -0.0000 (real)
------------------------------------------------------------------------

 ANCopt (total)                0 d,  0 h,  0 min,  0.179 sec
 optimizer setup                ...        0 min,  0.000 sec (  0.164%)
 model hessian                  ...        0 min,  0.053 sec ( 29.509%)
 ANC generation                 ...        0 min,  0.006 sec (  3.624%)
 coordinate transformation      ...        0 min,  0.000 sec (  0.027%)
 single point calculation       ...        0 min,  0.117 sec ( 65.189%)
 optimization log               ...        0 min,  0.002 sec (  0.956%)
 hessian update                 ...        0 min,  0.000 sec (  0.001%)
 rational function              ...        0 min,  0.001 sec (  0.288%)

================
 final structure:
================
72
 xtb: 6.6.1 (8d0f1dd)
N           -1.81860955635024        2.74024675509187        2.19476954484665
C           -1.82653179719842        1.96762060258004        1.21458247842866
C           -3.00443138434376        1.76635688253515        0.29954832975651
C           -3.46837809884533        0.31966928958194        0.39075162471510
C           -4.39190774709458       -0.17392469936531       -0.53220394884559
C           -4.85865558153150       -1.47688959934381       -0.46340458097903
O           -5.74953991118913       -2.03050691874902       -1.30779983105092
C           -6.31846092498428       -1.24637489063762       -2.32993556653278
C           -4.38404740175689       -2.33795486396397        0.56626553761142
O           -4.88704938684040       -3.58358697173486        0.55425372425081
C           -4.50657974298205       -4.49180230725288        1.56295749871451
C           -3.46933621200600       -1.83782589384174        1.48196965069136
C           -3.02228158962617       -0.52767796019221        1.39608115882315
C           -2.49913243875346        2.07012903686488       -1.13463095397994
C           -1.51322481314113        1.02928547206600       -1.68541694303787
C           -0.14340518768648        1.19316134348109       -1.15185329934024
N            0.69929320050406        0.23515483364343       -0.88055733598230
C            2.05915719897727        0.53794903219004       -0.50644096310149
C            3.02110357758404        0.38487273813842       -1.69976579983699
C            4.43354976130284        0.32246371486563       -1.19389067330362
C            5.36654231331018        1.32824551364719       -1.40800498967607
C            6.64864169368469        1.23351808257910       -0.88844871465187
C            7.02859931557557        0.14448734564649       -0.10869877585544
O            8.22702845621200       -0.02844385483783        0.46924971318361
C            9.22638397974583        0.95541627561501        0.29990838129072
C            6.06453819684569       -0.87069879021912        0.12922888347395
O            6.44923993390982       -1.90768986667052        0.92638659666810
C            5.62500798503903       -2.73357959026614        1.47779533743876
C            4.80621113894793       -0.78300017818587       -0.44559642639095
C            0.34861768894345       -1.16268283815768       -0.92708796877277
C           -4.21335970911211        2.68896937403380        0.63713305104295
C           -4.78662081525172        2.37541039351626        2.01676690196772
C           -3.88294493030667        4.17618328683806        0.54295220812485
H           -4.76353064281751        0.47331375412441       -1.30917515883263
H           -6.86288947646350       -0.38913364694190       -1.92249920119286
H           -7.01606489131309       -1.90250045704660       -2.84672116358204
H           -5.55997800615586       -0.89749191333121       -3.03819677275374
H           -4.78820461445789       -4.12743829237179        2.55521305129368
H           -5.04912379108254       -5.41028965623978        1.34788662449250
H           -3.43100366574537       -4.69090552171501        1.53788999099230
H           -3.10074483341598       -2.46191879512630        2.27927995003990
H           -2.33158116427924       -0.17053262422092        2.14358400902407
H           -3.35879019314450        2.12012765590188       -1.80182435060284
H           -2.02358917321276        3.05142478645793       -1.14062342487132
H           -1.89854752333802        0.02329965363732       -1.51912416479323
H           -1.44929437787607        1.17772001798701       -2.77102483129879
H           -0.94871732393740        1.37733603092233        0.89731313855770
H            0.23256800765271        2.20521094674151       -1.07551987860331
H            2.35340872770709       -0.17460965858474        0.27086979310467
H            2.12375377660521        1.55151012007378       -0.10743598305017
H            2.89090185491722        1.21303487346175       -2.39842440353585
H            2.79228823835717       -0.54978117217986       -2.21447285784764
H            5.10348435151224        2.19530147257761       -1.99446531526439
H            7.35176606733265        2.02567832741667       -1.08745201977311
H            8.91141545024308        1.91833002125203        0.71103702256402
H            9.49398548037467        1.07396403632334       -0.75374283389307
H           10.08934967676310        0.59095211845523        0.85377830285915
H            6.08924857925543       -3.51026996751373        2.06361727700213
H            4.54773462571592       -2.65323588212439        1.39871006120746
H            2.55192004737620       -1.95628535093988        0.87801703704082
H            4.09085056859128       -1.57305991506815       -0.28546795312900
H            0.36712090711316       -1.53956010716575       -1.94974885360615
H           -0.64301393791826       -1.32663914004630       -0.50800049212242
H            1.07154531347044       -1.72423304616278       -0.32956721124382
H           -4.98762888438336        2.46646485797422       -0.10632647365351
H           -4.05577016889393        2.60672322853024        2.78522216927474
H           -5.06633327653537        1.32789504668042        2.09825300176061
H           -5.67249557057397        2.98063952167744        2.18935002604523
H           -3.07849643356672        4.42734873680769        1.22721766078847
H           -3.60385863750981        4.46917341908985       -0.46563067740114
H           -4.75955600342991        4.75345405773385        0.82418052328466
H           -0.96503069748534        2.81662123595933        2.73842537463711

 Bond Distances (Angstroems)
 ---------------------------
N1-C2=1.2481         N1-H72=1.0149        C2-N1=1.2481         C2-C3=1.5051         C2-H47=1.1044        C3-C2=1.5051         
C3-C4=1.5220         C3-C14=1.5506        C3-C31=1.5578        C4-C3=1.5220         C4-C5=1.3958         C4-C13=1.3884        
C5-C4=1.3958         C5-C6=1.3858         C5-H34=1.0774        C6-C5=1.3858         C6-O7=1.3465         C6-C9=1.4237         
O7-C6=1.3465         O7-C8=1.4083         C8-O7=1.4083         C8-H35=1.0942        C8-H36=1.0882        C8-H37=1.0948        
C9-C6=1.4237         C9-O10=1.3434        C9-C12=1.3876        O10-C9=1.3434        O10-C11=1.4096       C11-O10=1.4096       
C11-H38=1.0939       C11-H39=1.0882       C11-H40=1.0941       C12-C9=1.3876        C12-C13=1.3870       C12-H41=1.0775       
C13-C4=1.3884        C13-C12=1.3870       C13-H42=1.0786       C14-C3=1.5506        C14-C15=1.5358       C14-H43=1.0893       
C14-H44=1.0905       C15-C14=1.5358       C15-C16=1.4792       C15-H45=1.0900       C15-H46=1.0976       C16-C15=1.4792       
C16-N17=1.3044       C16-H48=1.0823       N17-C16=1.3044       N17-C18=1.4425       N17-C30=1.4419       C18-N17=1.4425       
C18-C19=1.5404       C18-H49=1.0948       C18-H50=1.0912       C19-C18=1.5404       C19-C20=1.5016       C19-H51=1.0913       
C19-H52=1.0913       C20-C19=1.5016       C20-C21=1.3885       C20-C29=1.3860       C21-C20=1.3885       C21-C22=1.3866       
C21-H53=1.0793       C22-C21=1.3866       C22-C23=1.3923       C22-H54=1.0777       C23-C22=1.3923       C23-O24=1.3417       
C23-C26=1.4201       O24-C23=1.3417       O24-C25=1.4126       C25-O24=1.4126       C25-H55=1.0934       C25-H56=1.0935       
C25-H57=1.0883       C26-C23=1.4201       C26-O27=1.3634       C26-C29=1.3862       O27-C26=1.3634       O27-C28=1.2905       
C28-O27=1.2905       C28-H58=1.0779       C28-H59=1.0832       C29-C20=1.3860       C29-C26=1.3862       C29-H61=1.0778       
C30-N17=1.4419       C30-H62=1.0901       C30-H63=1.0890       C30-H64=1.0932       C31-C3=1.5578        C31-C32=1.5265       
C31-C33=1.5264       C31-H65=1.0962       C32-C31=1.5265       C32-H66=1.0854       C32-H67=1.0873       C32-H68=1.0867       
C33-C31=1.5264       C33-H69=1.0856       C33-H70=1.0867       C33-H71=1.0866       H34-C5=1.0774        H35-C8=1.0942        
H36-C8=1.0882        H37-C8=1.0948        H38-C11=1.0939       H39-C11=1.0882       H40-C11=1.0941       H41-C12=1.0775       
H42-C13=1.0786       H43-C14=1.0893       H44-C14=1.0905       H45-C15=1.0900       H46-C15=1.0976       H47-C2=1.1044        
H48-C16=1.0823       H49-C18=1.0948       H50-C18=1.0912       H51-C19=1.0913       H52-C19=1.0913       H53-C21=1.0793       
H54-C22=1.0777       H55-C25=1.0934       H56-C25=1.0935       H57-C25=1.0883       H58-C28=1.0779       H59-C28=1.0832       
H61-C29=1.0778       H62-C30=1.0901       H63-C30=1.0890       H64-C30=1.0932       H65-C31=1.0962       H66-C32=1.0854       
H67-C32=1.0873       H68-C32=1.0867       H69-C33=1.0856       H70-C33=1.0867       H71-C33=1.0866       H72-N1=1.0149        
 C  H  Rav=1.0883 sigma=0.0064  Rmin=1.0774  Rmax=1.1044    37
 C  C  Rav=1.4533 sigma=0.0674  Rmin=1.3858  Rmax=1.5578    22
 N  H  Rav=1.0149 sigma=0.0000  Rmin=1.0149  Rmax=1.0149     1
 N  C  Rav=1.3592 sigma=0.0853  Rmin=1.2481  Rmax=1.4425     4
 O  C  Rav=1.3645 sigma=0.0404  Rmin=1.2905  Rmax=1.4126     8

 selected bond angles (degree)
 --------------------
H72-N1-C2=118.20               C3-C2-N1=124.42                H47-C2-N1=123.47               H47-C2-C3=112.08               
C4-C3-C2=109.22                C14-C3-C2=106.32               C14-C3-C4=109.94               C31-C3-C2=113.35               
C31-C3-C4=108.26               C31-C3-C14=109.71              C5-C4-C3=119.88                C13-C4-C3=121.71               
C13-C4-C5=118.39               C6-C5-C4=121.50                H34-C5-C4=119.51               H34-C5-C6=118.98               
O7-C6-C5=125.33                C9-C6-C5=119.49                C9-C6-O7=115.18                C8-O7-C6=119.57                
H35-C8-O7=111.53               H36-C8-O7=105.54               H36-C8-H35=109.28              H37-C8-O7=111.54               
H37-C8-H35=109.63              H37-C8-H36=109.21              O10-C9-C6=115.44               C12-C9-C6=118.62               
C12-C9-O10=125.94              C11-O10-C9=119.34              

 selected dihedral angles (degree)
 ---------------------------------
C3-C2-N1-H72=181.19           H47-C2-N1-H72=358.85          C4-C3-C2-N1=242.71            C4-C3-C2-H47= 64.82           
C14-C3-C2-N1=124.13           C14-C3-C2-H47=306.24          C31-C3-C2-N1=  3.51           C31-C3-C2-H47=185.62          
C5-C4-C3-C2=191.23            C5-C4-C3-C14=307.53           C5-C4-C3-C31= 67.37           C13-C4-C3-C2= 12.89           
C13-C4-C3-C14=129.19          C13-C4-C3-C31=249.03          C6-C5-C4-C3=181.39            C6-C5-C4-C13=359.78           
H34-C5-C4-C3=  0.52           H34-C5-C4-C13=178.91          O7-C6-C5-C4=179.80            O7-C6-C5-H34=  0.66           
C9-C6-C5-C4=359.70            C9-C6-C5-H34=180.57           C8-O7-C6-C5=357.47            C8-O7-C6-C9=177.56            
H35-C8-O7-C6=300.24           H36-C8-O7-C6=181.68           H37-C8-O7-C6= 63.19           O10-C9-C6-C5=180.18           
O10-C9-C6-O7=  0.09           C12-C9-C6-C5=  0.49           C12-C9-C6-O7=180.40           C11-O10-C9-C6=182.05          
C11-O10-C9-C12=  1.72         

 CMA Distance (Angstroems)
 ---------------------------
R(CMA):  3.3072
           -------------------------------------------------
          |                Final Singlepoint                |
           -------------------------------------------------

          ...................................................
          :                      SETUP                      :
          :.................................................:
          :  # basis functions                 171          :
          :  # atomic orbitals                 171          :
          :  # shells                          105          :
          :  # electrons                       180          :
          :  max. iterations                   250          :
          :  Hamiltonian                  GFN2-xTB          :
          :  restarted?                      false          :
          :  GBSA solvation                  false          :
          :  PC potential                    false          :
          :  electronic temp.         5000.0000000     K    :
          :  accuracy                    1.0000000          :
          :  -> integral cutoff          0.2500000E+02      :
          :  -> integral neglect         0.1000000E-07      :
          :  -> SCF convergence          0.1000000E-05 Eh   :
          :  -> wf. convergence          0.1000000E-03 e    :
          :  Broyden damping             0.4000000          :
          ...................................................

 iter      E             dE          RMSdq      gap      omega  full diag
   1   -100.6700766 -0.100670E+03  0.337E-06    1.28       0.0  T
   2   -100.6700766 -0.582645E-12  0.271E-06    1.28    4352.4  T
   3   -100.6700766  0.369482E-12  0.154E-06    1.28    7631.0  T

   *** convergence criteria satisfied after 3 iterations ***

         #    Occupation            Energy/Eh            Energy/eV
      -------------------------------------------------------------
         1        2.0000           -0.8562638             -23.3001
       ...           ...                  ...                  ...
        84        1.9914           -0.5150198             -14.0144
        85        1.9907           -0.5138164             -13.9817
        86        1.9702           -0.4952429             -13.4762
        87        1.9376           -0.4832570             -13.1501
        88        1.9062           -0.4765546             -12.9677
        89        1.7983           -0.4635079             -12.6127
        90        1.7224           -0.4577654             -12.4564 (HOMO)
        91        0.4840           -0.4107868             -11.1781 (LUMO)
        92        0.2205           -0.3958021             -10.7703
        93        0.0097           -0.3446270              -9.3778
        94        0.0026           -0.3237264              -8.8090
        95        0.0022           -0.3208864              -8.7318
       ...           ...                  ...                  ...
       171                          0.5668234              15.4240
      -------------------------------------------------------------
                  HL-Gap            0.0469786 Eh            1.2784 eV
             Fermi-level           -0.4288636 Eh          -11.6700 eV

 SCC (total)                   0 d,  0 h,  0 min,  0.116 sec
 SCC setup                      ...        0 min,  0.001 sec (  0.748%)
 Dispersion                     ...        0 min,  0.002 sec (  1.380%)
 classical contributions        ...        0 min,  0.000 sec (  0.369%)
 integral evaluation            ...        0 min,  0.018 sec ( 15.470%)
 iterations                     ...        0 min,  0.026 sec ( 22.462%)
 molecular gradient             ...        0 min,  0.069 sec ( 59.082%)
 printout                       ...        0 min,  0.001 sec (  0.475%)

         :::::::::::::::::::::::::::::::::::::::::::::::::::::
         ::                     SUMMARY                     ::
         :::::::::::::::::::::::::::::::::::::::::::::::::::::
         :: total energy             -99.287465705571 Eh    ::
         :: gradient norm              0.002336020270 Eh/a0 ::
         :: HOMO-LUMO gap              1.278352330570 eV    ::
         ::.................................................::
         :: SCC energy              -100.670076553566 Eh    ::
         :: -> isotropic ES            0.136593260009 Eh    ::
         :: -> anisotropic ES         -0.009323492241 Eh    ::
         :: -> anisotropic XC          0.047182203230 Eh    ::
         :: -> dispersion             -0.095655667750 Eh    ::
         :: repulsion energy           1.381355550310 Eh    ::
         :: add. restraining           0.000000000000 Eh    ::
         :: total charge               1.000000000012 e     ::
         :::::::::::::::::::::::::::::::::::::::::::::::::::::

           -------------------------------------------------
          |                Property Printout                |
           -------------------------------------------------

    * Orbital Energies and Occupations

         #    Occupation            Energy/Eh            Energy/eV
      -------------------------------------------------------------
         1        2.0000           -0.8562638             -23.3001
       ...           ...                  ...                  ...
        78        1.9973           -0.5336279             -14.5208
        79        1.9972           -0.5329809             -14.5031
        80        1.9966           -0.5297747             -14.4159
        81        1.9957           -0.5259432             -14.3116
        82        1.9937           -0.5200261             -14.1506
        83        1.9928           -0.5178104             -14.0903
        84        1.9914           -0.5150198             -14.0144
        85        1.9907           -0.5138164             -13.9817
        86        1.9702           -0.4952429             -13.4762
        87        1.9376           -0.4832570             -13.1501
        88        1.9062           -0.4765546             -12.9677
        89        1.7983           -0.4635079             -12.6127
        90        1.7224           -0.4577654             -12.4564 (HOMO)
        91        0.4840           -0.4107868             -11.1781 (LUMO)
        92        0.2205           -0.3958021             -10.7703
        93        0.0097           -0.3446270              -9.3778
        94        0.0026           -0.3237264              -8.8090
        95        0.0022           -0.3208864              -8.7318
        96        0.0021           -0.3199988              -8.7076
        97        0.0018           -0.3180341              -8.6541
        98        0.0000           -0.1998717              -5.4388
        99        0.0000           -0.1954633              -5.3188
       100                         -0.1262207              -3.4346
       101                         -0.0727835              -1.9805
       ...                                ...                  ...
       171                          0.5668234              15.4240
      -------------------------------------------------------------
                  HL-Gap            0.0469786 Eh            1.2784 eV
             Fermi-level           -0.4288636 Eh          -11.6700 eV

     #   Z          covCN         q      C6AA      α(0)
     1   7 N        1.774    -0.261    27.598     7.779
     2   6 C        2.826     0.102    25.729     8.312
     3   6 C        3.908     0.007    20.401     6.420
     4   6 C        2.974     0.003    27.946     8.671
     5   6 C        2.919    -0.079    29.973     8.978
     6   6 C        2.862     0.132    25.102     8.212
     7   8 O        1.706    -0.222    17.681     5.677
     8   6 C        3.644     0.026    20.480     6.505
     9   6 C        2.864     0.134    25.075     8.208
    10   8 O        1.706    -0.217    17.609     5.666
    11   6 C        3.645     0.023    20.516     6.510
    12   6 C        2.913    -0.068    29.701     8.937
    13   6 C        2.921    -0.047    29.163     8.856
    14   6 C        3.813    -0.066    21.762     6.640
    15   6 C        3.803    -0.070    21.839     6.653
    16   6 C        2.850     0.023    27.495     8.594
    17   7 N        2.729     0.056    20.264     6.686
    18   6 C        3.763    -0.029    21.139     6.554
    19   6 C        3.809    -0.066    21.759     6.640
    20   6 C        2.970     0.013    27.723     8.637
    21   6 C        2.921    -0.036    28.907     8.817
    22   6 C        2.915    -0.065    29.622     8.925
    23   6 C        2.861     0.144    24.870     8.174
    24   8 O        1.705    -0.221    17.669     5.675
    25   6 C        3.645     0.021    20.553     6.516
    26   6 C        2.877     0.106    25.658     8.304
    27   8 O        1.709    -0.073    15.454     5.308
    28   6 C        2.741     0.057    26.698     8.460
    29   6 C        2.923    -0.058    29.438     8.898
    30   6 C        3.703    -0.081    22.204     6.737
    31   6 C        3.853    -0.007    20.675     6.467
    32   6 C        3.756    -0.119    22.830     6.813
    33   6 C        3.755    -0.120    22.857     6.817
    34   1 H        0.926     0.053     2.277     2.360
    35   1 H        0.924     0.056     2.243     2.342
    36   1 H        0.925     0.084     1.935     2.175
    37   1 H        0.924     0.050     2.317     2.380
    38   1 H        0.924     0.059     2.205     2.322
    39   1 H        0.925     0.085     1.932     2.173
    40   1 H        0.924     0.058     2.228     2.334
    41   1 H        0.926     0.062     2.172     2.305
    42   1 H        0.926     0.048     2.339     2.392
    43   1 H        0.925     0.062     2.172     2.305
    44   1 H        0.924     0.057     2.240     2.340
    45   1 H        0.925     0.073     2.053     2.241
    46   1 H        0.924     0.088     1.902     2.157
    47   1 H        0.923     0.013     2.846     2.638
    48   1 H        0.925     0.078     2.000     2.212
    49   1 H        0.924     0.133     1.514     1.924
    50   1 H        0.924     0.058     2.219     2.330
    51   1 H        0.924     0.052     2.296     2.370
    52   1 H        0.924     0.069     2.093     2.263
    53   1 H        0.926     0.060     2.198     2.319
    54   1 H        0.926     0.068     2.109     2.271
    55   1 H        0.924     0.060     2.204     2.322
    56   1 H        0.924     0.061     2.189     2.314
    57   1 H        0.925     0.086     1.914     2.163
    58   1 H        0.926     0.111     1.685     2.030
    59   1 H        0.925     0.126     1.568     1.958
    60   1 H        0.000    -0.673  1308.020    66.131
    61   1 H        0.926     0.110     1.694     2.036
    62   1 H        0.925     0.078     2.004     2.214
    63   1 H        0.925     0.073     2.049     2.239
    64   1 H        0.924     0.139     1.470     1.896
    65   1 H        0.924     0.040     2.452     2.449
    66   1 H        0.925     0.070     2.086     2.259
    67   1 H        0.925     0.037     2.486     2.466
    68   1 H        0.925     0.054     2.273     2.357
    69   1 H        0.925     0.064     2.149     2.293
    70   1 H        0.925     0.036     2.500     2.473
    71   1 H        0.925     0.057     2.231     2.336
    72   1 H        0.860     0.163     1.315     1.797

 Mol. C6AA /au·bohr⁶  :      62726.899586
 Mol. C8AA /au·bohr⁸  :    1331621.365275
 Mol. α(0) /au        :        396.927612


Wiberg/Mayer (AO) data.
largest (>0.10) Wiberg bond orders for each atom

 ---------------------------------------------------------------------------
     #   Z sym  total        # sym  WBO       # sym  WBO       # sym  WBO
 ---------------------------------------------------------------------------
     1   7 N    3.034 --     2 C    1.960    72 H    0.939
     2   6 C    3.936 --     1 N    1.960     3 C    0.992    47 H    0.906
     3   6 C    3.972 --     2 C    0.992     4 C    0.970    14 C    0.956
                            31 C    0.942
     4   6 C    3.932 --    13 C    1.402     5 C    1.373     3 C    0.970
     5   6 C    3.954 --     6 C    1.394     4 C    1.373    34 H    0.957
     6   6 C    3.889 --     5 C    1.394     9 C    1.211     7 O    1.108
     7   8 O    2.252 --     6 C    1.108     8 C    0.977
     8   6 C    3.928 --     7 O    0.977    36 H    0.976    37 H    0.972
                            35 H    0.972
     9   6 C    3.885 --    12 C    1.379     6 C    1.211    10 O    1.117
    10   8 O    2.253 --     9 C    1.117    11 C    0.974
    11   6 C    3.924 --    39 H    0.976    10 O    0.974    38 H    0.971
                            40 H    0.971
    12   6 C    3.952 --    13 C    1.416     9 C    1.379    41 H    0.962
    13   6 C    3.940 --    12 C    1.416     4 C    1.402    42 H    0.961
    14   6 C    3.979 --    15 C    0.989    44 H    0.971    43 H    0.968
                             3 C    0.956
    15   6 C    3.986 --    16 C    1.059    14 C    0.989    45 H    0.954
                            46 H    0.922
    16   6 C    3.737 --    17 N    1.523    15 C    1.059    48 H    0.953
    17   7 N    3.598 --    16 C    1.523    30 C    0.993    18 C    0.983
    18   6 C    3.923 --    17 N    0.983    50 H    0.969    19 C    0.965
                            49 H    0.920
    19   6 C    3.979 --    20 C    1.010    51 H    0.975    18 C    0.965
                            52 H    0.962
    20   6 C    3.957 --    29 C    1.404    21 C    1.391    19 C    1.010
    21   6 C    3.930 --    22 C    1.431    20 C    1.391    53 H    0.966
    22   6 C    3.956 --    21 C    1.431    23 C    1.365    54 H    0.962
    23   6 C    3.892 --    22 C    1.365    26 C    1.231    24 O    1.125
    24   8 O    2.275 --    23 C    1.125    25 C    0.969
    25   6 C    3.923 --    57 H    0.976    55 H    0.973    56 H    0.973
                            24 O    0.969
    26   6 C    3.884 --    29 C    1.374    23 C    1.231    27 O    1.031
    27   8 O    2.468 --    28 C    1.356    26 C    1.031
    28   6 C    3.417 --    27 O    1.356    58 H    0.960    59 H    0.943
    29   6 C    3.903 --    20 C    1.404    26 C    1.374    61 H    0.931
    30   6 C    3.921 --    17 N    0.993    63 H    0.964    62 H    0.959
                            64 H    0.938
    31   6 C    3.968 --    33 C    1.008    32 C    1.008    65 H    0.958
                             3 C    0.942
    32   6 C    3.973 --    31 C    1.008    67 H    0.981    68 H    0.980
                            66 H    0.972
    33   6 C    3.977 --    31 C    1.008    70 H    0.982    71 H    0.979
                            69 H    0.974
    34   1 H    0.996 --     5 C    0.957
    35   1 H    0.991 --     8 C    0.972
    36   1 H    0.992 --     8 C    0.976
    37   1 H    0.992 --     8 C    0.972
    38   1 H    0.990 --    11 C    0.971
    39   1 H    0.992 --    11 C    0.976
    40   1 H    0.990 --    11 C    0.971
    41   1 H    0.994 --    12 C    0.962
    42   1 H    0.997 --    13 C    0.961
    43   1 H    0.995 --    14 C    0.968
    44   1 H    0.996 --    14 C    0.971
    45   1 H    0.993 --    15 C    0.954
    46   1 H    0.976 --    15 C    0.922
    47   1 H    0.981 --     2 C    0.906
    48   1 H    0.994 --    16 C    0.953
    49   1 H    0.979 --    18 C    0.920
    50   1 H    0.995 --    18 C    0.969
    51   1 H    0.996 --    19 C    0.975
    52   1 H    0.992 --    19 C    0.962
    53   1 H    0.995 --    21 C    0.966
    54   1 H    0.993 --    22 C    0.962
    55   1 H    0.992 --    25 C    0.973
    56   1 H    0.992 --    25 C    0.973
    57   1 H    0.992 --    25 C    0.976
    58   1 H    0.986 --    28 C    0.960
    59   1 H    0.984 --    28 C    0.943
    60   1 H    0.128
    61   1 H    0.985 --    29 C    0.931
    62   1 H    0.986 --    30 C    0.959
    63   1 H    0.991 --    30 C    0.964
    64   1 H    0.980 --    30 C    0.938
    65   1 H    0.989 --    31 C    0.958
    66   1 H    0.989 --    32 C    0.972
    67   1 H    0.995 --    32 C    0.981
    68   1 H    0.993 --    32 C    0.980
    69   1 H    0.991 --    33 C    0.974
    70   1 H    0.996 --    33 C    0.982
    71   1 H    0.992 --    33 C    0.979
    72   1 H    0.967 --     1 N    0.939
 ---------------------------------------------------------------------------

Topologies differ in total number of bonds
Writing topology from bond orders to xtbtopo.mol

molecular dipole:
                 x           y           z       tot (Debye)
 q only:        1.078       1.271      -1.541
   full:        1.399       1.237      -1.659       6.349
molecular quadrupole (traceless):
                xx          xy          yy          xz          yz          zz
 q only:       88.791      12.554     -38.778       3.246      -9.754     -50.013
  q+dip:       85.597      16.705     -38.570       7.099     -13.626     -47.028
   full:       84.903      16.139     -39.549       4.369     -12.748     -45.354

           -------------------------------------------------
          |                Geometry Summary                 |
           -------------------------------------------------

      molecular mass/u    :      455.6105846
   center of mass at/Å    :        0.0296976      -0.0196974      -0.0037115
  moments of inertia/u·Å² :        0.2451512E+04   0.1102422E+05   0.1214757E+05
rotational constants/cm⁻¹ :        0.6876421E-02   0.1529145E-02   0.1387737E-02

 * 65 selected distances

     #   Z          #   Z                                           value/Å
     1   7 N        2   6 C                                       1.2481109
     4   6 C        5   6 C                                       1.3958472
     5   6 C        6   6 C                                       1.3857506
     6   6 C        7   8 O                                       1.3465403
     7   8 O        8   6 C                                       1.4082954
     6   6 C        9   6 C                                       1.4236949
     9   6 C       10   8 O                                       1.3434117
    10   8 O       11   6 C                                       1.4096439
     9   6 C       12   6 C                                       1.3875662
     4   6 C       13   6 C                                       1.3884118
    12   6 C       13   6 C                                       1.3869833
    14   6 C       15   6 C                                       1.5358173
    15   6 C       16   6 C                                       1.4791726
    16   6 C       17   7 N                                       1.3044228
    17   7 N       18   6 C                                       1.4425248
    18   6 C       19   6 C                                       1.5403888 (max)
    20   6 C       21   6 C                                       1.3884947
    21   6 C       22   6 C                                       1.3866114
    22   6 C       23   6 C                                       1.3922522
    23   6 C       24   8 O                                       1.3417013
    24   8 O       25   6 C                                       1.4125753
    23   6 C       26   6 C                                       1.4200798
    26   6 C       27   8 O                                       1.3633806
    27   8 O       28   6 C                                       1.2905441
    20   6 C       29   6 C                                       1.3859551
    26   6 C       29   6 C                                       1.3861827
    17   7 N       30   6 C                                       1.4419046
    31   6 C       32   6 C                                       1.5265443
    31   6 C       33   6 C                                       1.5263845
     5   6 C       34   1 H                                       1.0773605 (min)
     8   6 C       35   1 H                                       1.0941982
     8   6 C       36   1 H                                       1.0882186
     8   6 C       37   1 H                                       1.0948287
    11   6 C       38   1 H                                       1.0939127
    11   6 C       39   1 H                                       1.0882228
    11   6 C       40   1 H                                       1.0941365
    12   6 C       41   1 H                                       1.0775228
    13   6 C       42   1 H                                       1.0786012
    14   6 C       43   1 H                                       1.0893386
    14   6 C       44   1 H                                       1.0904673
    15   6 C       45   1 H                                       1.0900159
    15   6 C       46   1 H                                       1.0975722
    16   6 C       48   1 H                                       1.0823249
    18   6 C       49   1 H                                       1.0947767
    18   6 C       50   1 H                                       1.0911847
    19   6 C       51   1 H                                       1.0912970
    19   6 C       52   1 H                                       1.0912644
    21   6 C       53   1 H                                       1.0793153
    22   6 C       54   1 H                                       1.0777311
    25   6 C       55   1 H                                       1.0933595
    25   6 C       56   1 H                                       1.0935471
    25   6 C       57   1 H                                       1.0882628
    28   6 C       58   1 H                                       1.0779401
    28   6 C       59   1 H                                       1.0831564
    29   6 C       61   1 H                                       1.0777646
    30   6 C       62   1 H                                       1.0900525
    30   6 C       63   1 H                                       1.0889672
    30   6 C       64   1 H                                       1.0931579
    31   6 C       65   1 H                                       1.0962360
    32   6 C       66   1 H                                       1.0854363
    32   6 C       67   1 H                                       1.0872753
    32   6 C       68   1 H                                       1.0866745
    33   6 C       69   1 H                                       1.0855602
    33   6 C       70   1 H                                       1.0867254
    33   6 C       71   1 H                                       1.0866361

 * 4 distinct bonds (by element types)

   Z      Z             #   av. dist./Å        max./Å        min./Å
   1 H    6 C          36     1.0878623     1.0975722     1.0773605
   6 C    6 C          17     1.4315375     1.5403888     1.3857506
   6 C    7 N           4     1.3592408     1.4425248     1.2481109
   6 C    8 O           8     1.3645116     1.4125753     1.2905441


optimized geometry written to: xtbopt.xyz


           -------------------------------------------------
          | TOTAL ENERGY              -99.287465705571 Eh   |
          | GRADIENT NORM               0.002336020270 Eh/α |
          | HOMO-LUMO GAP               1.278352330570 eV   |
           -------------------------------------------------

------------------------------------------------------------------------
 * finished run on 2024/04/06 at 11:14:45.041     
------------------------------------------------------------------------
 total:
 * wall-time:     0 d,  0 h,  0 min,  0.471 sec
 *  cpu-time:     0 d,  0 h,  0 min,  0.440 sec
 * ratio c/w:     0.935 speedup
 SCF:
 * wall-time:     0 d,  0 h,  0 min,  0.120 sec
 *  cpu-time:     0 d,  0 h,  0 min,  0.120 sec
 * ratio c/w:     0.995 speedup
 ANC optimizer:
 * wall-time:     0 d,  0 h,  0 min,  0.303 sec
 *  cpu-time:     0 d,  0 h,  0 min,  0.296 sec
 * ratio c/w:     0.976 speedup

