25
 energy: -42.108630690417 gnorm: 0.002139553516 xtb: 6.6.1 (8d0f1dd)
C            3.17746014269010        0.84741170579389        0.05959765496491
N            2.26993664981473       -0.12095223742530        0.03545268124922
C            2.48466024524225       -1.45596881088554        0.01754877377787
N            1.29322728631277       -2.11571174101313       -0.00343821094355
C            0.29674344944218       -1.19123145113631       -0.00073110444718
C            0.88847298901993        0.06021137785896        0.02541206008439
C            0.10920275483882        1.27632289204346        0.03975861086394
O            0.55109385985043        2.40075169266153        0.05551717870265
N           -1.25949585839778        0.99718487453691        0.03485649168832
C           -2.17330390321050        2.12938965336016        0.07278570643636
C           -1.87454138119063       -0.24105710684700        0.00604861272415
O           -3.06689686852234       -0.36698712430522        0.00071851449300
N           -1.03326934773307       -1.37558780516028       -0.01639151707788
C           -1.63168844815460       -2.69573281291101       -0.04465193919317
H            2.83686365099074        1.86776852314608        0.07131665059190
H            4.21967119363562        0.59184503839492        0.05388553583721
H            4.03685967260603        4.09425815800955       -0.46619115895823
H            3.44421845438867       -1.92830233190563        0.02630720237906
H           -1.58095904588056        3.04062324005225        0.10731147212540
H           -2.80877548414777        2.12432688220205       -0.81302679416008
H           -2.81289088255463        2.05819879010218        0.95180913396926
H           -1.32671043430174       -3.27170465847268        0.82960338446733
H           -1.35337849596325       -3.22229064742496       -0.95839106903629
H           -2.71331242235346       -2.56549872853403       -0.02578683502255
H            1.18724373767807       -3.11902883054069       -0.02814941761583
