25
 energy: -43.828397288263 gnorm: 0.106109089249 xtb: 6.6.1 (8d0f1dd)
C            3.29123093939007        1.15597208628624        0.13658739287253
N            2.32197078018345        0.12308533110760        0.09370428052241
C            2.64896245861310       -1.27236932631337       -0.06384514795575
N            1.39479023776461       -1.93122762562538        0.04316214383047
C            0.41294347026571       -1.02278809817480        0.04181381607036
C            0.92465118456949        0.24476851814027        0.05274347191673
C            0.09018479695736        1.41824112187263        0.03807398349499
O            0.48085121081110        2.58476774016704        0.02812119901886
N           -1.28523636923556        1.06831872721944       -0.02237270517539
C           -2.24890411774632        2.15731072534731       -0.06420870418825
C           -1.81517506963929       -0.17315869480651       -0.05576552547177
O           -3.01668217125892       -0.38974770758721       -0.10206702317764
N           -0.91224752197086       -1.27194252052121        0.02001303571862
C           -1.43768024305946       -2.64064564739534       -0.05089310313740
H            3.75340762134002        1.21242049647718        1.09090431319269
H            4.00285601042585        0.86391259611776       -0.69114705148207
H            2.73286257299248        2.11197858025179       -0.03785270564557
H            3.60102233493959       -1.71280867297908       -0.09327506028406
H           -1.71086128272540        3.10106839574098       -0.05658526953154
H           -2.85345133225521        2.09132010271831       -0.96845094738122
H           -2.90845306385173        2.09601776024852        0.80038055402988
H           -1.16640691770792       -3.18952423632027        0.85465954947364
H           -1.09095781880310       -3.18795018708285       -0.93190066117141
H           -2.52241847534495       -2.54251569705341       -0.09968601966734
H            1.34498041300023       -2.93915860329978        0.00886089724832
25
 energy: -43.833959725381 gnorm: 0.042784865994 xtb: 6.6.1 (8d0f1dd)
C            3.28525077101129        1.15237434762811        0.11827339738926
N            2.31269482987921        0.11010545083482        0.08439310441304
C            2.61904546596164       -1.26031685913427       -0.04416101426802
N            1.39547700142812       -1.93718867135005        0.02730564706088
C            0.40313093010919       -1.03551463568246        0.03674466416538
C            0.92495630205878        0.23924940182120        0.05679748780692
C            0.09852925694474        1.40402832553849        0.03333966234832
O            0.47577859883924        2.57533756710379        0.03080247767265
N           -1.28067842221409        1.05871136896950       -0.01829476149066
C           -2.24176332458254        2.15113227772637       -0.06281196839232
C           -1.82143409469870       -0.18538030126174       -0.04355883583378
O           -3.01837644169327       -0.39236531268698       -0.10384026641949
N           -0.92846853376253       -1.28182149398143        0.01558999013971
C           -1.45011499799802       -2.63523147746945       -0.04657067587580
H            3.77143925722775        1.20962582694979        1.08440193082632
H            4.02636506499858        0.94346564714937       -0.67390499929417
H            2.76570205946627        2.10265654274414       -0.06521879860485
H            3.58272000228396       -1.69855631259745       -0.05465141261116
H           -1.69020944480668        3.08859396692883       -0.05466890130397
H           -2.84702596762320        2.08349150519508       -0.96741723843251
H           -2.90448616702029        2.09558971432995        0.80101847033798
H           -1.16857717729083       -3.18528087058507        0.85368886462368
H           -1.08684070746599       -3.16299912549315       -0.93128355579143
H           -2.53385723804244       -2.54367438152685       -0.09707623401561
H            1.34298262464414       -2.94068733661466       -0.00792232133028
25
 energy: -43.835259047831 gnorm: 0.021601240766 xtb: 6.6.1 (8d0f1dd)
C            3.27817546961962        1.14473885553516        0.11669489600659
N            2.31245072275817        0.10048202783249        0.09077619960493
C            2.61101697116471       -1.25063325219432       -0.05620694335988
N            1.40816782225290       -1.93055246361953        0.03490156165252
C            0.40701496059274       -1.03294682905327        0.04259086813270
C            0.93047326887439        0.24754332909066        0.06586836775205
C            0.10792916132131        1.40905188020038        0.03131343231648
O            0.47638122488289        2.58531288127933        0.03051905814298
N           -1.27686548942952        1.06652804049844       -0.02390489540019
C           -2.24779621220993        2.15514606403938       -0.06580404037447
C           -1.81652243627525       -0.18360128612506       -0.04978613364808
O           -3.01101698726940       -0.38813392815602       -0.11047918597587
N           -0.92752248443943       -1.27904695893021        0.01119456667147
C           -1.43887871811648       -2.63100552294226       -0.04435420149079
H            3.77482032829342        1.19763516909600        1.09223669796147
H            3.99883989994337        0.90292240943020       -0.66557881387727
H            2.75379956054869        2.08665402962058       -0.04741258415308
H            3.58179565802251       -1.69368716237428       -0.10272045381100
H           -1.70856032778376        3.09990839448118       -0.05399850955826
H           -2.85516361341983        2.08769890142099       -0.96946707157556
H           -2.91181892148450        2.09266556591744        0.79723059319214
H           -1.16223021812975       -3.18195271368097        0.85679017294081
H           -1.07792432098485       -3.17276466335680       -0.92303694235348
H           -2.52096255178627       -2.54443249857159       -0.09978272391660
H            1.34663688070859       -2.93218510490205        0.01339079824049
25
 energy: -43.835559861508 gnorm: 0.013812408382 xtb: 6.6.1 (8d0f1dd)
C            3.27743313324620        1.15568976640556        0.10907237909502
N            2.31985762880271        0.10217455200547        0.08562193892123
C            2.62216953867999       -1.25449570267396       -0.03800820184321
N            1.41391134766060       -1.93020509500222        0.02582738137617
C            0.41064977890645       -1.03362080982806        0.03713873682295
C            0.93344046128004        0.24810540049597        0.05886288945200
C            0.10920826703105        1.40736593392223        0.03012561952126
O            0.47552540196119        2.58558503506225        0.02783139788654
N           -1.27808925145024        1.06480508808465       -0.02074237310558
C           -2.24471537223657        2.15553446017029       -0.06159288505669
C           -1.81687676143435       -0.18540605772802       -0.04672684045755
O           -3.01303435254965       -0.39017498825231       -0.09611376351046
N           -0.92553575210880       -1.28042129853609        0.00816005282535
C           -1.44277520603914       -2.63272736598088       -0.05061165437920
H            3.75802083813169        1.22004504929288        1.09079749174076
H            4.00445621398972        0.89497878427111       -0.67098312587998
H            2.74121103804694        2.09686170437674       -0.05529193305700
H            3.59255019288596       -1.70496607192002       -0.06597170834749
H           -1.69928069261657        3.09634533425469       -0.05452956105988
H           -2.85169536635536        2.08891727946293       -0.96515256242074
H           -2.90467269041252        2.09793280786227        0.80460648824885
H           -1.16860338879131       -3.19210071540019        0.84732236304007
H           -1.09846974742748       -3.18020460635207       -0.93442758781268
H           -2.52572157979297       -2.54164147093888       -0.09783501853967
H            1.34327596824675       -2.93303184851848        0.00359518966003
25
 energy: -43.835778386414 gnorm: 0.010079955672 xtb: 6.6.1 (8d0f1dd)
C            3.28579096204719        1.15450943507434        0.11415912510479
N            2.32121984829934        0.10414229186280        0.08250724712645
C            2.61999248965128       -1.25666590796790       -0.04759892093568
N            1.40890155695245       -1.93006921380548        0.02457157671975
C            0.40732235066114       -1.03261717962616        0.04225831267840
C            0.93038370988783        0.24846549589383        0.06086652220146
C            0.10502399298137        1.40649458254649        0.03783176962517
O            0.47240244280240        2.58448969931444        0.03301233370244
N           -1.28291323780995        1.06334956848318       -0.01986006243690
C           -2.24712661021155        2.15362582946856       -0.06620138082028
C           -1.82100630000229       -0.18541180075928       -0.04840380044167
O           -3.01787561035340       -0.39086062585147       -0.10546838547210
N           -0.92817836338596       -1.27916683470047        0.01509294057086
C           -1.44282316046079       -2.63265023139748       -0.04370901711159
H            3.76901104476126        1.20543169004688        1.09219429430338
H            4.01514247756396        0.91519365395781       -0.67730185981715
H            2.75632248251757        2.10424122955083       -0.04096646853712
H            3.58723112870055       -1.70838926361107       -0.08453208584607
H           -1.69924118432923        3.09279013439400       -0.05684650484806
H           -2.84863223363300        2.08586171439435       -0.97300172707761
H           -2.91025686120732        2.09545708056309        0.79708425261338
H           -1.16897200373768       -3.18637298470406        0.85840563650805
H           -1.08597681410605       -3.17556615796344       -0.92580429397416
H           -2.52719641300690       -2.54689770259216       -0.09757470136746
H            1.33369395307211       -2.93403933803579        0.00025991065182
25
 energy: -43.835888640795 gnorm: 0.006406339897 xtb: 6.6.1 (8d0f1dd)
C            3.28191672359351        1.15081897554626        0.11504605543042
N            2.31714673738611        0.10225241902610        0.08774369567566
C            2.61692403262121       -1.25466177321958       -0.04387042782826
N            1.41001342050941       -1.93106720066477        0.03253024174972
C            0.40677484255952       -1.03486277622978        0.04324151813666
C            0.92824131458674        0.24694153624680        0.06070681032714
C            0.10712594441754        1.40606275283071        0.03039374937138
O            0.47641162031618        2.58320508764357        0.02625444651236
N           -1.28142231697160        1.06442422465585       -0.02304659604340
C           -2.24678569026349        2.15451082263368       -0.06192897630035
C           -1.81897541585668       -0.18462926352800       -0.05030700760859
O           -3.01526841903986       -0.38945577319326       -0.10798199846662
N           -0.92808000706358       -1.27962594718461        0.01238810994459
C           -1.44159397660245       -2.63159368752600       -0.04821898121325
H            3.76755808090026        1.20878011451658        1.09172859657887
H            4.01062768559250        0.90768425201895       -0.67074492277440
H            2.75339721379349        2.09500116224973       -0.05853275310641
H            3.58563181423084       -1.70051299379533       -0.08482866000680
H           -1.70244279847538        3.09599612183895       -0.05224218210820
H           -2.85480994679220        2.08806322412652       -0.96442446438018
H           -2.90604937244397        2.09304112461331        0.80399206329519
H           -1.16415040630750       -3.18543387392050        0.85234819682312
H           -1.08216900576780       -3.16994362764436       -0.93157980460776
H           -2.52567623093985       -2.54463479697289       -0.10132927057622
H            1.33789380367138       -2.93501493953209        0.01363727429541
25
 energy: -43.835908680864 gnorm: 0.006045167053 xtb: 6.6.1 (8d0f1dd)
C            3.27887471904284        1.15193695159260        0.11635758953210
N            2.31709746412413        0.10194172836651        0.08826852781223
C            2.61863463097245       -1.25268338154924       -0.04455862636955
N            1.41366587452858       -1.93066289775734        0.02334640609744
C            0.40865637393572       -1.03589790206972        0.03894756644979
C            0.92898435747141        0.24708279135565        0.06115622084671
C            0.10905623313032        1.40628450844321        0.03341607210914
O            0.47683188729245        2.58404203184821        0.03183646109253
N           -1.27984059412839        1.06459470466367       -0.02067032081194
C           -2.24507367355745        2.15500149571971       -0.06569389397446
C           -1.81673613456616       -0.18509108139000       -0.04631878187975
O           -3.01278321363348       -0.38997747199871       -0.10040346949967
N           -0.92654760194370       -1.28081027757049        0.01077142356975
C           -1.44293100434993       -2.63227938219535       -0.04576752120168
H            3.76724280511442        1.20798219352983        1.09232180424257
H            4.00309700712963        0.90667176325025       -0.67080349071471
H            2.74664182111538        2.09436219178121       -0.04963179639924
H            3.58850341543241       -1.69793170239237       -0.08249554772507
H           -1.70072372886404        3.09658426807861       -0.05722554026090
H           -2.84953296766412        2.08668624253926       -0.97060833999557
H           -2.90861260981555        2.09739933442173        0.79738576255859
H           -1.16603328494409       -3.18699147141438        0.85421642894596
H           -1.09214449399477       -3.17707536278814       -0.92834844418042
H           -2.52638612413201       -2.54178733709771       -0.09455926993188
H            1.34229848995829       -2.93403677283111        0.00003549280814
25
 energy: -43.835975212762 gnorm: 0.002994681574 xtb: 6.6.1 (8d0f1dd)
C            3.28270794002104        1.15280998166478        0.11268268288288
N            2.31930408491730        0.10297095101921        0.08445870356402
C            2.61872531599564       -1.25472947773467       -0.04289767522662
N            1.41179574915538       -1.92949345855087        0.02697595121298
C            0.40812164869271       -1.03392379287786        0.04059724711401
C            0.92949361115809        0.24887276465654        0.05989343495350
C            0.10765824446452        1.40723254519341        0.03367634602583
O            0.47366927219398        2.58568897120748        0.03064848295045
N           -1.28172161235754        1.06451487864465       -0.02100527188622
C           -2.24692601653134        2.15438174285958       -0.06350832494800
C           -1.81841583801596       -0.18485402130563       -0.04871693079964
O           -3.01478355782565       -0.39029782224196       -0.10393700787609
N           -0.92719176127291       -1.27963208413774        0.01137033663985
C           -1.44191446108744       -2.63244783307763       -0.04692611574996
H            3.76774829787893        1.20818918568722        1.08970902844855
H            4.00985029750055        0.90652521487880       -0.67437356974207
H            2.75285398917571        2.09888303383332       -0.04867914166347
H            3.58705002679866       -1.70444576301754       -0.07932062418101
H           -1.70119568619881        3.09498941352478       -0.05385465731118
H           -2.85171143872101        2.08786732636357       -0.96839287112967
H           -2.90895198886509        2.09515736835939        0.80073751567761
H           -1.16866345398298       -3.18751455389638        0.85414053049581
H           -1.08692006546332       -3.17698540794019       -0.92827974037289
H           -2.52556213291257       -2.54535278505425       -0.10060561061946
H            1.33721918293644       -2.93306121352215        0.00658199466087
25
 energy: -43.835976277536 gnorm: 0.002733113268 xtb: 6.6.1 (8d0f1dd)
C            3.28155573809438        1.15290281183688        0.11561625538391
N            2.31886292176794        0.10228377527467        0.08611191420061
C            2.61843703492295       -1.25521136387954       -0.04503475121852
N            1.41150178407474       -1.93067767412745        0.02775207642950
C            0.40771784909662       -1.03517169908219        0.04237114856812
C            0.92896708748368        0.24736437279786        0.06065789173409
C            0.10816356975136        1.40591689379008        0.03274055393346
O            0.47552270688555        2.58375079955689        0.02792919516640
N           -1.28157459526975        1.06397204256437       -0.02166074649131
C           -2.24588021185649        2.15426862445972       -0.06421944078461
C           -1.81875916305356       -0.18489641385788       -0.04806571382003
O           -3.01529757408503       -0.38999866484211       -0.10470591782812
N           -0.92763422738613       -1.27984584854981        0.01330838190471
C           -1.44245662905004       -2.63192094773978       -0.04633410362821
H            3.76445507957661        1.21029744659103        1.09338174383921
H            4.01129338300551        0.90928883671614       -0.67039772736590
H            2.75063819702285        2.09752018472065       -0.05170083896993
H            3.58690389537689       -1.70339695983999       -0.08632755454449
H           -1.69998905098682        3.09483991769986       -0.05603392973179
H           -2.85196729107280        2.08680890770249       -0.96809983747607
H           -2.90642568785379        2.09554343149567        0.80108206301095
H           -1.16493192374044       -3.18725702355376        0.85337293671161
H           -1.08754417707765       -3.17204399896175       -0.93048615866544
H           -2.52648481405863       -2.54453249278564       -0.09674468595022
H            1.33716574608637       -2.93445979345055        0.00646195871216
25
 energy: -43.835992867981 gnorm: 0.001406985097 xtb: 6.6.1 (8d0f1dd)
C            3.28157350892757        1.15202048685090        0.11475780017848
N            2.31826577199710        0.10240572677994        0.08698013138011
C            2.61846658184442       -1.25424821892269       -0.04317065386855
N            1.41212534367411       -1.93043776553494        0.02715773387026
C            0.40787028183253       -1.03531394519984        0.04134128344924
C            0.92864253230796        0.24753982951809        0.06114591783531
C            0.10830285615688        1.40620245215361        0.03339911709427
O            0.47556492525552        2.58404194229453        0.03054044089533
N           -1.28153258437235        1.06429082039537       -0.02156033130196
C           -2.24630472124792        2.15444473746476       -0.06395065518805
C           -1.81828492588929       -0.18478690347363       -0.04887058237440
O           -3.01466521603111       -0.39005949728553       -0.10482761511799
N           -0.92739150023932       -1.27996634232549        0.01169413625990
C           -1.44243102903359       -2.63197618105016       -0.04670019135366
H            3.76830630105959        1.20816905121628        1.09090651982786
H            4.00746980857070        0.90761899600652       -0.67336003649423
H            2.75107603376046        2.09651826314302       -0.05192816011745
H            3.58749101609474       -1.70108322110777       -0.08209781414622
H           -1.70152983519447        3.09570084712139       -0.05423129848507
H           -2.85149367392859        2.08754517420269       -0.96846287666557
H           -2.90833224976600        2.09481403181772        0.80015500244631
H           -1.16643590733667       -3.18582542925003        0.85427863077277
H           -1.08694579724620       -3.17443604426145       -0.92911736775200
H           -2.52622652829869       -2.54367339979564       -0.09866495713159
H            1.33865865475695       -2.93416024622179        0.00556053910696
25
 energy: -43.784552406264 gnorm: 0.234700947682 xtb: 6.6.1 (8d0f1dd)
C            3.35096618259419        1.11788792960209        0.17130881387798
N            2.33776451745248        0.16260255257157        0.15699903109764
C            2.70786112422127       -1.32832304245423       -0.16595596634988
N            1.38556216341707       -1.92103938998715        0.01047887151604
C            0.43065878891313       -0.98738912383773        0.09401394046776
C            0.91457983012056        0.27367196406648        0.09056332986005
C            0.08508066736982        1.43115478261680        0.08024391112789
O            0.45929705638965        2.62237671557473        0.06369121008664
N           -1.31872010400399        1.07780309970413       -0.01327994852407
C           -2.27834437040854        2.16080265182464       -0.07897977444473
C           -1.80812374284725       -0.14825591844498       -0.06815253158172
O           -3.02559532019681       -0.40183417465743       -0.13765919144306
N           -0.88807869670919       -1.24514236012163        0.07517166119617
C           -1.40572226395576       -2.63476492451858       -0.04091720680786
H            3.79619195955675        1.20654937798649        1.11252969671314
H            4.00426651713893        0.69280594893687       -0.70045837020031
H            2.77977778328639        2.11961146898381        0.00602271462796
H            3.62868018459780       -1.78324203945764       -0.23367815831640
H           -1.75014648465255        3.11090131138968       -0.08777506175054
H           -2.88236838827239        2.08690218849937       -0.98388811471805
H           -2.93998373568277        2.11501737085360        0.78577407008171
H           -1.16371036668094       -3.18242845962634        0.87696363199160
H           -1.03619855450761       -3.19953793400946       -0.90649866667972
H           -2.48962081869278       -2.53004640595538       -0.12610391460002
H            1.30997058630305       -2.93159733703213        0.03295411837683
25
 energy: -43.816636802651 gnorm: 0.082744665697 xtb: 6.6.1 (8d0f1dd)
C            3.33169174274988        1.11489811455301        0.14583820566100
N            2.32529492770841        0.12224686827101        0.14439694899917
C            2.63828098039741       -1.28744058692169       -0.13596229898005
N            1.38661886047303       -1.93241893210550       -0.00095634124732
C            0.41705405605403       -1.01340936097690        0.07973868515427
C            0.92680806565150        0.26094332322009        0.10033898227615
C            0.09786745447083        1.41908041773033        0.07365389085233
O            0.45441851396040        2.59815125639107        0.06887492323323
N           -1.30123449358458        1.07298565536471       -0.00864604294559
C           -2.26769934805290        2.15771605670882       -0.07776349461534
C           -1.81344636431267       -0.16815626996641       -0.04883435728283
O           -3.01052155405484       -0.40256653561610       -0.14260486157588
N           -0.91035084883275       -1.26417840898226        0.06090709463138
C           -1.42027290931191       -2.62971711155072       -0.03492553236673
H            3.82044481149349        1.19518620070183        1.10313587359887
H            4.03405977428607        0.80051427349892       -0.67364958580225
H            2.82937739119578        2.10143639687207       -0.03392304050999
H            3.59160872755450       -1.74318557341986       -0.19230466063829
H           -1.73251345786099        3.10455276667082       -0.08522591596105
H           -2.87432702340022        2.07704897293306       -0.98161936681480
H           -2.93470419447812        2.11382592404208        0.78468263381951
H           -1.16691421748607       -3.17714288669800        0.87594828430624
H           -1.03039504352558       -3.16776474123742       -0.90417407194187
H           -2.50058276697385       -2.53250986577830       -0.12280620514710
H            1.31348143062962       -2.93560970119707        0.01924834890200
25
 energy: -43.818597258849 gnorm: 0.046346196381 xtb: 6.6.1 (8d0f1dd)
C            3.31997513337972        1.10822049862481        0.13258688430945
N            2.33003072673525        0.08842210974970        0.14410151978559
C            2.62325220555210       -1.25342927092306       -0.13569512916194
N            1.41253175427008       -1.91351703377906        0.00260885311865
C            0.42227936361615       -1.00823207790985        0.07924430143317
C            0.94441315026225        0.27281134147839        0.10936596003116
C            0.10732145660592        1.43172871966846        0.06660310287805
O            0.44975446951474        2.60964302304360        0.06555268347894
N           -1.29032726039948        1.08249165108878       -0.01682578506263
C           -2.27408740059088        2.16039210312414       -0.07993084755535
C           -1.81334912782430       -0.17249501340233       -0.05437702335233
O           -3.00087997918561       -0.39690987628851       -0.14047228990275
N           -0.91170331680694       -1.25974735780612        0.05158880561907
C           -1.40615285938759       -2.61970952288569       -0.03155294216545
H            3.82449409508917        1.18120587427484        1.10616999920639
H            3.98638941026367        0.73886534316944       -0.65014959245817
H            2.80346327931302        2.06215986730415       -0.01160219050291
H            3.58939002378189       -1.73397524960869       -0.22732183552062
H           -1.74663999203131        3.11072409630134       -0.08320780068875
H           -2.88213048511520        2.07951176274498       -0.98337574017873
H           -2.94141335307888        2.10901867898797        0.78294317881709
H           -1.16015949971853       -3.17199471895081        0.87737676525419
H           -1.02330622040999       -3.17478028273469       -0.89435428837068
H           -2.48463628897557       -2.53321784963639       -0.12476519833315
H            1.32553522989078       -2.91270056312781        0.02885670492675
25
 energy: -43.820811169775 gnorm: 0.013968151817 xtb: 6.6.1 (8d0f1dd)
C            3.32592581810087        1.12491143437138        0.12744762849329
N            2.33900182998768        0.09596808815377        0.12784376180887
C            2.63770005014317       -1.27183967307344       -0.11608491043614
N            1.40979447505625       -1.92010205654708       -0.00507910126771
C            0.42177172478414       -1.01069634484200        0.07913245275593
C            0.94383111785769        0.26962414779635        0.10273963363337
C            0.10518231400617        1.42634327706552        0.07190647726168
O            0.45168842022154        2.60816232581726        0.06879892490485
N           -1.29353969994794        1.07650721361109       -0.01052483327805
C           -2.27022481687302        2.15846059815904       -0.07671718010416
C           -1.81849797307775       -0.17583327827633       -0.05128088760932
O           -3.01104153108826       -0.39860170047557       -0.13610575583615
N           -0.91338249741202       -1.26184887984254        0.05564869805183
C           -1.41442457203281       -2.62286199917889       -0.03526573433889
H            3.80864606324538        1.20188368884826        1.10768198652665
H            4.01793030970236        0.78028997416054       -0.66505359875489
H            2.80895964960783        2.08800774513711       -0.02153184830852
H            3.59711946716467       -1.76373874643383       -0.19625086395725
H           -1.73493568643302        3.10430250427756       -0.08410470448613
H           -2.87536823586126        2.07877617216227       -0.98156641418693
H           -2.93565788655900        2.11411227463935        0.78728201557089
H           -1.16897350813484       -3.18232923319086        0.87137641215293
H           -1.04019180247782       -3.17880172239433       -0.90397565245123
H           -2.49530582268668       -2.53460295346798       -0.12278631431627
H            1.30803730745715       -2.92160660396907        0.01983790377638
25
 energy: -43.820556861071 gnorm: 0.017651459965 xtb: 6.6.1 (8d0f1dd)
C            3.33434144812001        1.11676321659191        0.14154800905994
N            2.33388420684398        0.10230126404335        0.13829936133729
C            2.63178155199215       -1.26864978567981       -0.13449745763666
N            1.40440812923250       -1.92114535807152       -0.00094674190559
C            0.41693894782172       -1.01075237313618        0.08870521838258
C            0.93519859122883        0.26934708823836        0.10871221275579
C            0.09904148296474        1.42470475290021        0.07470408292528
O            0.45127316963400        2.60719257695619        0.06800751205137
N           -1.29897955579927        1.07525985331448       -0.01160304929898
C           -2.27333674416641        2.15778682125871       -0.08145290096109
C           -1.82096730792932       -0.17574103169662       -0.05329963336187
O           -3.01478116996516       -0.40021773564195       -0.14802907414760
N           -0.91592976328550       -1.26135821508896        0.06366827996782
C           -1.41260477573558       -2.62364800479690       -0.02977847286207
H            3.82334884251861        1.18348514765094        1.11586098969509
H            4.02185689897129        0.78066667470877       -0.66608637092547
H            2.83322824814667        2.09347007545677       -0.01883949229197
H            3.58960402429016       -1.74813411656421       -0.23473254953031
H           -1.73937939624784        3.10488426515490       -0.08782623625242
H           -2.87688506686692        2.07658095237193       -0.98676755693235