      -----------------------------------------------------------      
     |                   =====================                   |     
     |                           x T B                           |     
     |                   =====================                   |     
     |                         S. Grimme                         |     
     |          Mulliken Center for Theoretical Chemistry        |     
     |                    University of Bonn                     |     
      -----------------------------------------------------------      

   * xtb version 6.6.1 (8d0f1dd) compiled by 'conda@1efc2f54142f' on 2023-08-01

   xtb is free software: you can redistribute it and/or modify it under
   the terms of the GNU Lesser General Public License as published by
   the Free Software Foundation, either version 3 of the License, or
   (at your option) any later version.
   
   xtb is distributed in the hope that it will be useful,
   but WITHOUT ANY WARRANTY; without even the implied warranty of
   MERCHANTABILITY or FITNESS FOR A PARTICULAR PURPOSE.  See the
   GNU Lesser General Public License for more details.
   
   Cite this work as:
   * C. Bannwarth, E. Caldeweyher, S. Ehlert, A. Hansen, P. Pracht,
     J. Seibert, S. Spicher, S. Grimme, WIREs Comput. Mol. Sci., 2020, 11,
     e01493. DOI: 10.1002/wcms.1493
   
   for GFN2-xTB:
   * C. Bannwarth, S. Ehlert and S. Grimme., J. Chem. Theory Comput., 2019,
     15, 1652-1671. DOI: 10.1021/acs.jctc.8b01176
   for GFN1-xTB:
   * S. Grimme, C. Bannwarth, P. Shushkov, J. Chem. Theory Comput., 2017,
     13, 1989-2009. DOI: 10.1021/acs.jctc.7b00118
   for GFN0-xTB:
   * P. Pracht, E. Caldeweyher, S. Ehlert, S. Grimme, ChemRxiv, 2019, preprint.
     DOI: 10.26434/chemrxiv.8326202.v1
   for GFN-FF:
   * S. Spicher and S. Grimme, Angew. Chem. Int. Ed., 2020, 59, 15665-15673.
     DOI: 10.1002/anie.202004239
   
   for ALPB and GBSA implicit solvation:
   * S. Ehlert, M. Stahn, S. Spicher, S. Grimme, J. Chem. Theory Comput.,
     2021, 17, 4250-4261. DOI: 10.1021/acs.jctc.1c00471
   
   for DFT-D4:
   * E. Caldeweyher, C. Bannwarth and S. Grimme, J. Chem. Phys., 2017,
     147, 034112. DOI: 10.1063/1.4993215
   * E. Caldeweyher, S. Ehlert, A. Hansen, H. Neugebauer, S. Spicher,
     C. Bannwarth and S. Grimme, J. Chem. Phys., 2019, 150, 154122.
     DOI: 10.1063/1.5090222
   * E. Caldeweyher, J.-M. Mewes, S. Ehlert and S. Grimme, Phys. Chem. Chem. Phys.
     2020, 22, 8499-8512. DOI: 10.1039/D0CP00502A
   
   for sTDA-xTB:
   * S. Grimme and C. Bannwarth, J. Chem. Phys., 2016, 145, 054103.
     DOI: 10.1063/1.4959605
   
   in the mass-spec context:
   * V. Asgeirsson, C. Bauer and S. Grimme, Chem. Sci., 2017, 8, 4879.
     DOI: 10.1039/c7sc00601b
   * J. Koopman and S. Grimme, ACS Omega 2019, 4, 12, 15120-15133.
     DOI: 10.1021/acsomega.9b02011
   
   for metadynamics refer to:
   * S. Grimme, J. Chem. Theory Comput., 2019, 155, 2847-2862
     DOI: 10.1021/acs.jctc.9b00143
   
   for SPH calculations refer to:
   * S. Spicher and S. Grimme, J. Chem. Theory Comput., 2021, 17, 1701-1714
     DOI: 10.1021/acs.jctc.0c01306
   
   with help from (in alphabetical order)
   P. Atkinson, C. Bannwarth, F. Bohle, G. Brandenburg, E. Caldeweyher
   M. Checinski, S. Dohm, S. Ehlert, S. Ehrlich, I. Gerasimov, C. Hölzer
   A. Katbashev, J. Koopman, C. Lavigne, S. Lehtola, F. März, M. Müller,
   F. Musil, H. Neugebauer, J. Pisarek, C. Plett, P. Pracht, F. Pultar,
   J. Seibert, P. Shushkov, S. Spicher, M. Stahn, M. Steiner, T. Strunk,
   J. Stückrath, T. Rose, and J. Unsleber
   
 * started run on 2024/06/05 at 19:58:53.750     

           -------------------------------------------------
          |                Calculation Setup                |
           -------------------------------------------------

          program call               : xtb struc.xyz --opt loose --input .xc1 --gfn2
          hostname                   : n-62-29-9
          coordinate file            : struc.xyz
          omp threads                :                     1

   ID    Z sym.   atoms
    1    6 C      1, 3, 5-7, 10, 11, 14
    2    7 N      2, 4, 9, 13
    3    8 O      8, 12
    4    1 H      15-25
constraining bond 13 24 to    4.0600000 Å, actual value:    2.0566599 Å

           -------------------------------------------------
          |                 G F N 2 - x T B                 |
           -------------------------------------------------

        Reference                      10.1021/acs.jctc.8b01176
      * Hamiltonian:
        H0-scaling (s, p, d)           1.850000    2.230000    2.230000
        zeta-weighting                 0.500000
      * Dispersion:
        s8                             2.700000
        a1                             0.520000
        a2                             5.000000
        s9                             5.000000
      * Repulsion:
        kExp                           1.500000    1.000000
        rExp                           1.000000
      * Coulomb:
        alpha                          2.000000
        third order                    shell-resolved
        anisotropic                    true
        a3                             3.000000
        a5                             4.000000
        cn-shift                       1.200000
        cn-exp                         4.000000
        max-rad                        5.000000


          ...................................................
          :                      SETUP                      :
          :.................................................:
          :  # basis functions                  67          :
          :  # atomic orbitals                  67          :
          :  # shells                           39          :
          :  # electrons                        74          :
          :  max. iterations                   250          :
          :  Hamiltonian                  GFN2-xTB          :
          :  restarted?                      false          :
          :  GBSA solvation                  false          :
          :  PC potential                    false          :
          :  electronic temp.         7500.0000000     K    :
          :  accuracy                    1.0000000          :
          :  -> integral cutoff          0.2500000E+02      :
          :  -> integral neglect         0.1000000E-07      :
          :  -> SCF convergence          0.1000000E-05 Eh   :
          :  -> wf. convergence          0.1000000E-03 e    :
          :  Broyden damping             0.4000000          :
          ...................................................

 iter      E             dE          RMSdq      gap      omega  full diag
   1    -42.5960780 -0.425961E+02  0.440E+00    3.52       0.0  T
   2    -42.7780033 -0.181925E+00  0.248E+00    3.37       1.0  T
   3    -42.7871777 -0.917437E-02  0.149E+00    3.50       1.0  T
   4    -42.7817164  0.546128E-02  0.642E-01    3.42       1.0  T
   5    -42.7911189 -0.940247E-02  0.115E-01    3.49       1.0  T
   6    -42.7912109 -0.920486E-04  0.685E-02    3.46       1.0  T
   7    -42.7912647 -0.537856E-04  0.265E-02    3.48       1.0  T
   8    -42.7912686 -0.385526E-05  0.113E-02    3.47       1.8  T
   9    -42.7912697 -0.111307E-05  0.441E-03    3.47       4.5  T
  10    -42.7912698 -0.733569E-07  0.139E-03    3.47      14.4  T
  11    -42.7912698 -0.243437E-08  0.602E-04    3.47      33.2  T
  12    -42.7912698 -0.222032E-08  0.181E-04    3.47     110.6  T

   *** convergence criteria satisfied after 12 iterations ***

         #    Occupation            Energy/Eh            Energy/eV
      -------------------------------------------------------------
         1        2.0000           -0.9116047             -24.8060
       ...           ...                  ...                  ...
        31        1.9942           -0.6212459             -16.9050
        32        1.9930           -0.6166804             -16.7807
        33        1.9876           -0.6031136             -16.4116
        34        1.9710           -0.5827317             -15.8569
        35        1.9403           -0.5651917             -15.3796
        36        1.9387           -0.5645672             -15.3627
        37        1.9155           -0.5566412             -15.1470 (HOMO)
        38        0.1907           -0.4290919             -11.6762 (LUMO)
        39        0.0640           -0.4015676             -10.9272
        40        0.0206           -0.3740689             -10.1789
        41        0.0006           -0.2879107              -7.8344
        42        0.0000           -0.2065811              -5.6214
       ...           ...                  ...                  ...
        67                          0.5613577              15.2753
      -------------------------------------------------------------
                  HL-Gap            0.1275493 Eh            3.4708 eV
             Fermi-level           -0.4825284 Eh          -13.1303 eV

 SCC (total)                   0 d,  0 h,  0 min,  0.037 sec
 SCC setup                      ...        0 min,  0.000 sec (  0.626%)
 Dispersion                     ...        0 min,  0.000 sec (  0.822%)
 classical contributions        ...        0 min,  0.000 sec (  0.222%)
 integral evaluation            ...        0 min,  0.006 sec ( 15.371%)
 iterations                     ...        0 min,  0.019 sec ( 51.138%)
 molecular gradient             ...        0 min,  0.012 sec ( 31.390%)
 printout                       ...        0 min,  0.000 sec (  0.400%)

         :::::::::::::::::::::::::::::::::::::::::::::::::::::
         ::                     SUMMARY                     ::
         :::::::::::::::::::::::::::::::::::::::::::::::::::::
         :: total energy             -35.094046491045 Eh    ::
         :: gradient norm              5.349852427536 Eh/a0 ::
         :: HOMO-LUMO gap              3.470793873671 eV    ::
         ::.................................................::
         :: SCC energy               -42.791269777655 Eh    ::
         :: -> isotropic ES            0.136760385929 Eh    ::
         :: -> anisotropic ES         -0.005341405309 Eh    ::
         :: -> anisotropic XC          0.011501049227 Eh    ::
         :: -> dispersion             -0.022650340738 Eh    ::
         :: repulsion energy           0.531105277918 Eh    ::
         :: add. restraining           7.166003849683 Eh    ::
         :: total charge               1.000000000010 e     ::
         :::::::::::::::::::::::::::::::::::::::::::::::::::::

      ----------------------------------------------------------- 
     |                   =====================                   |
     |                        A N C O P T                        |
     |                   =====================                   |
     |               Approximate Normal Coordinate               |
     |                Rational Function Optimizer                |
      ----------------------------------------------------------- 

          ...................................................
          :                      SETUP                      :
          :.................................................:
          :   optimization level             loose          :
          :   max. optcycles                   200          :
          :   ANC micro-cycles                  20          :
          :   degrees of freedom                69          :
          :.................................................:
          :   RF solver                   davidson          :
          :   write xtbopt.log                true          :
          :   linear?                        false          :
          :   energy convergence         0.5000000E-04 Eh   :
          :   grad. convergence          0.4000000E-02 Eh/α :
          :   maxmium RF displ.          1.0000000          :
          :   Hlow (freq-cutoff)         0.1000000E-01      :
          :   Hmax (freq-cutoff)         5.0000000          :
          :   S6 in model hess.         20.0000000          :
          ...................................................

generating ANC from model Hessian ...
Using Lindh-Hessian (1995)
 Shifting diagonal of input Hessian by    1.7899411656416080     
 Lowest  eigenvalues of input Hessian
    0.010000    0.342547    0.000000    0.000000    0.000000    0.000000
    0.000000    0.000000    1.793189    1.794716    1.795776    1.798570
    1.801036    1.803154    1.808556    1.811705    1.814861    1.825065
 Highest eigenvalues
    3.927128    3.978822    4.018837    4.167239    4.257091    4.941316


........................................................................
.............................. CYCLE    1 ..............................
........................................................................

 iter      E             dE          RMSdq      gap      omega  full diag
   1    -42.7912698 -0.427913E+02  0.838E-05    3.47       0.0  T
   2    -42.7912698 -0.247127E-10  0.452E-05    3.47     442.9  T
   3    -42.7912698 -0.149214E-11  0.279E-05    3.47     715.8  T
     SCC iter.                  ...        0 min,  0.005 sec
     gradient                   ...        0 min,  0.011 sec
 * total energy  :   -35.0940465 Eh     change       -0.2401990E-09 Eh
   gradient norm :     5.3498526 Eh/α   predicted     0.0000000E+00 (-100.00%)
   displ. norm   :     0.6699359 α      lambda       -0.3560216E+01
   maximum displ.:     0.5429965 α      in ANC's #69, #60, #63, ...

........................................................................
.............................. CYCLE    2 ..............................
........................................................................

 iter      E             dE          RMSdq      gap      omega  full diag
   1    -42.7384529 -0.427385E+02  0.954E-01    3.28       0.0  T
   2    -42.7416207 -0.316777E-02  0.538E-01    3.44       1.0  T
   3    -42.7420260 -0.405328E-03  0.305E-01    3.35       1.0  T
   4    -42.7427609 -0.734931E-03  0.606E-02    3.41       1.0  T
   5    -42.7428361 -0.752142E-04  0.259E-02    3.39       1.0  T
   6    -42.7428409 -0.480743E-05  0.129E-02    3.40       1.5  T
   7    -42.7428421 -0.112567E-05  0.296E-03    3.40       6.7  T
   8    -42.7428422 -0.170318E-06  0.104E-03    3.40      19.2  T
   9    -42.7428422 -0.165990E-09  0.479E-04    3.40      41.8  T
  10    -42.7428422 -0.176011E-08  0.126E-04    3.40     159.2  T
     SCC iter.                  ...        0 min,  0.014 sec
     gradient                   ...        0 min,  0.012 sec
 * total energy  :   -38.1242724 Eh     change       -0.3030226E+01 Eh
   gradient norm :     3.7323017 Eh/α   predicted    -0.2580554E+01 ( -14.84%)
   displ. norm   :     0.7449472 α      lambda       -0.2755409E+01
   maximum displ.:     0.5650103 α      in ANC's #69, #60, #61, ...

........................................................................
.............................. CYCLE    3 ..............................
........................................................................

 iter      E             dE          RMSdq      gap      omega  full diag
   1    -42.6229080 -0.426229E+02  0.794E-01    3.06       0.0  T
   2    -42.6243295 -0.142148E-02  0.616E-01    3.15       1.0  T
   3    -42.6266739 -0.234435E-02  0.310E-01    3.09       1.0  T
   4    -42.6277179 -0.104408E-02  0.138E-01    3.11       1.0  T
   5    -42.6280717 -0.353801E-03  0.308E-02    3.11       1.0  T
   6    -42.6280934 -0.216077E-04  0.174E-02    3.11       1.2  T
   7    -42.6280957 -0.230852E-05  0.999E-03    3.11       2.0  T
   8    -42.6280971 -0.148479E-05  0.320E-03    3.11       6.3  T
   9    -42.6280973 -0.105194E-06  0.931E-04    3.11      21.5  T
  10    -42.6280973 -0.762913E-08  0.441E-04    3.11      45.4  T
     SCC iter.                  ...        0 min,  0.014 sec
     gradient                   ...        0 min,  0.012 sec
 * total energy  :   -40.2885538 Eh     change       -0.2164281E+01 Eh
   gradient norm :     2.1701562 Eh/α   predicted    -0.2142261E+01 (  -1.02%)
   displ. norm   :     0.7143281 α      lambda       -0.1513689E+01
   maximum displ.:     0.3946418 α      in ANC's #69, #2, #60, ...

........................................................................
.............................. CYCLE    4 ..............................
........................................................................

 iter      E             dE          RMSdq      gap      omega  full diag
   1    -42.4974663 -0.424975E+02  0.885E-01    2.22       0.0  T
   2    -42.4830746  0.143917E-01  0.926E-01    2.54       1.0  T
   3    -42.5059951 -0.229205E-01  0.461E-01    2.43       1.0  T
   4    -42.5101264 -0.413129E-02  0.271E-01    2.60       1.0  T
   5    -42.5111903 -0.106391E-02  0.645E-02    2.57       1.0  T
   6    -42.5112541 -0.638040E-04  0.267E-02    2.56       1.0  T
   7    -42.5112672 -0.130331E-04  0.155E-02    2.56       1.3  T
   8    -42.5112699 -0.272845E-05  0.583E-03    2.56       3.4  T
   9    -42.5112707 -0.746324E-06  0.160E-03    2.56      12.5  T
  10    -42.5112707 -0.376324E-07  0.808E-04    2.56      24.8  T
  11    -42.5112707 -0.293598E-08  0.308E-04    2.56      64.9  T
     SCC iter.                  ...        0 min,  0.015 sec
     gradient                   ...        0 min,  0.011 sec
 * total energy  :   -41.4243521 Eh     change       -0.1135798E+01 Eh
   gradient norm :     1.0723932 Eh/α   predicted    -0.1143070E+01 (   0.64%)
   displ. norm   :     0.5451777 α      lambda       -0.5632541E+00
   maximum displ.:     0.2926562 α      in ANC's #69, #2, #45, ...

........................................................................
.............................. CYCLE    5 ..............................
........................................................................

 iter      E             dE          RMSdq      gap      omega  full diag
   1    -42.4282568 -0.424283E+02  0.643E-01    1.76       0.0  T
   2    -42.4239443  0.431252E-02  0.551E-01    1.75       1.0  T
   3    -42.4197556  0.418872E-02  0.521E-01    1.86       1.0  T
   4    -42.4299931 -0.102375E-01  0.275E-01    1.76       1.0  T
   5    -42.4316843 -0.169120E-02  0.483E-02    1.79       1.0  T
   6    -42.4317298 -0.454162E-04  0.236E-02    1.79       1.0  T
   7    -42.4317431 -0.133097E-04  0.130E-02    1.79       1.5  T
   8    -42.4317454 -0.228685E-05  0.343E-03    1.79       5.8  T
   9    -42.4317456 -0.224447E-06  0.933E-04    1.79      21.4  T
  10    -42.4317456  0.541235E-09  0.625E-04    1.79      32.0  T
     SCC iter.                  ...        0 min,  0.014 sec
     gradient                   ...        0 min,  0.012 sec
 * total energy  :   -41.7842300 Eh     change       -0.3598780E+00 Eh
   gradient norm :     0.3358550 Eh/α   predicted    -0.3653319E+00 (   1.52%)
   displ. norm   :     0.2660204 α      lambda       -0.8262969E-01
   maximum displ.:     0.1543039 α      in ANC's #2, #35, #69, ...

........................................................................
.............................. CYCLE    6 ..............................
........................................................................

 iter      E             dE          RMSdq      gap      omega  full diag
   1    -42.4202539 -0.424203E+02  0.309E-01    1.50       0.0  T
   2    -42.4172658  0.298802E-02  0.357E-01    1.60       1.0  T
   3    -42.4197174 -0.245154E-02  0.245E-01    1.52       1.0  T
   4    -42.4213527 -0.163530E-02  0.106E-01    1.53       1.0  T
   5    -42.4216601 -0.307459E-03  0.401E-02    1.55       1.0  T
   6    -42.4217030 -0.428320E-04  0.102E-02    1.54       2.0  T
   7    -42.4217060 -0.303066E-05  0.462E-03    1.54       4.3  T
   8    -42.4217062 -0.204308E-06  0.148E-03    1.54      13.5  T
   9    -42.4217062 -0.114021E-07  0.772E-04    1.54      25.9  T
  10    -42.4217062 -0.200595E-07  0.311E-04    1.54      64.4  T
     SCC iter.                  ...        0 min,  0.014 sec
     gradient                   ...        0 min,  0.011 sec
 * total energy  :   -41.8384184 Eh     change       -0.5418834E-01 Eh
   gradient norm :     0.2400406 Eh/α   predicted    -0.4423860E-01 ( -18.36%)
   displ. norm   :     0.2119256 α      lambda       -0.3989894E-01
   maximum displ.:     0.1116821 α      in ANC's #35, #45, #2, ...

........................................................................
.............................. CYCLE    7 ..............................
........................................................................

 iter      E             dE          RMSdq      gap      omega  full diag
   1    -42.4372997 -0.424373E+02  0.312E-01    1.44       0.0  T
   2    -42.4243432  0.129565E-01  0.608E-01    1.59       1.0  T
   3    -42.4394593 -0.151161E-01  0.160E-01    1.49       1.0  T
   4    -42.4396027 -0.143442E-03  0.110E-01    1.48       1.0  T
   5    -42.4398507 -0.247926E-03  0.337E-02    1.50       1.0  T
   6    -42.4398947 -0.440184E-04  0.954E-03    1.49       2.1  T
   7    -42.4398960 -0.127882E-05  0.541E-03    1.49       3.7  T
   8    -42.4398965 -0.552850E-06  0.159E-03    1.49      12.6  T
   9    -42.4398966 -0.533390E-07  0.592E-04    1.49      33.8  T
  10    -42.4398966 -0.629388E-08  0.320E-04    1.49      62.5  T
     SCC iter.                  ...        0 min,  0.014 sec
     gradient                   ...        0 min,  0.011 sec
 * total energy  :   -41.8713048 Eh     change       -0.3288641E-01 Eh
   gradient norm :     0.2484291 Eh/α   predicted    -0.2084632E-01 ( -36.61%)
   displ. norm   :     0.4399622 α      lambda       -0.7632262E-01
   maximum displ.:     0.2491819 α      in ANC's #35, #45, #33, ...

........................................................................
.............................. CYCLE    8 ..............................
........................................................................

 iter      E             dE          RMSdq      gap      omega  full diag
   1    -42.4725980 -0.424726E+02  0.646E-01    1.46       0.0  T
   2    -42.4282015  0.443965E-01  0.115E+00    1.56       1.0  T
   3    -42.4801108 -0.519093E-01  0.324E-01    1.51       1.0  T
   4    -42.4800848  0.260112E-04  0.220E-01    1.51       1.0  T
   5    -42.4812657 -0.118086E-02  0.611E-02    1.52       1.0  T
   6    -42.4814020 -0.136354E-03  0.196E-02    1.51       1.0  T
   7    -42.4814063 -0.426397E-05  0.116E-02    1.52       1.7  T
   8    -42.4814091 -0.280556E-05  0.334E-03    1.51       6.0  T
   9    -42.4814095 -0.433441E-06  0.138E-03    1.51      14.5  T
  10    -42.4814095 -0.349970E-07  0.648E-04    1.51      30.9  T
  11    -42.4814095 -0.335333E-08  0.323E-04    1.51      62.0  T
     SCC iter.                  ...        0 min,  0.015 sec
     gradient                   ...        0 min,  0.011 sec
 * total energy  :   -41.9296463 Eh     change       -0.5834157E-01 Eh
   gradient norm :     0.2421290 Eh/α   predicted    -0.4554873E-01 ( -21.93%)
   displ. norm   :     0.4601092 α      lambda       -0.6094424E-01
   maximum displ.:     0.2571289 α      in ANC's #35, #33, #39, ...

........................................................................
.............................. CYCLE    9 ..............................
........................................................................

 iter      E             dE          RMSdq      gap      omega  full diag
   1    -42.4937817 -0.424938E+02  0.638E-01    1.52       0.0  T
   2    -42.4686152  0.251665E-01  0.912E-01    1.69       1.0  T
   3    -42.4976429 -0.290277E-01  0.340E-01    1.53       1.0  T
   4    -42.4988076 -0.116479E-02  0.162E-01    1.56       1.0  T
   5    -42.4994334 -0.625790E-03  0.483E-02    1.56       1.0  T
   6    -42.4995055 -0.720185E-04  0.154E-02    1.56       1.3  T
   7    -42.4995084 -0.292122E-05  0.932E-03    1.56       2.1  T
   8    -42.4995104 -0.199036E-05  0.259E-03    1.56       7.7  T
   9    -42.4995106 -0.197950E-06  0.986E-04    1.56      20.3  T
  10    -42.4995106 -0.172488E-07  0.463E-04    1.56      43.2  T
     SCC iter.                  ...        0 min,  0.014 sec
     gradient                   ...        0 min,  0.011 sec
 * total energy  :   -41.9745706 Eh     change       -0.4492427E-01 Eh
   gradient norm :     0.2050356 Eh/α   predicted    -0.3692313E-01 ( -17.81%)
   displ. norm   :     0.3747672 α      lambda       -0.3611852E-01
   maximum displ.:     0.2000536 α      in ANC's #35, #33, #39, ...

........................................................................
.............................. CYCLE   10 ..............................
........................................................................

 iter      E             dE          RMSdq      gap      omega  full diag
   1    -42.4923101 -0.424923E+02  0.502E-01    1.50       0.0  T
   2    -42.4839192  0.839085E-02  0.576E-01    1.62       1.0  T
   3    -42.4924094 -0.849016E-02  0.302E-01    1.50       1.0  T
   4    -42.4943803 -0.197090E-02  0.115E-01    1.54       1.0  T
   5    -42.4946745 -0.294237E-03  0.312E-02    1.53       1.0  T
   6    -42.4947001 -0.255907E-04  0.110E-02    1.53       1.8  T
   7    -42.4947008 -0.715810E-06  0.743E-03    1.53       2.7  T
   8    -42.4947023 -0.144754E-05  0.206E-03    1.53       9.7  T
   9    -42.4947024 -0.107481E-06  0.743E-04    1.53      26.9  T
  10    -42.4947024 -0.110934E-07  0.352E-04    1.53      56.9  T
     SCC iter.                  ...        0 min,  0.014 sec
     gradient                   ...        0 min,  0.011 sec
 * total energy  :   -41.9994860 Eh     change       -0.2491540E-01 Eh
   gradient norm :     0.1805138 Eh/α   predicted    -0.2059576E-01 ( -17.34%)
   displ. norm   :     0.2299278 α      lambda       -0.2149062E-01
   maximum displ.:     0.1005354 α      in ANC's #35, #33, #2, ...

........................................................................
.............................. CYCLE   11 ..............................
........................................................................

 iter      E             dE          RMSdq      gap      omega  full diag
   1    -42.4934115 -0.424934E+02  0.292E-01    1.44       0.0  T
   2    -42.4919615  0.145000E-02  0.266E-01    1.50       1.0  T
   3    -42.4923322 -0.370648E-03  0.221E-01    1.42       1.0  T
   4    -42.4938477 -0.151556E-02  0.630E-02    1.47       1.0  T
   5    -42.4939248 -0.770809E-04  0.164E-02    1.46       1.2  T
   6    -42.4939321 -0.726639E-05  0.617E-03    1.46       3.2  T
   7    -42.4939320  0.921826E-07  0.472E-03    1.46       4.2  T
   8    -42.4939326 -0.644942E-06  0.128E-03    1.46      15.6  T
   9    -42.4939327 -0.370699E-07  0.332E-04    1.46      60.3  T
  10    -42.4939327 -0.132671E-08  0.163E-04    1.46     122.6  T
     SCC iter.                  ...        0 min,  0.014 sec
     gradient                   ...        0 min,  0.011 sec
 * total energy  :   -42.0163109 Eh     change       -0.1682492E-01 Eh
   gradient norm :     0.1631258 Eh/α   predicted    -0.1131338E-01 ( -32.76%)
   displ. norm   :     0.2818298 α      lambda       -0.3195632E-01
   maximum displ.:     0.0982972 α      in ANC's #33, #2, #45, ...

........................................................................
.............................. CYCLE   12 ..............................
........................................................................

 iter      E             dE          RMSdq      gap      omega  full diag
   1    -42.5069279 -0.425069E+02  0.417E-01    1.30       0.0  T
   2    -42.5069226  0.533229E-05  0.256E-01    1.34       1.0  T
   3    -42.5045463  0.237626E-02  0.309E-01    1.26       1.0  T
   4    -42.5070008 -0.245450E-02  0.128E-01    1.34       1.0  T
   5    -42.5075136 -0.512736E-03  0.241E-02    1.32       1.0  T
   6    -42.5075263 -0.127499E-04  0.875E-03    1.32       2.3  T
   7    -42.5075269 -0.564226E-06  0.463E-03    1.32       4.3  T
   8    -42.5075269 -0.290679E-07  0.233E-03    1.32       8.6  T
   9    -42.5075272 -0.245726E-06  0.677E-04    1.32      29.5  T
  10    -42.5075272 -0.893161E-08  0.351E-04    1.32      56.9  T
     SCC iter.                  ...        0 min,  0.014 sec
     gradient                   ...        0 min,  0.011 sec
 * total energy  :   -42.0391450 Eh     change       -0.2283409E-01 Eh
   gradient norm :     0.1360059 Eh/α   predicted    -0.1724740E-01 ( -24.47%)
   displ. norm   :     0.2211841 α      lambda       -0.1949342E-01
   maximum displ.:     0.1060321 α      in ANC's #45, #55, #38, ...

........................................................................
.............................. CYCLE   13 ..............................
........................................................................

 iter      E             dE          RMSdq      gap      omega  full diag
   1    -42.5263990 -0.425264E+02  0.395E-01    1.16       0.0  T
   2    -42.5267643 -0.365264E-03  0.236E-01    1.18       1.0  T
   3    -42.5266052  0.159062E-03  0.142E-01    1.16       1.0  T
   4    -42.5267382 -0.133003E-03  0.709E-02    1.19       1.0  T
   5    -42.5269246 -0.186357E-03  0.296E-02    1.18       1.0  T
   6    -42.5269534 -0.288640E-04  0.143E-02    1.18       1.4  T
   7    -42.5269583 -0.488114E-05  0.670E-03    1.18       3.0  T
   8    -42.5269588 -0.501804E-06  0.143E-03    1.18      14.0  T
   9    -42.5269589 -0.602821E-07  0.603E-04    1.18      33.2  T
  10    -42.5269589 -0.268496E-08  0.342E-04    1.18      58.5  T
     SCC iter.                  ...        0 min,  0.014 sec
     gradient                   ...        0 min,  0.011 sec
 * total energy  :   -42.0526907 Eh     change       -0.1354564E-01 Eh
   gradient norm :     0.1371180 Eh/α   predicted    -0.1022356E-01 ( -24.53%)
   displ. norm   :     0.1857805 α      lambda       -0.1347605E-01
   maximum displ.:     0.0841627 α      in ANC's #45, #55, #57, ...

........................................................................
.............................. CYCLE   14 ..............................
........................................................................

 iter      E             dE          RMSdq      gap      omega  full diag
   1    -42.5438675 -0.425439E+02  0.356E-01    1.03       0.0  T
   2    -42.5441954 -0.327877E-03  0.209E-01    1.06       1.0  T
   3    -42.5440608  0.134615E-03  0.155E-01    1.01       1.0  T
   4    -42.5441727 -0.111857E-03  0.100E-01    1.08       1.0  T
   5    -42.5444218 -0.249115E-03  0.288E-02    1.04       1.0  T
   6    -42.5444420 -0.202461E-04  0.185E-02    1.05       1.1  T
   7    -42.5444535 -0.115277E-04  0.575E-03    1.05       3.5  T
   8    -42.5444538 -0.259285E-06  0.145E-03    1.05      13.8  T
   9    -42.5444538 -0.328706E-07  0.602E-04    1.05      33.2  T
  10    -42.5444538 -0.488768E-08  0.278E-04    1.05      71.9  T
     SCC iter.                  ...        0 min,  0.014 sec
     gradient                   ...        0 min,  0.011 sec
 * total energy  :   -42.0634012 Eh     change       -0.1071058E-01 Eh
   gradient norm :     0.1460693 Eh/α   predicted    -0.6970676E-02 ( -34.92%)
   displ. norm   :     0.3120159 α      lambda       -0.2335747E-01
   maximum displ.:     0.1270895 α      in ANC's #55, #45, #57, ...

........................................................................
.............................. CYCLE   15 ..............................
........................................................................

 iter      E             dE          RMSdq      gap      omega  full diag
   1    -42.5663891 -0.425664E+02  0.597E-01    0.77       0.0  T
   2    -42.5661078  0.281271E-03  0.391E-01    0.92       1.0  T
   3    -42.5631855  0.292235E-02  0.498E-01    0.72       1.0  T
   4    -42.5682213 -0.503587E-02  0.136E-01    0.83       1.0  T
   5    -42.5683611 -0.139813E-03  0.688E-02    0.83       1.0  T
   6    -42.5685680 -0.206895E-03  0.273E-02    0.82       1.0  T
   7    -42.5685887 -0.206694E-04  0.131E-02    0.83       1.5  T
   8    -42.5685910 -0.232138E-05  0.406E-03    0.82       4.9  T
   9    -42.5685913 -0.291236E-06  0.929E-04    0.82      21.5  T
  10    -42.5685913 -0.914699E-08  0.408E-04    0.82      49.0  T
     SCC iter.                  ...        0 min,  0.014 sec
     gradient                   ...        0 min,  0.011 sec
 * total energy  :   -42.0800275 Eh     change       -0.1662625E-01 Eh
   gradient norm :     0.1459418 Eh/α   predicted    -0.1281575E-01 ( -22.92%)
   displ. norm   :     0.2207021 α      lambda       -0.1637419E-01
   maximum displ.:     0.0964224 α      in ANC's #55, #2, #57, ...

........................................................................
.............................. CYCLE   16 ..............................
........................................................................

 iter      E             dE          RMSdq      gap      omega  full diag
   1    -42.5806644 -0.425807E+02  0.424E-01    0.63       0.0  T
   2    -42.5784326  0.223182E-02  0.395E-01    0.83       1.0  T
   3    -42.5800371 -0.160447E-02  0.335E-01    0.61       1.0  T
   4    -42.5823200 -0.228293E-02  0.870E-02    0.68       1.0  T
   5    -42.5822393  0.807565E-04  0.527E-02    0.69       1.0  T
   6    -42.5823625 -0.123234E-03  0.194E-02    0.69       1.0  T
   7    -42.5823713 -0.879720E-05  0.104E-02    0.69       1.9  T
   8    -42.5823729 -0.157844E-05  0.343E-03    0.69       5.8  T
   9    -42.5823731 -0.189394E-06  0.720E-04    0.69      27.8  T
  10    -42.5823731 -0.819264E-08  0.285E-04    0.69      70.1  T
     SCC iter.                  ...        0 min,  0.014 sec
     gradient                   ...        0 min,  0.011 sec
 * total energy  :   -42.0910408 Eh     change       -0.1101326E-01 Eh
   gradient norm :     0.1179576 Eh/α   predicted    -0.8585904E-02 ( -22.04%)
   displ. norm   :     0.1362238 α      lambda       -0.1118661E-01
   maximum displ.:     0.0566974 α      in ANC's #2, #62, #1, ...

........................................................................
.............................. CYCLE   17 ..............................
........................................................................

 iter      E             dE          RMSdq      gap      omega  full diag
   1    -42.5895627 -0.425896E+02  0.255E-01    0.63       0.0  T
   2    -42.5895363  0.263612E-04  0.175E-01    0.70       1.0  T
   3    -42.5890452  0.491085E-03  0.205E-01    0.60       1.0  T
   4    -42.5899693 -0.924045E-03  0.602E-02    0.66       1.0  T
   5    -42.5899654  0.389525E-05  0.339E-02    0.66       1.0  T
   6    -42.5900156 -0.502546E-04  0.107E-02    0.65       1.9  T
   7    -42.5900181 -0.243775E-05  0.556E-03    0.66       3.6  T
   8    -42.5900185 -0.385512E-06  0.180E-03    0.65      11.1  T
   9    -42.5900185 -0.569227E-07  0.449E-04    0.65      44.5  T
  10    -42.5900185 -0.354189E-08  0.181E-04    0.65     110.4  T
     SCC iter.                  ...        0 min,  0.014 sec
     gradient                   ...        0 min,  0.011 sec
 * total energy  :   -42.0986952 Eh     change       -0.7654485E-02 Eh
   gradient norm :     0.0874332 Eh/α   predicted    -0.5697122E-02 ( -25.57%)
   displ. norm   :     0.1317993 α      lambda       -0.6215991E-02
   maximum displ.:     0.0909208 α      in ANC's #1, #45, #46, ...

........................................................................
.............................. CYCLE   18 ..............................
........................................................................

 iter      E             dE          RMSdq      gap      omega  full diag
   1    -42.5932812 -0.425933E+02  0.190E-01    0.62       0.0  T
   2    -42.5934050 -0.123765E-03  0.110E-01    0.65       1.0  T
   3    -42.5932695  0.135457E-03  0.106E-01    0.60       1.0  T
   4    -42.5933766 -0.107071E-03  0.705E-02    0.65       1.0  T
   5    -42.5934616 -0.849735E-04  0.264E-02    0.63       1.0  T
   6    -42.5934896 -0.279637E-04  0.903E-03    0.63       2.2  T
   7    -42.5934914 -0.185011E-05  0.428E-03    0.63       4.7  T
   8    -42.5934916 -0.228254E-06  0.101E-03    0.63      19.8  T
   9    -42.5934916 -0.114786E-07  0.328E-04    0.63      61.0  T
  10    -42.5934916 -0.704070E-09  0.187E-04    0.63     106.9  T
     SCC iter.                  ...        0 min,  0.014 sec
     gradient                   ...        0 min,  0.011 sec
 * total energy  :   -42.1026987 Eh     change       -0.4003454E-02 Eh
   gradient norm :     0.0649330 Eh/α   predicted    -0.3162000E-02 ( -21.02%)
   displ. norm   :     0.2582296 α      lambda       -0.4304594E-02
   maximum displ.:     0.2407942 α      in ANC's #1, #35, #39, ...

........................................................................
.............................. CYCLE   19 ..............................
........................................................................

 iter      E             dE          RMSdq      gap      omega  full diag
   1    -42.5988813 -0.425989E+02  0.182E-01    0.61       0.0  T
   2    -42.5989504 -0.691518E-04  0.110E-01    0.62       1.0  T
   3    -42.5988218  0.128563E-03  0.817E-02    0.60       1.0  T
   4    -42.5989295 -0.107690E-03  0.461E-02    0.62       1.0  T
   5    -42.5990062 -0.766731E-04  0.597E-03    0.61       3.4  T
   6    -42.5990059  0.329059E-06  0.481E-03    0.61       4.2  T
   7    -42.5990060 -0.156702E-06  0.474E-03    0.61       4.2  T
   8    -42.5990065 -0.481585E-06  0.821E-04    0.61      24.4  T
   9    -42.5990065 -0.137609E-07  0.349E-04    0.61      57.4  T
     SCC iter.                  ...        0 min,  0.013 sec
     gradient                   ...        0 min,  0.011 sec
 * total energy  :   -42.1048357 Eh     change       -0.2136981E-02 Eh
   gradient norm :     0.0597037 Eh/α   predicted    -0.2296154E-02 (   7.45%)
   displ. norm   :     0.2099959 α      lambda       -0.3837023E-02
   maximum displ.:     0.1866719 α      in ANC's #1, #35, #39, ...

........................................................................
.............................. CYCLE   20 ..............................
........................................................................

 iter      E             dE          RMSdq      gap      omega  full diag
   1    -42.6084551 -0.426085E+02  0.154E-01    0.59       0.0  T
   2    -42.6084794 -0.243595E-04  0.101E-01    0.61       1.0  T
   3    -42.6083646  0.114854E-03  0.863E-02    0.57       1.0  T
   4    -42.6084790 -0.114413E-03  0.527E-02    0.61       1.0  T
   5    -42.6085310 -0.520273E-04  0.218E-02    0.59       1.0  T
   6    -42.6085472 -0.162221E-04  0.701E-03    0.60       2.9  T
   7    -42.6085484 -0.112796E-05  0.249E-03    0.60       8.0  T
   8    -42.6085484 -0.376635E-07  0.743E-04    0.60      26.9  T
   9    -42.6085484 -0.794154E-08  0.326E-04    0.60      61.3  T
     SCC iter.                  ...        0 min,  0.013 sec
     gradient                   ...        0 min,  0.011 sec
 * total energy  :   -42.1071363 Eh     change       -0.2300614E-02 Eh
   gradient norm :     0.0573728 Eh/α   predicted    -0.2003182E-02 ( -12.93%)
   displ. norm   :     0.0614189 α      lambda       -0.2105989E-02
   maximum displ.:     0.0284899 α      in ANC's #35, #45, #61, ...
 * RMSD in coord.:     0.7474800 α      energy gain  -0.7013090E+01 Eh

generating ANC from model Hessian ...
Using Lindh-Hessian (1995)
 Shifting diagonal of input Hessian by    1.1642952809035680E-002
 Lowest  eigenvalues of input Hessian
    0.010000    0.010030    0.000000    0.000000    0.000000    0.000000
    0.000000    0.000000    0.014520    0.015576    0.017279    0.020211
    0.022368    0.024197    0.024354    0.026739    0.029966    0.033965
 Highest eigenvalues
    2.118178    2.199728    2.219293    2.364235    2.389866    3.152109


........................................................................
.............................. CYCLE   21 ..............................
........................................................................

 iter      E             dE          RMSdq      gap      omega  full diag
   1    -42.6149135 -0.426149E+02  0.101E-01    0.57       0.0  T
   2    -42.6149093  0.411038E-05  0.644E-02    0.58       1.0  T
   3    -42.6148074  0.101973E-03  0.823E-02    0.55       1.0  T
   4    -42.6149341 -0.126700E-03  0.265E-02    0.58       1.0  T
   5    -42.6149477 -0.136396E-04  0.120E-02    0.57       1.7  T
   6    -42.6149528 -0.511090E-05  0.371E-03    0.57       5.4  T
   7    -42.6149532 -0.392994E-06  0.132E-03    0.57      15.2  T
   8    -42.6149532 -0.892157E-08  0.404E-04    0.57      49.5  T
   9    -42.6149532 -0.394498E-08  0.130E-04    0.57     153.8  T
     SCC iter.                  ...        0 min,  0.013 sec
     gradient                   ...        0 min,  0.011 sec
 * total energy  :   -42.1086043 Eh     change       -0.1468043E-02 Eh
   gradient norm :     0.0384852 Eh/α   predicted     0.0000000E+00 (-100.00%)
   displ. norm   :     0.2161528 α      lambda       -0.3875855E-02
   maximum displ.:     0.1007236 α      in ANC's #15, #12, #9, ...

........................................................................
.............................. CYCLE   22 ..............................
........................................................................

 iter      E             dE          RMSdq      gap      omega  full diag
   1    -42.6194039 -0.426194E+02  0.195E-01    0.52       0.0  T
   2    -42.6190040  0.399909E-03  0.155E-01    0.57       1.0  T
   3    -42.6188412  0.162743E-03  0.185E-01    0.50       1.0  T
   4    -42.6195075 -0.666286E-03  0.262E-02    0.54       1.0  T
   5    -42.6195265 -0.189883E-04  0.794E-03    0.53       2.5  T
   6    -42.6195278 -0.132877E-05  0.379E-03    0.53       5.3  T
   7    -42.6195281 -0.300131E-06  0.181E-03    0.53      11.0  T
   8    -42.6195282 -0.643842E-07  0.802E-04    0.53      24.9  T
   9    -42.6195282 -0.162441E-07  0.255E-04    0.53      78.4  T
     SCC iter.                  ...        0 min,  0.013 sec
     gradient                   ...        0 min,  0.011 sec
 * total energy  :   -42.1114634 Eh     change       -0.2859035E-02 Eh
   gradient norm :     0.0203786 Eh/α   predicted    -0.2028662E-02 ( -29.04%)
   displ. norm   :     0.2497806 α      lambda       -0.2293479E-02
   maximum displ.:     0.1261139 α      in ANC's #12, #9, #6, ...

........................................................................
.............................. CYCLE   23 ..............................
........................................................................

 iter      E             dE          RMSdq      gap      omega  full diag
   1    -42.6224956 -0.426225E+02  0.186E-01    0.48       0.0  T
   2    -42.6221822  0.313347E-03  0.141E-01    0.52       1.0  T
   3    -42.6218737  0.308530E-03  0.184E-01    0.46       1.0  T
   4    -42.6225676 -0.693967E-03  0.256E-02    0.50       1.0  T
   5    -42.6225843 -0.166215E-04  0.103E-02    0.49       1.9  T
   6    -42.6225881 -0.388220E-05  0.337E-03    0.49       5.9  T
   7    -42.6225884 -0.230468E-06  0.143E-03    0.49      14.0  T
   8    -42.6225884 -0.152883E-07  0.664E-04    0.49      30.1  T
   9    -42.6225884 -0.101113E-07  0.263E-04    0.49      76.0  T
     SCC iter.                  ...        0 min,  0.013 sec
     gradient                   ...        0 min,  0.011 sec
 * total energy  :   -42.1129461 Eh     change       -0.1482700E-02 Eh
   gradient norm :     0.0146685 Eh/α   predicted    -0.1218412E-02 ( -17.82%)
   displ. norm   :     0.1679776 α      lambda       -0.7887178E-03
   maximum displ.:     0.1023959 α      in ANC's #9, #12, #6, ...

........................................................................
.............................. CYCLE   24 ..............................
........................................................................

 iter      E             dE          RMSdq      gap      omega  full diag
   1    -42.6241407 -0.426241E+02  0.915E-02    0.47       0.0  T
   2    -42.6241316  0.909744E-05  0.557E-02    0.47       1.0  T
   3    -42.6239199  0.211628E-03  0.893E-02    0.45       1.0  T
   4    -42.6241417 -0.221792E-03  0.128E-02    0.47       1.6  T
   5    -42.6241463 -0.455319E-05  0.448E-03    0.47       4.5  T
   6    -42.6241470 -0.725378E-06  0.163E-03    0.47      12.2  T
   7    -42.6241470 -0.299350E-07  0.514E-04    0.47      38.9  T
   8    -42.6241470 -0.396211E-08  0.206E-04    0.47      96.9  T
     SCC iter.                  ...        0 min,  0.011 sec
     gradient                   ...        0 min,  0.011 sec
 * total energy  :   -42.1135596 Eh     change       -0.6134872E-03 Eh
   gradient norm :     0.0136722 Eh/α   predicted    -0.4054876E-03 ( -33.90%)
   displ. norm   :     0.2532563 α      lambda       -0.9992159E-03
   maximum displ.:     0.1734567 α      in ANC's #9, #2, #12, ...

........................................................................
.............................. CYCLE   25 ..............................
........................................................................

 iter      E             dE          RMSdq      gap      omega  full diag
   1    -42.6252637 -0.426253E+02  0.137E-01    0.45       0.0  T
   2    -42.6251090  0.154791E-03  0.112E-01    0.42       1.0  T
   3    -42.6249674  0.141503E-03  0.124E-01    0.48       1.0  T
   4    -42.6252993 -0.331805E-03  0.103E-02    0.44       2.0  T
   5    -42.6253022 -0.294214E-05  0.341E-03    0.44       5.9  T
   6    -42.6253024 -0.243570E-06  0.196E-03    0.44      10.2  T
   7    -42.6253025 -0.624164E-07  0.111E-03    0.44      18.1  T
   8    -42.6253025 -0.288123E-07  0.281E-04    0.44      71.1  T
   9    -42.6253025 -0.126553E-08  0.113E-04    0.44     177.4  T
     SCC iter.                  ...        0 min,  0.013 sec
     gradient                   ...        0 min,  0.011 sec
 * total energy  :   -42.1142791 Eh     change       -0.7195693E-03 Eh
   gradient norm :     0.0139692 Eh/α   predicted    -0.5316564E-03 ( -26.11%)
   displ. norm   :     0.2116262 α      lambda       -0.7107645E-03
   maximum displ.:     0.1478871 α      in ANC's #9, #2, #44, ...

........................................................................
.............................. CYCLE   26 ..............................
........................................................................

 iter      E             dE          RMSdq      gap      omega  full diag
   1    -42.6265274 -0.426265E+02  0.151E-01    0.45       0.0  T
   2    -42.6258877  0.639723E-03  0.167E-01    0.40       1.0  T
   3    -42.6264190 -0.531251E-03  0.118E-01    0.46       1.0  T
   4    -42.6266610 -0.242020E-03  0.146E-02    0.43       1.4  T
   5    -42.6266662 -0.517489E-05  0.433E-03    0.43       4.6  T
   6    -42.6266667 -0.559805E-06  0.188E-03    0.43      10.6  T
   7    -42.6266668 -0.786919E-07  0.893E-04    0.43      22.4  T
   8    -42.6266668 -0.936259E-08  0.341E-04    0.43      58.7  T
     SCC iter.                  ...        0 min,  0.011 sec
     gradient                   ...        0 min,  0.011 sec
 * total energy  :   -42.1147641 Eh     change       -0.4849606E-03 Eh
   gradient norm :     0.0113044 Eh/α   predicted    -0.3713069E-03 ( -23.44%)
   displ. norm   :     0.1437710 α      lambda       -0.3388108E-03
   maximum displ.:     0.1045272 α      in ANC's #9, #2, #44, ...

........................................................................
.............................. CYCLE   27 ..............................
........................................................................

 iter      E             dE          RMSdq      gap      omega  full diag
   1    -42.6273869 -0.426274E+02  0.107E-01    0.45       0.0  T
   2    -42.6270660  0.320910E-03  0.115E-01    0.40       1.0  T
   3    -42.6273164 -0.250411E-03  0.875E-02    0.46       1.0  T
   4    -42.6274535 -0.137123E-03  0.118E-02    0.43       1.7  T
   5    -42.6274571 -0.355578E-05  0.421E-03    0.44       4.7  T
   6    -42.6274577 -0.690723E-06  0.116E-03    0.43      17.2  T
   7    -42.6274578 -0.292474E-07  0.520E-04    0.43      38.5  T
   8    -42.6274578 -0.142263E-08  0.228E-04    0.43      87.7  T
     SCC iter.                  ...        0 min,  0.011 sec
     gradient                   ...        0 min,  0.011 sec
 * total energy  :   -42.1150032 Eh     change       -0.2390783E-03 Eh
   gradient norm :     0.0076875 Eh/α   predicted    -0.1729457E-03 ( -27.66%)
   displ. norm   :     0.1629238 α      lambda       -0.2126363E-03
   maximum displ.:     0.1242890 α      in ANC's #9, #2, #18, ...

........................................................................
.............................. CYCLE   28 ..............................
........................................................................

 iter      E             dE          RMSdq      gap      omega  full diag
   1    -42.6262711 -0.426263E+02  0.105E-01    0.45       0.0  T
   2    -42.6260055  0.265546E-03  0.108E-01    0.41       1.0  T
   3    -42.6261911 -0.185543E-03  0.854E-02    0.46       1.0  T
   4    -42.6263269 -0.135841E-03  0.103E-02    0.44       1.9  T
   5    -42.6263292 -0.235476E-05  0.482E-03    0.44       4.1  T
   6    -42.6263300 -0.782021E-06  0.187E-03    0.44      10.7  T
   7    -42.6263301 -0.488524E-07  0.908E-04    0.44      22.0  T
   8    -42.6263301 -0.152462E-07  0.182E-04    0.44     109.7  T
     SCC iter.                  ...        0 min,  0.011 sec
     gradient                   ...        0 min,  0.011 sec
 * total energy  :   -42.1151267 Eh     change       -0.1235164E-03 Eh
   gradient norm :     0.0063856 Eh/α   predicted    -0.1092648E-03 ( -11.54%)
   displ. norm   :     0.1134945 α      lambda       -0.2248609E-03
   maximum displ.:     0.0644963 α      in ANC's #2, #9, #12, ...

........................................................................
.............................. CYCLE   29 ..............................
........................................................................

 iter      E             dE          RMSdq      gap      omega  full diag
   1    -42.6288765 -0.426289E+02  0.591E-02    0.44       0.0  T
   2    -42.6288788 -0.231579E-05  0.353E-02    0.44       1.0  T
   3    -42.6288641  0.147452E-04  0.214E-02    0.44       1.0  T
   4    -42.6288776 -0.134701E-04  0.838E-03    0.44       2.4  T
   5    -42.6288804 -0.279541E-05  0.225E-03    0.44       8.9  T
   6    -42.6288804 -0.686025E-07  0.101E-03    0.44      19.9  T
   7    -42.6288804 -0.100158E-07  0.936E-04    0.44      21.4  T
   8    -42.6288805 -0.166016E-07  0.165E-04    0.44     121.1  T
     SCC iter.                  ...        0 min,  0.011 sec
     gradient                   ...        0 min,  0.011 sec
 * total energy  :   -42.1151162 Eh     change        0.1052314E-04 Eh
   gradient norm :     0.0109039 Eh/α   predicted    -0.1139664E-03 (*******%)
   displ. norm   :     0.0369633 α      lambda       -0.1864219E-03
   maximum displ.:     0.0227064 α      in ANC's #12, #6, #9, ...

........................................................................
.............................. CYCLE   30 ..............................
........................................................................

 iter      E             dE          RMSdq      gap      omega  full diag
   1    -42.6270581 -0.426271E+02  0.257E-02    0.44       0.0  T
   2    -42.6270576  0.427018E-06  0.171E-02    0.44       1.2  T
   3    -42.6270415  0.160980E-04  0.234E-02    0.45       1.0  T
   4    -42.6270581 -0.165836E-04  0.485E-03    0.44       4.1  T
   5    -42.6270586 -0.445983E-06  0.189E-03    0.44      10.6  T
   6    -42.6270586 -0.257498E-07  0.115E-03    0.44      17.4  T
   7    -42.6270586 -0.352242E-07  0.282E-04    0.44      70.8  T
   8    -42.6270586 -0.143642E-08  0.920E-05    0.44     217.3  T
     SCC iter.                  ...        0 min,  0.011 sec
     gradient                   ...        0 min,  0.011 sec
 * total energy  :   -42.1152138 Eh     change       -0.9763786E-04 Eh
   gradient norm :     0.0059600 Eh/α   predicted    -0.9334037E-04 (  -4.40%)
   displ. norm   :     0.0351256 α      lambda       -0.6278083E-04
   maximum displ.:     0.0150539 α      in ANC's #10, #5, #8, ...

........................................................................
.............................. CYCLE   31 ..............................
........................................................................

 iter      E             dE          RMSdq      gap      omega  full diag
   1    -42.6266712 -0.426267E+02  0.280E-02    0.44       0.0  T
   2    -42.6266663  0.491960E-05  0.195E-02    0.44       1.0  T
   3    -42.6266529  0.133255E-04  0.288E-02    0.43       1.0  T
   4    -42.6266718 -0.188311E-04  0.558E-03    0.44       3.6  T
   5    -42.6266728 -0.102052E-05  0.180E-03    0.44      11.1  T
   6    -42.6266729 -0.118630E-06  0.464E-04    0.44      43.1  T
   7    -42.6266729 -0.181447E-08  0.192E-04    0.44     104.3  T
     SCC iter.                  ...        0 min,  0.010 sec
     gradient                   ...        0 min,  0.011 sec
 * total energy  :   -42.1152092 Eh     change        0.4599755E-05 Eh
   gradient norm :     0.0052535 Eh/α   predicted    -0.3146303E-04 (-784.02%)
   displ. norm   :     0.0382135 α      lambda       -0.6335876E-04
   maximum displ.:     0.0219377 α      in ANC's #2, #10, #8, ...

........................................................................
.............................. CYCLE   32 ..............................
........................................................................

 iter      E             dE          RMSdq      gap      omega  full diag
   1    -42.6269073 -0.426269E+02  0.259E-02    0.44       0.0  T
   2    -42.6269070  0.279006E-06  0.160E-02    0.44       1.3  T
   3    -42.6268947  0.122933E-04  0.190E-02    0.43       1.1  T
   4    -42.6269070 -0.122913E-04  0.493E-03    0.44       4.1  T
   5    -42.6269076 -0.634445E-06  0.131E-03    0.44      15.3  T
   6    -42.6269077 -0.634335E-07  0.289E-04    0.44      69.2  T
   7    -42.6269077 -0.398721E-09  0.151E-04    0.44     132.3  T
     SCC iter.                  ...        0 min,  0.010 sec
     gradient                   ...        0 min,  0.012 sec
 * total energy  :   -42.1152508 Eh     change       -0.4160635E-04 Eh
   gradient norm :     0.0027390 Eh/α   predicted    -0.3173147E-04 ( -23.73%)
   displ. norm   :     0.0542799 α      lambda       -0.3296055E-04
   maximum displ.:     0.0415177 α      in ANC's #2, #10, #8, ...

   *** GEOMETRY OPTIMIZATION CONVERGED AFTER 32 ITERATIONS ***

------------------------------------------------------------------------
 total energy gain   :        -7.0212043 Eh    -4405.8722 kcal/mol
 total RMSD          :         0.7982987 a0        0.4224 Å
 total power (kW/mol):      -576.0677939 (step)********** (real)
------------------------------------------------------------------------

 ANCopt (total)                0 d,  0 h,  0 min,  0.957 sec
 optimizer setup                ...        0 min,  0.000 sec (  0.045%)
 model hessian                  ...        0 min,  0.013 sec (  1.371%)
 ANC generation                 ...        0 min,  0.002 sec (  0.197%)
 coordinate transformation      ...        0 min,  0.000 sec (  0.028%)
 single point calculation       ...        0 min,  0.934 sec ( 97.606%)
 optimization log               ...        0 min,  0.003 sec (  0.278%)
 hessian update                 ...        0 min,  0.000 sec (  0.040%)
 rational function              ...        0 min,  0.003 sec (  0.290%)

================
 final structure:
================
25
 xtb: 6.6.1 (8d0f1dd)
C            3.31114879609303        1.25388025214659        0.01840457318328
N            2.38768090807605        0.15236691176592        0.00238148211505
C            2.69304037268250       -1.14752023913518       -0.00260630671522
N            1.55560928001065       -1.88568163205351       -0.00191637201650
C            0.49846749995546       -1.02593206456032        0.00393556586420
C            1.01597347332178        0.26320225369762        0.00745103167121
C            0.15733289712143        1.42336028810847       -0.00292244172395
O            0.52257133953741        2.58035166764675       -0.01258010832745
N           -1.19361381315503        1.05902721851718       -0.00406289803263
C           -2.17497474059783        2.13209529598042       -0.00269947646959
C           -1.73196089587025       -0.21713395250772       -0.00822306105036
O           -2.91530915361843       -0.41941829704696       -0.01290354092225
N           -0.81949615048889       -1.30336512240481       -0.00304606075773
C           -1.29875765147918       -2.62967908263479       -0.00699682941667
H            3.82781807665074        1.30307832188060        0.97867993349775
H            4.05245180634424        1.13877068749846       -0.77220629498729
H            2.75537923309158        2.17961360555998       -0.13013926809806
H            3.68470902534688       -1.55305437078536       -0.00855291798197
H           -1.64112093874358        3.08060141105788        0.00718636246710
H           -2.80488910774555        2.06215806159845       -0.89039400292752
H           -2.81490444068157        2.04861459264495        0.87665018647728
H           -1.62693685363640       -3.04261224071318        0.93002305422637
H           -1.70459544708653       -3.00615459179129       -0.93077104583852
H           -4.07204002990888       -3.73376449544246        0.00577773692637
H            1.49684802888050       -2.89456593742766       -0.00929768326286

 Bond Distances (Angstroems)
 ---------------------------
C1-N2=1.4375         C1-H15=1.0916        C1-H16=1.0899        C1-H17=1.0899        N2-C1=1.4375         N2-C3=1.3353         
N2-C6=1.3762         C3-N2=1.3353         C3-N4=1.3560         C3-H18=1.0714        N4-C3=1.3560         N4-C5=1.3626         
N4-H25=1.0106        C5-N4=1.3626         C5-C6=1.3891         C5-N13=1.3469        C6-N2=1.3762         C6-C5=1.3891         
C6-C7=1.4434         C7-C6=1.4434         C7-O8=1.2133         C7-N9=1.3992         O8-C7=1.2133         N9-C7=1.3992         
N9-C10=1.4541        N9-C11=1.3851        C10-N9=1.4541        C10-H19=1.0885       C10-H20=1.0907       C10-H21=1.0907       
C11-N9=1.3851        C11-O12=1.2005       C11-N13=1.4186       O12-C11=1.2005       N13-C5=1.3469        N13-C11=1.4186       
N13-C14=1.4103       C14-N13=1.4103       C14-H22=1.0753       C14-H23=1.0769       H15-C1=1.0916        H16-C1=1.0899        
H17-C1=1.0899        H18-C3=1.0714        H19-C10=1.0885       H20-C10=1.0907       H21-C10=1.0907       H22-C14=1.0753       
H23-C14=1.0769       H25-N4=1.0106        
 C  H  Rav=1.0850 sigma=0.0076  Rmin=1.0714  Rmax=1.0916     9
 C  C  Rav=1.4163 sigma=0.0271  Rmin=1.3891  Rmax=1.4434     2
 N  H  Rav=1.0106 sigma=0.0000  Rmin=1.0106  Rmax=1.0106     1
 N  C  Rav=1.3892 sigma=0.0365  Rmin=1.3353  Rmax=1.4541    11
 O  C  Rav=1.2069 sigma=0.0064  Rmin=1.2005  Rmax=1.2133     2

 selected bond angles (degree)
 --------------------
H15-C1-N2=110.39               H16-C1-N2=110.36               H16-C1-H15=108.72              H17-C1-N2=108.77               
H17-C1-H15=108.84              H17-C1-H16=109.73              C3-N2-C1=126.81                C6-N2-C1=125.35                
C6-N2-C3=107.84                N4-C3-N2=109.76                H18-C3-N2=125.46               H18-C3-N4=124.78               
C5-N4-C3=107.90                H25-N4-C3=126.31               H25-N4-C5=125.79               C6-C5-N4=107.25                
N13-C5-N4=128.99               N13-C5-C6=123.76               C5-C6-N2=107.25                C7-C6-N2=131.12                
C7-C6-C5=121.62                O8-C7-C6=125.98                N9-C7-C6=111.41                N9-C7-O8=122.61                
C10-N9-C7=117.35               C11-N9-C7=127.97               C11-N9-C10=114.68              H19-C10-N9=108.18              
H20-C10-N9=109.98              H20-C10-H19=110.27             H21-C10-N9=109.89              H21-C10-H19=110.31             
H21-C10-H20=108.20             

 selected dihedral angles (degree)
 ---------------------------------
C3-N2-C1-H15=291.07           C3-N2-C1-H16= 51.28           C3-N2-C1-H17=171.71           C6-N2-C1-H15=110.15           
C6-N2-C1-H16=230.36           C6-N2-C1-H17=350.79           N4-C3-N2-C1=179.25            N4-C3-N2-C6=  0.04            
H18-C3-N2-C1=359.12           H18-C3-N2-C6=179.91           C5-N4-C3-N2=  0.00            C5-N4-C3-H18=180.12           
H25-N4-C3-N2=179.70           H25-N4-C3-H18=359.83          C6-C5-N4-C3=359.97            C6-C5-N4-H25=180.26           
N13-C5-N4-C3=179.47           N13-C5-N4-H25=359.76          C5-C6-N2-C1=180.72            C5-C6-N2-C3=359.94            
C7-C6-N2-C1=  1.66            C7-C6-N2-C3=180.89            N2-C6-C5-N4=  0.05            N2-C6-C5-N13=180.53           
C7-C6-C5-N4=179.21            C7-C6-C5-N13=359.69           O8-C7-C6-N2=359.62            O8-C7-C6-C5=180.69            
N9-C7-C6-N2=179.47            N9-C7-C6-C5=  0.54            C10-N9-C7-C6=179.49           C10-N9-C7-O8=359.34           
C11-N9-C7-C6=359.39           C11-N9-C7-O8=179.25           H19-C10-N9-C7=359.55          H19-C10-N9-C11=179.63         
H20-C10-N9-C7=120.05          H20-C10-N9-C11=300.13         H21-C10-N9-C7=239.06          H21-C10-N9-C11= 59.15         
           -------------------------------------------------
          |                Final Singlepoint                |
           -------------------------------------------------

          ...................................................
          :                      SETUP                      :
          :.................................................:
          :  # basis functions                  67          :
          :  # atomic orbitals                  67          :
          :  # shells                           39          :
          :  # electrons                        74          :
          :  max. iterations                   250          :
          :  Hamiltonian                  GFN2-xTB          :
          :  restarted?                      false          :
          :  GBSA solvation                  false          :
          :  PC potential                    false          :
          :  electronic temp.         7500.0000000     K    :
          :  accuracy                    1.0000000          :
          :  -> integral cutoff          0.2500000E+02      :
          :  -> integral neglect         0.1000000E-07      :
          :  -> SCF convergence          0.1000000E-05 Eh   :
          :  -> wf. convergence          0.1000000E-03 e    :
          :  Broyden damping             0.4000000          :
          ...................................................

 iter      E             dE          RMSdq      gap      omega  full diag
   1    -42.6269077 -0.426269E+02  0.422E-05    0.44       0.0  T
   2    -42.6269077  0.294165E-11  0.377E-05    0.44     530.9  T
   3    -42.6269077 -0.349161E-10  0.211E-05    0.44     949.3  T

   *** convergence criteria satisfied after 3 iterations ***

         #    Occupation            Energy/Eh            Energy/eV
      -------------------------------------------------------------
         1        2.0000           -0.9118198             -24.8119
       ...           ...                  ...                  ...
        31        1.9905           -0.6164849             -16.7754
        32        1.9852           -0.6059378             -16.4884
        33        1.9639           -0.5845055             -15.9052
        34        1.9297           -0.5682609             -15.4632
        35        1.9246           -0.5665353             -15.4162
        36        1.8880           -0.5566787             -15.1480
        37        1.2064           -0.4995319             -13.5930 (HOMO)
        38        0.8717           -0.4834571             -13.1555 (LUMO)
        39        0.1891           -0.4359290             -11.8622
        40        0.0573           -0.4058860             -11.0447
        41        0.0175           -0.3772391             -10.2652
        42        0.0005           -0.2920053              -7.9459
       ...           ...                  ...                  ...
        67                          0.5422555              14.7555
      -------------------------------------------------------------
                  HL-Gap            0.0160747 Eh            0.4374 eV
             Fermi-level           -0.4895840 Eh          -13.3223 eV

 SCC (total)                   0 d,  0 h,  0 min,  0.023 sec
 SCC setup                      ...        0 min,  0.000 sec (  1.113%)
 Dispersion                     ...        0 min,  0.000 sec (  1.121%)
 classical contributions        ...        0 min,  0.000 sec (  0.444%)
 integral evaluation            ...        0 min,  0.006 sec ( 27.055%)
 iterations                     ...        0 min,  0.005 sec ( 21.101%)
 molecular gradient             ...        0 min,  0.011 sec ( 48.584%)
 printout                       ...        0 min,  0.000 sec (  0.520%)

         :::::::::::::::::::::::::::::::::::::::::::::::::::::
         ::                     SUMMARY                     ::
         :::::::::::::::::::::::::::::::::::::::::::::::::::::
         :: total energy             -42.115250806671 Eh    ::
         :: gradient norm              0.002739207950 Eh/a0 ::
         :: HOMO-LUMO gap              0.437415088933 eV    ::
         ::.................................................::
         :: SCC energy               -42.626907686772 Eh    ::
         :: -> isotropic ES            0.136032004369 Eh    ::
         :: -> anisotropic ES         -0.005737574795 Eh    ::
         :: -> anisotropic XC          0.012375818852 Eh    ::
         :: -> dispersion             -0.022740917020 Eh    ::
         :: repulsion energy           0.511571717576 Eh    ::
         :: add. restraining           0.000000151292 Eh    ::
         :: total charge               1.000000000000 e     ::
         :::::::::::::::::::::::::::::::::::::::::::::::::::::

           -------------------------------------------------
          |                Property Printout                |
           -------------------------------------------------

    * Orbital Energies and Occupations

         #    Occupation            Energy/Eh            Energy/eV
      -------------------------------------------------------------
         1        2.0000           -0.9118198             -24.8119
       ...           ...                  ...                  ...
        25        1.9990           -0.6699562             -18.2304
        26        1.9988           -0.6661606             -18.1272
        27        1.9984           -0.6593335             -17.9414
        28        1.9956           -0.6349309             -17.2773
        29        1.9954           -0.6339580             -17.2509
        30        1.9912           -0.6183218             -16.8254
        31        1.9905           -0.6164849             -16.7754
        32        1.9852           -0.6059378             -16.4884
        33        1.9639           -0.5845055             -15.9052
        34        1.9297           -0.5682609             -15.4632
        35        1.9246           -0.5665353             -15.4162
        36        1.8880           -0.5566787             -15.1480
        37        1.2064           -0.4995319             -13.5930 (HOMO)
        38        0.8717           -0.4834571             -13.1555 (LUMO)
        39        0.1891           -0.4359290             -11.8622
        40        0.0573           -0.4058860             -11.0447
        41        0.0175           -0.3772391             -10.2652
        42        0.0005           -0.2920053              -7.9459
        43        0.0000           -0.2030061              -5.5241
        44        0.0000           -0.1959048              -5.3308
        45        0.0000           -0.1336123              -3.6358
        46        0.0000           -0.1320747              -3.5939
        47                         -0.0712259              -1.9382
        48                         -0.0412098              -1.1214
       ...                                ...                  ...
        67                          0.5422555              14.7555
      -------------------------------------------------------------
                  HL-Gap            0.0160747 Eh            0.4374 eV
             Fermi-level           -0.4895840 Eh          -13.3223 eV

     #   Z          covCN         q      C6AA      α(0)
     1   6 C        3.691    -0.093    22.469     6.783
     2   7 N        2.827     0.078    19.886     6.623
     3   6 C        3.048     0.047    26.902     8.507
     4   7 N        2.787    -0.057    22.339     7.020
     5   6 C        3.047     0.115    25.424     8.270
     6   6 C        3.109    -0.019    28.341     8.722
     7   6 C        2.764     0.268    22.481     7.765
     8   8 O        0.858    -0.355    20.807     6.116
     9   7 N        2.745    -0.077    22.743     7.083
    10   6 C        3.710    -0.061    21.813     6.675
    11   6 C        2.728     0.316    21.638     7.615
    12   8 O        0.859    -0.340    20.509     6.072
    13   7 N        2.738    -0.036    21.941     6.957
    14   6 C        2.784    -0.080    29.983     8.969
    15   1 H        0.924     0.111     1.690     2.033
    16   1 H        0.925     0.108     1.716     2.048
    17   1 H        0.925     0.137     1.485     1.906
    18   1 H        0.926     0.126     1.566     1.957
    19   1 H        0.925     0.122     1.599     1.977
    20   1 H        0.924     0.108     1.713     2.047
    21   1 H        0.924     0.108     1.714     2.047
    22   1 H        0.926     0.097     1.813     2.106
    23   1 H        0.926     0.098     1.806     2.101
    24   1 H        0.000     0.049     5.813     4.409
    25   1 H        0.860     0.232     0.955     1.531

 Mol. C6AA /au·bohr⁶  :       6785.588033
 Mol. C8AA /au·bohr⁸  :     155159.951929
 Mol. α(0) /au        :        127.337919


Wiberg/Mayer (AO) data.
largest (>0.10) Wiberg bond orders for each atom

 ---------------------------------------------------------------------------
     #   Z sym  total        # sym  WBO       # sym  WBO       # sym  WBO
 ---------------------------------------------------------------------------
     1   6 C    3.904 --     2 N    0.988    16 H    0.960    17 H    0.957
                            15 H    0.952
     2   7 N    3.630 --     3 C    1.356     6 C    1.156     1 C    0.988
     3   6 C    3.765 --     2 N    1.356     4 N    1.260    18 H    0.953
     4   7 N    3.560 --     3 C    1.260     5 C    1.192    25 H    0.917
     5   6 C    3.887 --     6 C    1.325    13 N    1.198     4 N    1.192
     6   6 C    3.854 --     5 C    1.325     2 N    1.156     7 C    1.083
     7   6 C    3.907 --     8 O    1.652     9 N    1.087     6 C    1.083
     8   8 O    1.950 --     7 C    1.652     9 N    0.129
     9   7 N    3.495 --    11 C    1.117     7 C    1.087    10 C    0.974
                             8 O    0.129    12 O    0.125
    10   6 C    3.877 --     9 N    0.974    19 H    0.957    21 H    0.951
                            20 H    0.951
    11   6 C    3.908 --    12 O    1.697     9 N    1.117    13 N    1.012
    12   8 O    2.005 --    11 C    1.697     9 N    0.125    13 N    0.111
    13   7 N    3.509 --     5 C    1.198    14 C    1.015    11 C    1.012
                            12 O    0.111
    14   6 C    2.977 --    13 N    1.015    23 H    0.951    22 H    0.950
    15   1 H    0.978 --     1 C    0.952
    16   1 H    0.981 --     1 C    0.960
    17   1 H    0.978 --     1 C    0.957
    18   1 H    0.983 --     3 C    0.953
    19   1 H    0.975 --    10 C    0.957
    20   1 H    0.969 --    10 C    0.951
    21   1 H    0.969 --    10 C    0.951
    22   1 H    0.972 --    14 C    0.950
    23   1 H    0.972 --    14 C    0.951
    24   1 H    0.023
    25   1 H    0.945 --     4 N    0.917
 ---------------------------------------------------------------------------

Topologies differ in total number of bonds
Writing topology from bond orders to xtbtopo.mol

molecular dipole:
                 x           y           z       tot (Debye)
 q only:        2.515      -1.597       0.016
   full:        2.655      -2.020       0.026       8.478
molecular quadrupole (traceless):
                xx          xy          yy          xz          yz          zz
 q only:       15.959      -5.587       3.374       0.095       0.094     -19.334
  q+dip:       14.071      -7.581       1.690       0.143       0.060     -15.761
   full:       13.564      -7.720       1.021       0.104       0.084     -14.585

           -------------------------------------------------
          |                Geometry Summary                 |
           -------------------------------------------------

      molecular mass/u    :      195.1988581
   center of mass at/Å    :        0.1003321       0.0259457      -0.0018811
  moments of inertia/u·Å² :        0.4823418E+03   0.7312337E+03   0.1203759E+04
rotational constants/cm⁻¹ :        0.3494955E-01   0.2305369E-01   0.1400416E-01

 * 25 selected distances

     #   Z          #   Z                                           value/Å
     1   6 C        2   7 N                                       1.4374915
     2   7 N        3   6 C                                       1.3352813
     3   6 C        4   7 N                                       1.3559619
     4   7 N        5   6 C                                       1.3626271
     2   7 N        6   6 C                                       1.3761874
     5   6 C        6   6 C                                       1.3891337
     6   6 C        7   6 C                                       1.4433774
     7   6 C        8   8 O                                       1.2133102
     7   6 C        9   7 N                                       1.3992131
     9   7 N       10   6 C                                       1.4541481 (max)
     9   7 N       11   6 C                                       1.3850713
    11   6 C       12   8 O                                       1.2005225
     5   6 C       13   7 N                                       1.3468654
    11   6 C       13   7 N                                       1.4186322
    13   7 N       14   6 C                                       1.4102540
     1   6 C       15   1 H                                       1.0915570
     1   6 C       16   1 H                                       1.0898835
     1   6 C       17   1 H                                       1.0899209
     3   6 C       18   1 H                                       1.0714011
    10   6 C       19   1 H                                       1.0884676
    10   6 C       20   1 H                                       1.0907269
    10   6 C       21   1 H                                       1.0907498
    14   6 C       22   1 H                                       1.0752776
    14   6 C       23   1 H                                       1.0769388
     4   7 N       25   1 H                                       1.0106211 (min)

 * 5 distinct bonds (by element types)

   Z      Z             #   av. dist./Å        max./Å        min./Å
   1 H    6 C           9     1.0849914     1.0915570     1.0714011
   6 C    6 C           2     1.4162555     1.4433774     1.3891337
   1 H    7 N           1     1.0106211     1.0106211     1.0106211
   6 C    7 N          11     1.3892485     1.4541481     1.3352813
   6 C    8 O           2     1.2069164     1.2133102     1.2005225


optimized geometry written to: xtbopt.xyz


           -------------------------------------------------
          | TOTAL ENERGY              -42.115250806671 Eh   |
          | GRADIENT NORM               0.002739207950 Eh/α |
          | HOMO-LUMO GAP               0.437415088933 eV   |
           -------------------------------------------------

------------------------------------------------------------------------
 * finished run on 2024/06/05 at 19:58:54.801     
------------------------------------------------------------------------
 total:
 * wall-time:     0 d,  0 h,  0 min,  1.050 sec
 *  cpu-time:     0 d,  0 h,  0 min,  1.030 sec
 * ratio c/w:     0.981 speedup
 SCF:
 * wall-time:     0 d,  0 h,  0 min,  0.037 sec
 *  cpu-time:     0 d,  0 h,  0 min,  0.037 sec
 * ratio c/w:     0.999 speedup
 ANC optimizer:
 * wall-time:     0 d,  0 h,  0 min,  0.985 sec
 *  cpu-time:     0 d,  0 h,  0 min,  0.982 sec
 * ratio c/w:     0.996 speedup

