72
 energy: -99.960337010880 gnorm: 0.169519930158 xtb: 6.6.1 (8d0f1dd)
N           -1.47310948490000        2.74401344020000        2.22063962890000
C           -1.55658908660000        2.16490325710000        1.13274294970000
C           -2.74549250730000        2.05621270340000        0.23826252860000
C           -3.31377614600000        0.64333423480000        0.32332518650000
C           -4.30230235840000        0.24487114700000       -0.58026172470000
C           -4.85238853070000       -1.02286509430000       -0.53363598620000
O           -5.81420080700000       -1.48606061760000       -1.36157907990000
C           -6.39655751930000       -0.60827011470000       -2.29568516900000
C           -4.39972583170000       -1.94646138300000        0.44396937360000
O           -4.98748403830000       -3.16146055820000        0.41085999630000
C           -4.66362214440000       -4.10093903850000        1.40909153890000
C           -3.42072576950000       -1.54561413490000        1.33436571020000
C           -2.88302853110000       -0.26315805280000        1.27400174410000
C           -2.19303838800000        2.30467043070000       -1.18742999140000
C           -1.26651561740000        1.17243391200000       -1.65249460350000
C            0.01082525140000        1.09745474840000       -0.89354820080000
N            0.61779404940000       -0.02034948430000       -0.57705533220000
C            2.00145247490000       -0.02376006830000       -0.15611402500000
C            2.92554988940000       -0.53865292670000       -1.27700112500000
C            4.35756923930000       -0.43050765220000       -0.83075559740000
C            5.07346229610000        0.73206422670000       -1.03980985120000
C            6.38628105150000        0.84224457050000       -0.60344833900000
C            7.00047394670000       -0.20824760200000        0.05722315480000
O            8.26703810540000       -0.21011317000000        0.52410953370000
C            9.06912396130000        0.92943618280000        0.31863063920000
C            6.27040080620000       -1.40439780020000        0.28033471210000
O            6.94830068840000       -2.38012969870000        0.92752016290000
C            6.31537434930000       -3.61583267180000        1.15217733090000
C            4.96302886720000       -1.49347499580000       -0.16064433340000
C           -0.05511212390000       -1.29906271910000       -0.62085697840000
C           -3.86758108790000        3.07992657580000        0.58498071070000
C           -4.49286243030000        2.77383544520000        1.94313325540000
C           -3.39165242810000        4.52917750630000        0.54797533640000
H           -4.66030112940000        0.94509084900000       -1.31640593250000
H           -6.85038055670000        0.25803166980000       -1.80468878800000
H           -7.17287575700000       -1.18600132850000       -2.79318209390000
H           -5.66836922630000       -0.26952971320000       -3.04040311660000
H           -4.88416811300000       -3.71589529470000        2.40913586890000
H           -5.29223668820000       -4.96637550910000        1.20969259350000
H           -3.61139880150000       -4.39919916960000        1.35529382990000
H           -3.07077853590000       -2.21868806880000        2.10002701660000
H           -2.14562794240000        0.02067851080000        2.01001381680000
H           -3.02188931450000        2.38238056520000       -1.88813580090000
H           -1.65198561550000        3.25146761010000       -1.20556306940000
H           -1.81103407850000        0.23006528910000       -1.62116331710000
H           -0.99335706960000        1.37490237710000       -2.69443306970000
H           -0.67628076910000        1.65183917700000        0.61785738610000
H            0.63525852980000        1.98466406620000       -0.92314038320000
H            2.11132591670000       -0.65949705080000        0.72532626690000
H            2.30680515860000        0.98978270070000        0.11078974850000
H            2.76694250160000        0.06750736400000       -2.17075292480000
H            2.67954631090000       -1.57455657020000       -1.51167771570000
H            4.62170084310000        1.56295641050000       -1.56123607970000
H            6.92357803100000        1.75715848550000       -0.79119611400000
H            8.65159273530000        1.81001856910000        0.81701570320000
H            9.20136341880000        1.14042878990000       -0.74699005810000
H           10.03429024200000        0.69003252980000        0.76064952080000
H            7.05567305890000       -4.23621250400000        1.65347596620000
H            5.43848101970000       -3.50813623270000        1.79970599180000
H            6.02060153620000       -4.09420573090000        0.21253286580000
H            4.40102840160000       -2.40127310930000       -0.00490198340000
H           -0.22071303810000       -1.61775613620000       -1.65116039620000
H           -1.01972276930000       -1.24102740460000       -0.10935208860000
H            0.55899964520000       -2.04486123870000       -0.12333732710000
H           -4.63991961830000        2.95501147630000       -0.18098091430000
H           -3.76095286260000        2.90314758830000        2.73380871780000
H           -4.87457704480000        1.75695674120000        1.97884639820000
H           -5.31925651250000        3.45579274450000        2.12325603650000
H           -2.60025638380000        4.69225133210000        1.27368941860000
H           -3.03987462820000        4.81897741740000       -0.43870983200000
H           -4.22191819010000        5.18069744220000        0.80616708920000
H           -0.59832444890000        2.77744746490000        2.72959035090000
72
 energy: -100.053133790096 gnorm: 0.119854209352 xtb: 6.6.1 (8d0f1dd)
N           -1.48579579428036        2.77510055372869        2.23841747191808
C           -1.55731841741996        2.14711260524795        1.15917562700505
C           -2.74370290174111        2.04964896995111        0.25336881253046
C           -3.31335401565376        0.63833075054451        0.33516167762135
C           -4.29699916964777        0.23564812264901       -0.57127399121821
C           -4.84566186135712       -1.03201190685014       -0.52589796836499
O           -5.80847852915847       -1.49950584135137       -1.36063160137425
C           -6.38082588694664       -0.62269884086728       -2.29973741130847
C           -4.39977909410441       -1.95202800057763        0.45402392584146
O           -4.99203160357444       -3.17232253897653        0.42058558705879
C           -4.66880904735208       -4.10777153776203        1.42036653387317
C           -3.42683145744934       -1.54993627506593        1.34894697493350
C           -2.88951181640383       -0.26769287292438        1.28924118077569
C           -2.19301652424352        2.29520739113706       -1.17480194363644
C           -1.26804514362200        1.17333113776342       -1.66788479595276
C            0.01020682212724        1.11833394498407       -0.90693392767442
N            0.64610807975087       -0.03452216295915       -0.58789568828974
C            2.02078469827777       -0.01380406481809       -0.18230243816709
C            2.94949263957402       -0.48907713450064       -1.31493953531161
C            4.37195027257295       -0.40111863758678       -0.86315582097783
C            5.11405200798017        0.74662470194720       -1.07629741049832
C            6.42139551462023        0.84063034516034       -0.62562932962666
C            7.00656865979337       -0.21706177469385        0.04765549007586
O            8.27690628017548       -0.23244418609348        0.53101191018531
C            9.09494629614541        0.89484582646814        0.32482276441842
C            6.24528468382981       -1.39676918404500        0.27528254975504
O            6.90712819549649       -2.37396065534331        0.94358928864197
C            6.23981840974202       -3.58904372377589        1.15786406073630
C            4.92608229263859       -1.47279769301167       -0.15931625347686
C           -0.01720250734387       -1.30897851417803       -0.64736718717812
C           -3.87024317621342        3.06734146508683        0.59176596434968
C           -4.49430740937218        2.76634946018971        1.95242175498743
C           -3.39742880229089        4.51861894091655        0.55334796222063
H           -4.64807833017711        0.93303016291268       -1.31397829457922
H           -6.83580710128970        0.24687416564763       -1.81465826044984
H           -7.15536692599691       -1.20070773703681       -2.80070955987169
H           -5.64727300357939       -0.28646052610479       -3.04042907556391
H           -4.89336531024750       -3.72267934262339        2.42008227139218
H           -5.29497508011394       -4.97506040369256        1.21906876537129
H           -3.61544981437656       -4.40364940643940        1.37175994937165
H           -3.07858501664453       -2.22367340033599        2.11596141843513
H           -2.15148935908640        0.01605021293623        2.02357435912118
H           -3.02424568941110        2.38592201803291       -1.87365708284571
H           -1.64509706980869        3.23897587181089       -1.18840489403513
H           -1.80560496049943        0.22663838305966       -1.61763105520235
H           -1.02645334313833        1.37293652134216       -2.71936270404604
H           -0.68342984463863        1.62685058451072        0.66537008992650
H            0.63462952572499        1.99870343827595       -0.94699171142043
H            2.14493820655695       -0.66179440931476        0.68888900241175
H            2.30571364055422        1.00218585737913        0.10050965270508
H            2.78895241127342        0.13963951554887       -2.19156844243036
H            2.69965484328144       -1.51814303828590       -1.57315799548965
H            4.68030218467499        1.58167057466079       -1.60618290939804
H            6.97742490739495        1.74523422564515       -0.81546405856548
H            8.68700704941689        1.78710584641007        0.81147856195732
H            9.24175007687664        1.09746884120115       -0.74107793127747
H           10.05314965824167        0.64710538389728        0.77832739074143
H            6.94588451812237       -4.21677376840587        1.69517906871475
H            5.34290727221884       -3.44692896914126        1.76800252245827
H            5.96616700706410       -4.07277574634652        0.21483736953875
H            4.22867264981223       -2.31264561333797        0.12559405271736
H           -0.15244868740519       -1.63813454904448       -1.68092097390495
H           -0.99726600025469       -1.25425928410436       -0.16595816406330
H            0.58803827740861       -2.04278082332276       -0.12359218389106
H           -4.64472799261272        2.94261720485503       -0.17328186922375
H           -3.75805024920026        2.89806132989676        2.73899388893804
H           -4.87103905350996        1.74719581772730        1.99081825098975
H           -5.32345001141654        3.44660886214899        2.13239436754146
H           -2.60250079892089        4.68031587445073        1.27553489197229
H           -3.04613554810499        4.80533564210960       -0.43478312981001
H           -4.22824793000341        5.17107727242972        0.81209690360345
H           -0.60558840183434        2.78457744745353        2.74284002108800
72
 energy: -100.159492722781 gnorm: 0.109463157383 xtb: 6.6.1 (8d0f1dd)
N           -1.50221335589534        2.81151221809381        2.25146346856499
C           -1.55377084532087        2.12712532812677        1.18718832066688
C           -2.74076473045602        2.04023375061768        0.27059436726628
C           -3.31103443923904        0.62989238257605        0.34784807588830
C           -4.29000339130872        0.22327835809019       -0.56125892945588
C           -4.83725820759463       -1.04378397760196       -0.51593768555361
O           -5.80119578884431       -1.51600518479011       -1.35920157652100
C           -6.36070014708801       -0.64088670061378       -2.30453248169783
C           -4.39979380608924       -1.95906250327303        0.46675297286705
O           -4.99787019221164       -3.18557249316561        0.43360052539003
C           -4.67527745340235       -4.11591514022547        1.43471094510313
C           -3.43373802772777       -1.55651551447543        1.36740865149624
C           -2.89667587527948       -0.27528102299029        1.30764645559015
C           -2.19221315097487        2.28657579050068       -1.15992819447307
C           -1.27141074983602        1.17037878178418       -1.67701381201906
C            0.00952685016900        1.13861355771605       -0.92383551987785
N            0.67627091293277       -0.04613243967178       -0.60493186315159
C            2.04095492266670        0.00375368452829       -0.21755217396110
C            2.97844775007053       -0.42553276139254       -1.36199181253430
C            4.38958202591030       -0.36335048054110       -0.89643121745732
C            5.16587587615322        0.76196709046064       -1.12438040718209
C            6.46657983927533        0.83794790236908       -0.65496273236376
C            7.01318668376933       -0.22949667933712        0.03306309421122
O            8.28709208668057       -0.26145415695178        0.53829994210555
C            9.12580644532322        0.85016928474952        0.33210405579655
C            6.21064322423228       -1.38356254420459        0.27775120723543
O            6.85666713898408       -2.36596729103815        0.96279254094480
C            6.14498403539616       -3.55418577557144        1.16567209639518
C            4.87479312310666       -1.44204121364106       -0.13916818820051
C            0.02820744530216       -1.31687931020201       -0.68251940562664
C           -3.87082441095877        3.05161192847518        0.60163318462666
C           -4.49545714665895        2.75604251627121        1.96439479136972
C           -3.40375585194557        4.50606123291757        0.55960456485892
H           -4.63326794557907        0.91777353106329       -1.31108206029243
H           -6.81785702228070        0.23268528902654       -1.82738665980147
H           -7.13296468257164       -1.21910444725335       -2.80998990539956
H           -5.62074056870209       -0.30804072095102       -3.04065329541600
H           -4.90535655096203       -3.73156224686649        2.43422506189870
H           -5.29821011319051       -4.98568036253082        1.23119122410437
H           -3.62061822569657       -4.40944589590096        1.39286134429240
H           -3.08875527116198       -2.23011856120223        2.13696837034709
H           -2.15950062940763        0.00940356860387        2.04178249259464
H           -3.02717550513096        2.39244127389397       -1.85494965019067
H           -1.63583242728240        3.22637967524693       -1.16704773091423
H           -1.80022693136013        0.21861138505565       -1.61058776202457
H           -1.06459101838203        1.36807590784498       -2.73835150437586
H           -0.69195453062648        1.59386743853625        0.72624089161378
H            0.63448678851278        2.00994405112370       -0.96789756049633
H            2.18803799956207       -0.66227243277804        0.63999531221872
H            2.30504316160249        1.01984942697360        0.08901972582296
H            2.81726557794321        0.23269207230715       -2.21626968957113
H            2.72465889228991       -1.44561219341850       -1.65419832420305
H            4.75389160048197        1.60192792861629       -1.66506543999970
H            7.04464639963390        1.73033666600276       -0.84488457011980
H            8.73164661391744        1.75760071658669        0.80434994201703
H            9.29295581226757        1.04247766001818       -0.73371495118527
H           10.07518178319331        0.59164275129282        0.80054059685116
H            6.80519172936764       -4.19263428266750        1.74820846344644
H            5.22360132794436       -3.36974349710304        1.72774438868691
H            5.89732026152611       -4.04408298913890        0.21824327901072
H            4.02073955205626       -2.19989984793567        0.26518317755992
H           -0.06419848026480       -1.66510959724511       -1.71825207250164
H           -0.97116002665838       -1.27086620317671       -0.24058611152747
H            0.62174746921871       -2.03600717032900       -0.12275847304530
H           -4.64743969532860        2.92522708756842       -0.16247052944476
H           -3.75575126131639        2.89230434249760        2.74688739946781
H           -4.86715557630806        1.73466946220673        2.00663524926759
H           -5.32742204231321        3.43420972373899        2.14287214258291
H           -2.60550282674352        4.66685930866469        1.27797409129900
H           -3.05429547804847        4.78934038711120       -0.43046911331435
H           -4.23554572100090        5.15809177921366        0.81926658613303
H           -0.61365482744098        2.78952310491262        2.75002914110621
72
 energy: -100.254351655762 gnorm: 0.116170090339 xtb: 6.6.1 (8d0f1dd)
N           -1.51514330351072        2.83479726117256        2.26357393045843
C           -1.55178718165548        2.11594164788106        1.21154708467782
C           -2.73811253563657        2.02997768753993        0.28693921675724
C           -3.30867378099548        0.62010391126408        0.36087750354273
C           -4.28249051799516        0.21045541063473       -0.55219837066632
C           -4.82973663644346       -1.05626335221517       -0.50640984353985
O           -5.79228343802958       -1.53185635942501       -1.35660865743876
C           -6.34007349753154       -0.65949137835122       -2.30934478659723
C           -4.40065488887701       -1.96748239221723        0.48053817856736
O           -5.00262708995287       -3.19734171567572        0.44774198817396
C           -4.68208532900382       -4.12416197177148        1.45035421959628
C           -3.44044804570334       -1.56403701987300        1.38671455625265
C           -2.90284404934317       -0.28367055357094        1.32626506212801
C           -2.19153975422364        2.27877423178099       -1.14514916355642
C           -1.27616054293492        1.16681954002566       -1.68353789766014
C            0.01008473658130        1.15203606295817       -0.94415951857157
N            0.70058827085710       -0.05099958424887       -0.62443891751565
C            2.06074216742126        0.02384409589761       -0.25256459102334
C            3.00353959547186       -0.35926369274502       -1.41076938412015
C            4.40313360582245       -0.32227381167307       -0.92275770812577
C            5.21581631085425        0.77676887144815       -1.17021611390296
C            6.51140370507073        0.83435479415668       -0.68416408584798
C            7.01782477251428       -0.24043729815124        0.02270580534226
O            8.29353766008106       -0.29187515442327        0.54422903924871
C            9.15647713622210        0.80251206635003        0.33878995957862
C            6.17156194844016       -1.36536285766201        0.28886049297916
O            6.80052290495278       -2.35671045431295        0.98255704245368
C            6.04604491500265       -3.51889161052738        1.17545923038826
C            4.81829352081575       -1.39800017604595       -0.10471927260204
C            0.07380892282148       -1.32532429402377       -0.71858790868366
C           -3.87152759424107        3.03650818621873        0.61243996818678
C           -4.49598075244513        2.74529401639109        1.97677094540910
C           -3.40956227148246        4.49317012916249        0.56562609385126
H           -4.61842962625526        0.90222538483940       -1.30812020843500
H           -6.79953550025149        0.21789421190228       -1.84054748648470
H           -7.10969308216210       -1.23805125314487       -2.81923506237230
H           -5.59345639662529       -0.33067225502339       -3.04086712375442
H           -4.91803601653099       -3.74056637036959        2.44929874669463
H           -5.30164336690274       -4.99622981992162        1.24441782017048
H           -3.62625987010029       -4.41540535369796        1.41517483794874
H           -3.09955868311690       -2.23649721161224        2.15939649225005
H           -2.16786877184041        0.00245666086175        2.06173257275877
H           -3.02931870833274        2.39849238690770       -1.83573452073998
H           -1.62711554098008        3.21410613114138       -1.14598404009083
H           -1.79639957617188        0.21088076383812       -1.60291206565839
H           -1.09964955305935        1.36214220002141       -2.75287482750123
H           -0.69917666082408        1.56014556324213        0.78524119300959
H            0.63313331896154        2.02097485695494       -0.98584991650719
H            2.23103087779701       -0.66026076654048        0.58941489787916
H            2.30588537718092        1.03835328894766        0.07709710380410
H            2.84748321496761        0.32888525083936       -2.24263243417285
H            2.74973406001768       -1.36986095690666       -1.73819160148890
H            4.82953204800225        1.61922930902038       -1.72812854081788
H            7.11293368243783        1.71231496651023       -0.87692518269759
H            8.77716586041688        1.72498141571638        0.79661561463207
H            9.34502126479824        0.98416567018315       -0.72622530386286
H           10.09611185037713        0.53239923784830        0.82285642601297
H            6.65834551442603       -4.16720148768963        1.80217816303348
H            5.10214038800432       -3.29172453353199        1.68734132591035
H            5.82574202543276       -4.01523014876584        0.22377399887833
H            3.84613790845869       -2.09315169218404        0.37331285073187
H            0.02734081618205       -1.69188553863136       -1.75482728324804
H           -0.94428097065080       -1.28894272178381       -0.31788845316196
H            0.65529449871899       -2.02892512792206       -0.12299938145651
H           -4.64896118638281        2.90642794456481       -0.15105436977894
H           -3.75430713862600        2.88696039481816        2.75631362642833
H           -4.86314854862182        1.72221142985400        2.02299699472889
H           -5.33054463519669        3.42130528813250        2.15305605467053
H           -2.60859881632350        4.65471461852932        1.28048081069771
H           -3.06292916164261        4.77338250363980       -0.42640508099219
H           -4.24234959903439        5.14410032260754        0.82612011602658
H           -0.62152185857000        2.79723390803434        2.75670587601344
72
 energy: -100.335319918651 gnorm: 0.107703759720 xtb: 6.6.1 (8d0f1dd)
N           -1.52250557706012        2.84507273053170        2.27205100297300
C           -1.55248222616841        2.11100062250274        1.23187662365661
C           -2.73562262491269        2.01840586148268        0.30125695177554
C           -3.30601666682733        0.60869522854287        0.37368893572534
C           -4.27464753096544        0.19740969274569       -0.54425814232660
C           -4.82345128879048       -1.06894597803814       -0.49763893625046
O           -5.78177351404448       -1.54636113576958       -1.35280608462299
C           -6.31949838833231       -0.67785342483396       -2.31413696654987
C           -4.40225000990680       -1.97712679547470        0.49492137701556
O           -5.00602964564634       -3.20694749620714        0.46248868123929
C           -4.68898973953155       -4.13234443501906        1.46675301774481
C           -3.44685235960188       -1.57220787221680        1.40611591265199
C           -2.90793419621388       -0.29269333788797        1.34467829059642
C           -2.19055608795366        2.27245587328848       -1.13126116891097
C           -1.28227174492750        1.16190147855579       -1.68581535742685
C            0.01254911368515        1.15624613378809       -0.96762448053500
N            0.71681576483623       -0.04769146808613       -0.64586052633697
C            2.07860883701654        0.04705908305046       -0.28810184274510
C            3.02482229883823       -0.29287194885625       -1.45760017643234
C            4.41445461049906       -0.28019225642276       -0.94208162514730
C            5.26246066524295        0.78956426464992       -1.21103948970916
C            6.55451931947128        0.82910364968316       -0.71189675693972
C            7.02083988780188       -0.24887207216941        0.01745747112842
O            8.29591372715953       -0.32201069393855        0.54878546975318
C            9.18572008796046        0.75380028396691        0.34499969172187
C            6.13283257213592       -1.34322989763356        0.30326947513477
O            6.73950824268279       -2.34576875390213        1.00350078158962
C            5.94556880278997       -3.48362098872107        1.18708687829780
C            4.76843081914584       -1.34506507458683       -0.07600964288721
C            0.11793981191309       -1.33341516244464       -0.75480023049477
C           -3.87210691039816        3.02244858820581        0.62364395758383
C           -4.49590695137272        2.73436813023041        1.98894219167464
C           -3.41481856694975        4.48038381119823        0.57118801566780
H           -4.60394917525962        0.88671368696979       -1.30511965856119
H           -6.78133643404353        0.20291451499607       -1.85380759551660
H           -7.08607985023314       -1.25705278708980       -2.82811481418224
H           -5.56619480353147       -0.35367552044949       -3.04109004561854
H           -4.93110522850874       -3.74944273050076        2.46465621274491
H           -5.30524509022298       -5.00626551503483        1.25806416577374
H           -3.63224074756630       -4.42142107142850        1.43787044685500
H           -3.11078825965790       -2.24259070427165        2.18242161966236
H           -2.17647081602149       -0.00475614149620        2.08295741471035
H           -3.03066377890688        2.40431243142600       -1.81643459350634
H           -1.61903008760984        3.20315801707382       -1.12561644825799
H           -1.79440505720298        0.20281925122777       -1.59509638725179
H           -1.13077757559686        1.35552721917536       -2.76051942872216
H           -0.70463526067448        1.52891880985023        0.83952940915019
H            0.62995530325668        2.02989895175436       -0.99958375488383
H            2.27058167409580       -0.65401191402342        0.53650082667763
H            2.30782365925507        1.05731270225279        0.06460628031820
H            2.87872187600334        0.42470586603163       -2.26659059914870
H            2.77444176065071       -1.29246010363269       -1.82252341001560
H            4.90471910679508        1.63162475060444       -1.79153126589468
H            7.17951272559031        1.69068381718929       -0.91017345534319
H            8.82204287106960        1.69022800333579        0.78870594271543
H            9.39606524351434        0.92381043201946       -0.71835333942847
H           10.11456958255034        0.47120742839701        0.84480279809894
H            6.50853442571283       -4.13876063367976        1.85345453128920
H            4.98497266877106       -3.21655596467914        1.64782181395197
H            5.75389617414300       -3.98772466245643        0.23231265053423
H            3.69783168816883       -1.99196141139593        0.46367860915989
H            0.11957911650169       -1.71654373706079       -1.78836420280214
H           -0.91607198294983       -1.30862488914758       -0.39600160423780
H            0.68704763198072       -2.02046004997127       -0.12534583783482
H           -4.64935360964435        2.88703477789851       -0.13926328877767
H           -3.75392028847402        2.88215325958236        2.76682929289549
H           -4.85924557447206        1.71017016770781        2.03947608516703
H           -5.33270668029354        3.40815202128571        2.16279441813689
H           -2.61190268037050        4.64425122447218        1.28300068399765
H           -3.07180061891129        4.75809856185545       -0.42267060539178
H           -4.24840884656877        5.12972412111641        0.83259605401212
H           -0.62933519201209        2.80748388707916        2.76483451770748
72
 energy: -100.397814119963 gnorm: 0.081555633777 xtb: 6.6.1 (8d0f1dd)
N           -1.52352629562220        2.85109548871798        2.27360257177737
C           -1.55527354104539        2.10490751270283        1.24954022554101
C           -2.73299958894387        2.00568699805902        0.31370441758665
C           -3.30318556645124        0.59628458534265        0.38592773471089
C           -4.26680813027707        0.18440639788482       -0.53724995460903
C           -4.81835247307339       -1.08134161525526       -0.48967824893308
O           -5.77024477150502       -1.55939559173648       -1.34815272853182
C           -6.29954999034440       -0.69539314301960       -2.31874710766080
C           -4.40424361061496       -1.98741848042437        0.50924682340266
O           -5.00827793072826       -3.21445373019176        0.47720144984403
C           -4.69572603811024       -4.14027133761294        1.48322254505935
C           -3.45287999143707       -1.58054117695384        1.42473807404174
C           -2.91208185425908       -0.30188252803980        1.36238433955274
C           -2.18885688909638        2.26674174588731       -1.11807935057654
C           -1.28883062145837        1.15535806273953       -1.68415329578466
C            0.01792421049657        1.15022713989273       -0.99333144345383
N            0.72542760540190       -0.03635097882675       -0.66966887238322
C            2.09255715092349        0.07368815580137       -0.32452780548459
C            3.04242600691091       -0.22822833637148       -1.49984490518661