72
 energy: 0.000000000000 xtb: 6.6.1 (8d0f1dd)
N           -1.47885056709893        2.75836393659335        2.22959567403696
C           -1.55714662594941        2.15477801009839        1.14793427697163
C           -2.74411735309551        2.05110600140941        0.25027043634723
C           -3.31338725415536        0.63862172777609        0.33459699334411
C           -4.29783259990072        0.23710809311486       -0.57259659289565
C           -4.84700674064504       -1.03016205753849       -0.52746271968692
O           -5.80937159471902       -1.49743418449922       -1.36078909573474
C           -6.38341084746366       -0.62034018905217       -2.29909070159588
C           -4.39977786800607       -1.95191437644861        0.45381908451120
O           -4.99094250514411       -3.16976729309489        0.41822606106103
C           -4.66826313865901       -4.10706659744371        1.41917144263193
C           -3.42603526560625       -1.54930247913088        1.34695664660153
C           -2.88841038628740       -0.26679858977953        1.28656336175542
C           -2.19302526188332        2.29752959832004       -1.17817103363070
C           -1.26752624534342        1.17325360461598       -1.66415915733361
C            0.01022979434023        1.11760286777001       -0.90640454395228
N            0.65033977218906       -0.03636647567154       -0.58989971607437
C            2.02159031251091       -0.01325837454551       -0.18356005425003
C            2.94527364671869       -0.49800453759841       -1.30819100608156
C            4.36945648632516       -0.40630220102344       -0.85790870758473
C            5.10529652104696        0.74369455258437       -1.06834032536855
C            6.41536759626969        0.84093399578430       -0.62178275293181
C            7.00571907570820       -0.21569638843969        0.04918257662894
O            8.27565452152096       -0.22933284498627        0.53012877642396
C            9.09143179603952        0.89970063065446        0.32398591501934
C            6.24044695679814       -1.39510074852913        0.27534721017769
O            6.90844234076745       -2.37416252714824        0.94308188699810
C            6.24924571367039       -3.59243548667060        1.15712805219398
C            4.90588017350877       -1.46120228883627       -0.15429506017425
C           -0.02291898274431       -1.30772009399486       -0.64320904508083
C           -3.87009943822843        3.06893051997578        0.59085538145529
C           -4.49425514917254        2.76670210432358        1.95199638465484
C           -3.39617090851960        4.52098306752787        0.55215317602953
H           -4.65040525784853        0.93536329189208       -1.31443774320257
H           -6.83810689866501        0.24865776515013       -1.81306176739097
H           -7.15782183927909       -1.19866295581433       -2.79966865219536
H           -5.65044164492238       -0.28390325059173       -3.04042231693416
H           -4.89253407222627       -3.72206504658267        2.41909746646381
H           -5.29452497703906       -4.97361591885666        1.21747662075453
H           -3.61499689970914       -4.40314745725152        1.36991803719447
H           -3.07805141769552       -2.22333376923244        2.11486719682929
H           -2.15181107112046        0.01578907519958        2.02431140859688
H           -3.02406762700901        2.38560737025299       -1.87476651085941
H           -1.64699189429306        3.24210876664661       -1.19301319062281
H           -1.80335368609454        0.22388152245484       -1.61516759972519
H           -1.01269404900286        1.37388806888100       -2.70998406587867
H           -0.68167429774007        1.63319509986789        0.65342276552629
H            0.63471111379235        1.99571155071039       -0.94174523005493
H            2.14474424630049       -0.66179053955390        0.68910348634463
H            2.30551300129882        1.00587610155723        0.09792304813594
H            2.78588580796120        0.12957975850428       -2.18876187231606
H            2.69760368946625       -1.52397896121573       -1.56672966033272
H            4.67117296358165        1.57892367881512       -1.59906565592090
H            6.96953066430549        1.74698231015399       -0.81194785393456
H            8.68299156781068        1.78972570843507        0.81211155224534
H            9.23687155928719        1.10267667507324       -0.74178641489858
H           10.05098653076044        0.65223731868245        0.77623802257711
H            6.95408834437235       -4.21820542543183        1.69207279876865
H            5.35745983872746       -3.45628580436252        1.77286221271869
H            5.97524810846180       -4.07642844502716        0.21442995160886
H            4.24584969335684       -2.32167662905156        0.11325079045305
H           -0.15825446795407       -1.63638314993233       -1.67842294416510
H           -0.99780939891381       -1.25392632421441       -0.16450050215107
H            0.58639949572770       -2.04294949247788       -0.12359094731107
H           -4.64481985845047        2.94219957919274       -0.17302257144050
H           -3.75765982276140        2.89720720646079        2.74002580400107
H           -4.87139306910201        1.74824395154062        1.98951609055364
H           -5.32286147553197        3.44809144800344        2.13100856389955
H           -2.60155622598881        4.68513992712727        1.27476047542263
H           -3.04469594772690        4.80835928556343       -0.43563398998880
H           -4.22780256669079        5.17180175338517        0.81167102140698
H           -0.60396086728822        2.78321211821420        2.74053085478072
