72
 energy: 0.000000000000 xtb: 6.6.1 (8d0f1dd)
N           -1.47310921155849        2.74401293103706        2.22063921685122
C           -1.55658879776851        2.16490285539332        1.13274273951491
C           -2.74549199786261        2.05621232186130        0.23826248438941
C           -3.31377553111525        0.64333411542669        0.32332512650568
C           -4.30230156009016        0.24487110156316       -0.58026161703006
C           -4.85238763031941       -1.02286490450319       -0.53363588718165
O           -5.81419972815119       -1.48606034185536       -1.36157882725342
C           -6.39655633239252       -0.60827000183299       -2.29568474302620
C           -4.39972501531283       -1.94646102182611        0.44396929121966
O           -4.98748311285188       -3.16145997157803        0.41085992006324
C           -4.66362127904578       -4.10093827755394        1.40909127743729
C           -3.42072513477031       -1.54561384810496        1.33436546260297
C           -2.88302799614223       -0.26315800396994        1.27400150770375
C           -2.19303798107274        2.30467000305896       -1.18742977106749
C           -1.26651538239283        1.17243369445008       -1.65249429687285
C            0.01082524939134        1.09745454476277       -0.89354803499847
N            0.61779393476578       -0.02034948052406       -0.57705522512502
C            2.00145210352228       -0.02376006389122       -0.15611399603240
C            2.92554934655222       -0.53865282675074       -1.27700088804721
C            4.35756843073516       -0.43050757231754       -0.83075544324989
C            5.07346135469827        0.73206409086248       -1.03980965825901
C            6.38627986649936        0.84224441421807       -0.60344822702769
C            7.00047264773336       -0.20824756335880        0.05722314418200
O            8.26703657141718       -0.21011313101264        0.52410943644933
C            9.06912227848686        0.92943601033931        0.31863058007678
C            6.27039964270142       -1.40439753960823        0.28033466008274
O            6.94829939911432       -2.38012925705718        0.92751999079483
C            6.31537317745639       -3.61583200086742        1.15217711710877
C            4.96302794628964       -1.49347471867959       -0.16064430359178
C           -0.05511211367372       -1.29906247805359       -0.62085686319744
C           -3.86758037025447        3.07992600430699        0.58498060215443
C           -4.49286159663096        2.77383493050346        1.94313289484366
C           -3.39165179876499        4.52917666589254        0.54797523472093
H           -4.66030026466202        0.94509067363451       -1.31640568823548
H           -6.85037928558380        0.25803162192116       -1.80468845313260
H           -7.17287442604349       -1.18600110843259       -2.79318157561361
H           -5.66836817451085       -0.26952966318766       -3.04040255244073
H           -4.88416720672258       -3.71589460520039        2.40913542187496
H           -5.29223570620378       -4.96637458756866        1.20969236903657
H           -3.61139813139015       -4.39919835331056        1.35529357841967
H           -3.07077796610445       -2.21868765711333        2.10002662693138
H           -2.14562754426994        0.02067850696302        2.01001344383370
H           -3.02188875377605        2.38238012313952       -1.88813545054866
H           -1.65198530896729        3.25146700677685       -1.20556284570283
H           -1.81103374245520        0.23006524641044       -1.62116301628650
H           -0.99335688527853        1.37490212198123       -2.69443256973690
H           -0.67628064361333        1.65183887049447        0.61785727145403
H            0.63525841192517        1.98466369793744       -0.92314021190751
H            2.11132552493482       -0.65949692842762        0.72532613231274
H            2.30680473056284        0.98978251704176        0.11078972794250
H            2.76694198818247        0.06750735147374       -2.17075252200790
H            2.67954581369920       -1.57455627803457       -1.51167743520200
H            4.62169998552446        1.56295612048703       -1.56123579000624
H            6.92357674630170        1.75715815945204       -0.79119596719031
H            8.65159112996149        1.81001823324363        0.81701555159939
H            9.20136171144928        1.14042857828877       -0.74698991949293
H           10.03428838009630        0.69003240176163        0.76064937965836
H            7.05567174969094       -4.23621171795340        1.65347565939075
H            5.43848001056755       -3.50813558175093        1.79970565785717
H            6.02060041905269       -4.09420497120334        0.21253282636366
H            4.40102758497114       -2.40127266373392       -0.00490198249042
H           -0.22071299714579       -1.61775583601871       -1.65116008982042
H           -1.01972258008625       -1.24102717432227       -0.10935206830928
H            0.55899954147532       -2.04486085926761       -0.12333730421426
H           -4.63991875734388        2.95501092798550       -0.18098088071825
H           -3.76095216473977        2.90314704960906        2.73380821053058
H           -4.87457614030224        1.75695641518947        1.97884603101694
H           -5.31925552549014        3.45579210326349        2.12325564252114
H           -2.60025590131176        4.69225046143352        1.27368918226171
H           -3.03987406413880        4.81897652321898       -0.43870975059559
H           -4.22191740670577        5.18069648090034        0.80616693961239
H           -0.59832433787845        2.77744694953323        2.72958984441332
72
 energy: 0.000000000000 xtb: 6.6.1 (8d0f1dd)
N           -1.47885056709893        2.75836393659335        2.22959567403696
C           -1.55714662594941        2.15477801009839        1.14793427697163
C           -2.74411735309551        2.05110600140941        0.25027043634723
C           -3.31338725415536        0.63862172777609        0.33459699334411
C           -4.29783259990072        0.23710809311486       -0.57259659289565
C           -4.84700674064504       -1.03016205753849       -0.52746271968692
O           -5.80937159471902       -1.49743418449922       -1.36078909573474
C           -6.38341084746366       -0.62034018905217       -2.29909070159588
C           -4.39977786800607       -1.95191437644861        0.45381908451120
O           -4.99094250514411       -3.16976729309489        0.41822606106103
C           -4.66826313865901       -4.10706659744371        1.41917144263193
C           -3.42603526560625       -1.54930247913088        1.34695664660153
C           -2.88841038628740       -0.26679858977953        1.28656336175542
C           -2.19302526188332        2.29752959832004       -1.17817103363070
C           -1.26752624534342        1.17325360461598       -1.66415915733361
C            0.01022979434023        1.11760286777001       -0.90640454395228
N            0.65033977218906       -0.03636647567154       -0.58989971607437
C            2.02159031251091       -0.01325837454551       -0.18356005425003
C            2.94527364671869       -0.49800453759841       -1.30819100608156
C            4.36945648632516       -0.40630220102344       -0.85790870758473
C            5.10529652104696        0.74369455258437       -1.06834032536855
C            6.41536759626969        0.84093399578430       -0.62178275293181
C            7.00571907570820       -0.21569638843969        0.04918257662894
O            8.27565452152096       -0.22933284498627        0.53012877642396
C            9.09143179603952        0.89970063065446        0.32398591501934
C            6.24044695679814       -1.39510074852913        0.27534721017769
O            6.90844234076745       -2.37416252714824        0.94308188699810
C            6.24924571367039       -3.59243548667060        1.15712805219398
C            4.90588017350877       -1.46120228883627       -0.15429506017425
C           -0.02291898274431       -1.30772009399486       -0.64320904508083
C           -3.87009943822843        3.06893051997578        0.59085538145529
C           -4.49425514917254        2.76670210432358        1.95199638465484
C           -3.39617090851960        4.52098306752787        0.55215317602953
H           -4.65040525784853        0.93536329189208       -1.31443774320257
H           -6.83810689866501        0.24865776515013       -1.81306176739097
H           -7.15782183927909       -1.19866295581433       -2.79966865219536
H           -5.65044164492238       -0.28390325059173       -3.04042231693416
H           -4.89253407222627       -3.72206504658267        2.41909746646381
H           -5.29452497703906       -4.97361591885666        1.21747662075453
H           -3.61499689970914       -4.40314745725152        1.36991803719447
H           -3.07805141769552       -2.22333376923244        2.11486719682929
H           -2.15181107112046        0.01578907519958        2.02431140859688
H           -3.02406762700901        2.38560737025299       -1.87476651085941
H           -1.64699189429306        3.24210876664661       -1.19301319062281
H           -1.80335368609454        0.22388152245484       -1.61516759972519
H           -1.01269404900286        1.37388806888100       -2.70998406587867
H           -0.68167429774007        1.63319509986789        0.65342276552629
H            0.63471111379235        1.99571155071039       -0.94174523005493
H            2.14474424630049       -0.66179053955390        0.68910348634463
H            2.30551300129882        1.00587610155723        0.09792304813594
H            2.78588580796120        0.12957975850428       -2.18876187231606
H            2.69760368946625       -1.52397896121573       -1.56672966033272
H            4.67117296358165        1.57892367881512       -1.59906565592090
H            6.96953066430549        1.74698231015399       -0.81194785393456
H            8.68299156781068        1.78972570843507        0.81211155224534
H            9.23687155928719        1.10267667507324       -0.74178641489858
H           10.05098653076044        0.65223731868245        0.77623802257711
H            6.95408834437235       -4.21820542543183        1.69207279876865
H            5.35745983872746       -3.45628580436252        1.77286221271869
H            5.97524810846180       -4.07642844502716        0.21442995160886
H            4.24584969335684       -2.32167662905156        0.11325079045305
H           -0.15825446795407       -1.63638314993233       -1.67842294416510
H           -0.99780939891381       -1.25392632421441       -0.16450050215107
H            0.58639949572770       -2.04294949247788       -0.12359094731107
H           -4.64481985845047        2.94219957919274       -0.17302257144050
H           -3.75765982276140        2.89720720646079        2.74002580400107
H           -4.87139306910201        1.74824395154062        1.98951609055364
H           -5.32286147553197        3.44809144800344        2.13100856389955
H           -2.60155622598881        4.68513992712727        1.27476047542263
H           -3.04469594772690        4.80835928556343       -0.43563398998880
H           -4.22780256669079        5.17180175338517        0.81167102140698
H           -0.60396086728822        2.78321211821420        2.74053085478072
72
 energy: 0.000000000000 xtb: 6.6.1 (8d0f1dd)
N           -1.48489552821953        2.77298709999322        2.23745430886280
C           -1.55719130759613        2.14442949188865        1.16292259497776
C           -2.74231795644890        2.04523928493097        0.26183320639755
C           -3.31167469408982        0.63211464918986        0.34474883070826
C           -4.29317496506138        0.22886897874439       -0.56558986758877
C           -4.84167602080956       -1.03745505554641       -0.52123296082922
O           -5.80450923504476       -1.50880298138020       -1.35990260668290
C           -6.37016422954092       -0.63235076723315       -2.30230542386263
C           -4.39978787996718       -1.95732454087402        0.46369666877861
O           -4.99447328932754       -3.17785706332485        0.42580651952388
C           -4.67290047770062       -4.11296176632919        1.42939165418203
C           -3.43086777851485       -1.55360483758850        1.35953404743158
C           -2.89338683800736       -0.27148823476891        1.29890715696438
C           -2.19276139286173        2.29127538811282       -1.16836517675786
C           -1.27041480477339        1.17128020721515       -1.67497143288920
C            0.00954827172523        1.13633195268453       -0.92141095408499
N            0.68193517790393       -0.04763592438475       -0.60882959528722
C            2.03785054785637        0.00080396649441       -0.21200882257000
C            2.96463208459066       -0.45682563569420       -1.33893308984283
C            4.38221246944829       -0.38014174278779       -0.88276777187604
C            5.13704111322945        0.75363140495216       -1.09755191201300
C            6.44425269259095        0.83936587373367       -0.64041263896408
C            7.00995433926509       -0.22304642831084        0.04051384477243
O            8.28326488974024       -0.24919885923283        0.53542818288157
C            9.11287082778620        0.86929584105878        0.32909882965285
C            6.21074724550584       -1.38360650260803        0.27773895634238
O            6.86853301773796       -2.36787803106568        0.95838923489639
C            6.18340842666391       -3.56829560873780        1.16237154889564
C            4.85440946618536       -1.42753871257613       -0.12777728029086
C            0.00866573168987       -1.31361277746854       -0.66714979757804
C           -3.87061537532001        3.05810251358640        0.59739358828539
C           -4.49518317840964        2.75927330141611        1.96067496587573
C           -3.40049259942285        4.51268692869096        0.55633547347144
H           -4.64067479996603        0.92546166251764       -1.31253130361717
H           -6.82601017385252        0.23917683564307       -1.82156707238489
H           -7.14262011413789       -1.21120703738821       -2.80603427085028
H           -5.63258417365716       -0.29836191234288       -3.04053526272486
H           -4.90092498158190       -3.72830533440149        2.42899624526792
H           -5.29669173135015       -4.98072278931369        1.22541852838621
H           -3.61856654196433       -4.40716425887519        1.38453132516756
H           -3.08526753406102       -2.22794390434171        2.12974762209876
H           -2.15806545260349        0.01059860619627        2.03847263790837
H           -3.02618772322452        2.39002441908199       -1.86174678215715
H           -1.64148542363638        3.23382486348167       -1.18000837146890
H           -1.79864612268044        0.21580943577639       -1.60786748655380
H           -1.03317424587997        1.37230997329731       -2.72323402130196
H           -0.68681813223728        1.61426633351904        0.68887409763612
H            0.63454670925271        2.00603753687955       -0.96076589705029
H            2.17745819420782       -0.66223699990607        0.65217268274518
H            2.30508700197851        1.02330766182625        0.08678809892968
H            2.80482442314502        0.19199664533374       -2.20552288800074
H            2.71500184287154       -1.47394952090572       -1.62248679614039
H            4.72036509114169        1.59312100755139       -1.63793533326286
H            7.01576401908529        1.73691880944376       -0.83214686504670
H            8.71428818052676        1.76927484077146        0.80716062795182
H            9.27230857999104        1.06484036000328       -0.73667726105447
H           10.06661110440948        0.61394928514505        0.79173423150279
H            6.85236553544799       -4.20071606175608        1.73054153501744
H            5.27674939217669       -3.40413312215493        1.74567688552271
H            5.93023333383789       -4.05783491521231        0.21648613767685
H            4.08678361702219       -2.23691504297016        0.22225400850298
H           -0.09571097226473       -1.65553856383907       -1.70512465845186
H           -0.97806772502081       -1.26637191940348       -0.22055988320646
H            0.61334476125609       -2.03786975715146       -0.12288852884990
H           -4.64702434448108        2.92885815069328       -0.16471187283832
H           -3.75564920617407        2.89198637503856        2.74738545009783
H           -4.86866209516439        1.73959031498191        2.00035423929419
H           -5.32579887269330        3.43974874875736        2.13833248864785
H           -2.60296726755337        4.67806868338939        1.27591582791013
H           -3.04986205302996        4.79786203635331       -0.43273463162697
H           -4.23320407432354        5.16247041733070        0.81694090417214
H           -0.61256263608010        2.78875415483741        2.74911451212429
72
 energy: 0.000000000000 xtb: 6.6.1 (8d0f1dd)
N           -1.49146839285045        2.78826530578571        2.24337565551995
C           -1.55515807346005        2.13344966427633        1.17747766434923
C           -2.74035563203977        2.03877530831638        0.27307904273442
C           -3.30983771712015        0.62503297596996        0.35455423982822
C           -4.28830575152151        0.22034436450761       -0.55907353027923
C           -4.83653140149220       -1.04489865078575       -0.51504562411470
O           -5.79920349229694       -1.51989953685674       -1.35870206516539
C           -6.35687565891643       -0.64434007661740       -2.30543038294869
C           -4.40006982706386       -1.96301891900721        0.47339750142763
O           -4.99790711230098       -3.18566186167462        0.43369820273270
C           -4.67749706516957       -4.11863414162814        1.43975340336216
C           -3.43540866437787       -1.55828182963193        1.37209598222552
C           -2.89792768058800       -0.27682099334012        1.31119006853641
C           -2.19212887182337        2.28560200204345       -1.15816337769955
C           -1.27639041239267        1.16664197403246       -1.68368398307269
C            0.00994422455022        1.15072753634904       -0.94068679460235
N            0.70990399310751       -0.04991519756927       -0.63510532361454
C            2.05377571358313        0.01627721624191       -0.23991901870542
C            2.98269236909526       -0.41512465356245       -1.36969072207795
C            4.39394237016514       -0.35144473527951       -0.90495563302240
C            5.16877954272090        0.76282924187157       -1.12706242849134
C            6.47303869024453        0.83749956987374       -0.65916904867565
C            7.01372820418675       -0.23065658238632        0.03184234171632
O            8.28923413969162       -0.26970860742496        0.54005833707577
C            9.13361106497081        0.83835415418411        0.33384693471106
C            6.18251234062740       -1.37084037997337        0.28513356695179
O            6.82836292915783       -2.36137234600049        0.97288263939083
C            6.11756819471676       -3.54431330543057        1.16821149302946
C            4.80852521343113       -1.38892504796902       -0.09892515972928
C            0.03994211240320       -1.31901695163146       -0.69171340305597
C           -3.87100433683433        3.04752962426086        0.60442144533294
C           -4.49574399035518        2.75177990940850        1.96932932732300
C           -3.40460359282812        4.50426212733522        0.56046832926606
H           -4.63104200435107        0.91545941035612       -1.31064200687810
H           -6.81401811379776        0.22961240730260       -1.83012865876074
H           -7.12732807032727       -1.22370854577148       -2.81226639925181
H           -5.61481013047075       -0.31292229369328       -3.04070010434746
H           -4.90933377200816       -3.73442827281864        2.43895101569393
H           -5.29882443348133       -4.98762613401022        1.23354218955823
H           -3.62218642341317       -4.41113656877629        1.39914397659593
H           -3.09247235389250       -2.23236751595585        2.14468834292888
H           -2.16414639937732        0.00555146094666        2.05275917130200
H           -3.02796398957372        2.39447156639871       -1.84867492387039
H           -1.63567770533558        3.22616518577047       -1.16668283156400
H           -1.79535547854863        0.20780255573346       -1.59991099733009
H           -1.05522129178020        1.36944130290037       -2.73410087438114
H           -0.69168513320267        1.59500885849170        0.72418613289453
H            0.63381341057375        2.01693349644087       -0.97944664456430
H            2.20981123802425       -0.66164708510717        0.61490012209876
H            2.30605278334746        1.04066052969809        0.07559094846810
H            2.82398830227874        0.25437193337326       -2.22220150630563
H            2.73194749297992       -1.42389714215660       -1.67836567536553
H            4.76926351768701        1.60574164872743       -1.67770303432329
H            7.06167030033321        1.72614942299708       -0.85267052697939
H            8.74513590165338        1.74820286578858        0.80210127524080
H            9.30734271658889        1.02662546617224       -0.73165941533545
H           10.08127678078556        0.57515354155751        0.80688186107798
H            6.75047068892360       -4.18327566676452        1.76858641525385
H            5.19601841805471       -3.35198611872775        1.71854110712859
H            5.88528088274236       -4.03915610519572        0.21900454376470
H            3.92724403286568       -2.14425885637075        0.32370607757058
H           -0.03279398199021       -1.67447624744397       -1.73108822332926
H           -0.95866220387279       -1.27916546754198       -0.27666725759237
H            0.64024426045495       -2.03223349418228       -0.12283728307439
H           -4.64841394800920        2.91536277421646       -0.15646557467296
H           -3.75437790353440        2.88745685141469        2.75534351419182
H           -4.86600505151103        1.73105865027188        2.01130995432656
H           -5.32827574746919        3.43104485572184        2.14543287130277
H           -2.60452242392275        4.67104164303612        1.27717925088622
H           -3.05528888187060        4.78745248072391       -0.42997675629797
H           -4.23823482499767        5.15279739748105        0.82194513908611
H           -0.62094070269578        2.79657729954369        2.75616723277117
72
 energy: 0.000000000000 xtb: 6.6.1 (8d0f1dd)
N           -1.49849208798131        2.80382765243317        2.24849905765225
C           -1.55315711110192        2.12402665106122        1.19285845247716
C           -2.73857759925569        2.03191564551402        0.28412733205725
C           -3.30805921593789        0.61750014413516        0.36398684163499
C           -4.28319328140648        0.21164204168875       -0.55298120471046
C           -4.83173076188421       -1.05271754715788       -0.50902122077293
O           -5.79310787909030       -1.53054491634956       -1.35687178722073
C           -6.34358539007780       -0.65633456954061       -2.30852642889425
C           -4.40086118542867       -1.96900790576916        0.48290107527720
O           -5.00094835359962       -3.19303248824039        0.44218434885468
C           -4.68203924991303       -4.12410704493572        1.45024834126224
C           -3.43974345185391       -1.56319956550486        1.38463886021783
C           -2.90200539992426       -0.28239261859784        1.32352758187439
C           -2.19167912332595        2.28012531391462       -1.14786156161434
C           -1.28499186093441        1.15931498311968       -1.68544190651060
C            0.01201807923637        1.15608612734322       -0.96375872133326
N            0.72498540126968       -0.03740544433861       -0.66772723843844
C            2.06864873225006        0.03325932090528       -0.26750672013671
C            2.99873202650489       -0.37287193035050       -1.40089149395003
C            4.40386260771264       -0.31979890672798       -0.92407646358741
C            5.20057311816667        0.77233485789846       -1.15640275506785
C            6.50179852387169        0.83524178557723       -0.67793004865022
C            7.01728426069907       -0.23906499119188        0.02379336968462
O            8.29341391583078       -0.29085825878706        0.54405468701572
C            9.15372073633557        0.80693072868101        0.33819805539006
C            6.15542323199722       -1.35671237271597        0.29442507446996
O            6.78805628974130       -2.35454710566466        0.98685557706617
C            6.05160849782838       -3.52086024081470        1.17486749477509
C            4.76676731111022       -1.34291067079207       -0.07514235103121
C            0.07104874682571       -1.32481425381033       -0.71636765777092
C           -3.87149351084779        3.03726216354189        0.61187154815031
C           -4.49597910120494        2.74424175350875        1.97795906300846
C           -3.40847858947070        4.49566917152384        0.56449095401251
H           -4.62145245420435        0.90542017450496       -1.30873170103591
H           -6.80209085879975        0.21997562440876       -1.83869952748659
H           -7.11197148350206       -1.23620446679374       -2.81835069702465
H           -5.59713173648093       -0.32759963719935       -3.04083741564808
H           -4.91777092446971       -3.74038213686483        2.44898594304582
H           -5.30098125468612       -4.99427183414985        1.24187897440882
H           -3.62589394194285       -4.41502751734738        1.41375703717758
H           -3.09969715862774       -2.23657541413700        2.15968299015652
H           -2.17008565745642        0.00060658335727        2.06714168637864
H           -3.02934309767282        2.39858121090342       -1.83544445322626
H           -1.63012899464683        3.21833050662530       -1.15337041678990
H           -1.79448890781931        0.19938513571566       -1.59179014567269
H           -1.07752728198759        1.36606692572060       -2.74423060975108
H           -0.69614036087964        1.57513662027248        0.75920928510236
H            0.63066758980751        2.02855006360016       -0.99752957193597
H            2.24103808098763       -0.65927815769696        0.57680051451548
H            2.30787539981466        1.05785168201917        0.06424842120834
H            2.84353132211484        0.31650308456049       -2.23935057726440
H            2.74852626438534       -1.37357200287836       -1.73410935810675
H            4.81784932023096        1.61689920048686       -1.71832307868345
H            7.10689827842172        1.71405698082142       -0.87401172388027
H            8.77539393453497        1.72629768153095        0.79692177350834
H            9.34179425605032        0.98786955553342       -0.72670351814002
H           10.09498575980507        0.53583053497758        0.82159377558138
H            6.64833110620018       -4.16538185177687        1.80571958970851
H            5.11507818589584       -3.30002804691070        1.69166589569822
H            5.84018711644631       -4.02094143279932        0.22246777921908
H            3.76998860477916       -2.04231175831221        0.41982434506973
H            0.03068005203588       -1.69281831403883       -1.75609720910034
H           -0.93906398200363       -1.29253630563614       -0.33256527518582
H            0.66699285650482       -2.02608829388094       -0.12350330252126
H           -4.64910332117901        2.90180729087861       -0.14824993181932
H           -3.75396336292672        2.88349984095058        2.76366884873762
H           -4.86329872559202        1.72267881392589        2.02237006550695
H           -5.33037530897568        3.42214628900433        2.15241107802043
H           -2.60617574638254        4.66405392927633        1.27852270798276
H           -3.06086794628347        4.77709374447351       -0.42733395198987
H           -4.24291917024703        5.14282932462061        0.82671342443293
H           -0.62801069387177        2.80559991854310        2.76327287058463
72
 energy: 0.000000000000 xtb: 6.6.1 (8d0f1dd)
N           -1.50589491102479        2.81868092909559        2.25469049870875
C           -1.55180885947070        2.11660805527544        1.20955631276203
C           -2.73682981798937        2.02417731882924        0.29454984871792
C           -3.30617912624071        0.60940223841851        0.37294260929930
C           -4.27786892246929        0.20275023013841       -0.54738147386815
C           -4.82732071901874       -1.06085294451172       -0.50314403609633
O           -5.78625165224605       -1.54056746388471       -1.35449622916739
C           -6.33025506378890       -0.66828156937834       -2.31163366408627
C           -4.40191317301623       -1.97525557681417        0.49221274041268
O           -5.00355063915746       -3.19982769285279        0.45122594511228
C           -4.68652407929398       -4.12943431267544        1.46084113106940
C           -3.44391530476068       -1.56835650326292        1.39713697752819
C           -2.90560320913792       -0.28828915059913        1.33585135241672
C           -2.19104796020344        2.27514490886299       -1.13732942241580
C           -1.29256477888671        1.15122492628536       -1.68197445797060
C            0.01639734246227        1.15236732854718       -0.98685809164604
N            0.73017209226059       -0.01787184948463       -0.70048864654268
C            2.08156604601067        0.05186705588216       -0.29499155399080
C            3.01337596362328       -0.32992828706968       -1.43179472519816
C            4.41294490780587       -0.28606731298987       -0.93971140756594