25
 energy: -43.834547392870 gnorm: 0.091121676831 xtb: 6.6.1 (8d0f1dd)
C            3.21427148576057        1.26997266046037        0.09326529777582
N            2.35276618399632        0.09784581663681        0.03827407388995
C            2.60767551229000       -1.25238444826890        0.03043726707872
N            1.41203107719511       -1.96447122726208        0.00060979123961
C            0.40474058602111       -1.08026425954035       -0.00938221578857
C            0.94828255408129        0.18655710893876        0.01291212096806
C            0.11429864560793        1.37703308161715       -0.00574313393702
O            0.51665487714494        2.53097868484988       -0.00717307852126
N           -1.25556966024805        1.04443882582848       -0.03121167656970
C           -2.20243023488434        2.14030737569629       -0.04940942826083
C           -1.82202234362452       -0.20830606393070       -0.04829264791377
O           -3.01575868107883       -0.38068823665567       -0.07053338626616
N           -0.94445952449826       -1.31173087501938       -0.03817749641546
C           -1.49382852004235       -2.64498020281360       -0.06086010262321
H            3.72860628684465        1.32944431736176        1.06572124956759
H            4.01136965521563        1.15174742905675       -0.67873758142775
H            2.64097062003427        2.13115045715850       -0.07627709609491
H            3.57650025399804       -1.68474339150282        0.04208748081576
H           -1.64300699762866        3.07290104219057       -0.02548865266356
H           -2.79819507769597        2.09786468636830       -0.95384840833364
H           -2.85130266831485        2.08177301515241        0.81895189299231
H           -1.20453517559653       -3.20446765516604        0.83055959152642
H           -1.17950647118690       -3.18481912681197       -0.95615117977064
H           -2.57758107085119       -2.54036449585734       -0.07522110280025
H            1.33886074057076       -2.95779219773606       -0.01432800020483
25
 energy: -43.838405127163 gnorm: 0.032081068015 xtb: 6.6.1 (8d0f1dd)
C            3.22151556148250        1.23737546316661        0.09074922502165
N            2.33612392644544        0.10167317625434        0.03649595499550
C            2.61371609846023       -1.25304589271751        0.03230856223026
N            1.41907703024712       -1.95315182592739        0.00194047639571
C            0.40613620841003       -1.06655349059575       -0.00899677997882
C            0.93875214893124        0.20746081171979        0.01304836557510
C            0.11551389016842        1.37718616537053       -0.00694003655556
O            0.50280982673607        2.54579435722471       -0.00828715860518
N           -1.25798800761104        1.04040066725923       -0.03129015364089
C           -2.20419376603336        2.14045066564690       -0.04928379080162
C           -1.81941698425613       -0.20687910901288       -0.04785771082782
O           -3.01854515377037       -0.38480738514041       -0.07071749546364
N           -0.93920523535733       -1.30430391617484       -0.03795895642451
C           -1.48682305949018       -2.63985333925353       -0.06065201388677
H            3.71985365708657        1.30396691368590        1.06617806063784
H            4.00310978626705        1.14269023408069       -0.67875106791680
H            2.63186453757758        2.12128588195806       -0.07758019759916
H            3.58339990553232       -1.69021385158865        0.04319700771161
H           -1.63178761286695        3.06627201560137       -0.02506389791880
H           -2.80690330178472        2.09820284248794       -0.95447761426865
H           -2.85856151300740        2.08215281166004        0.81892674743939
H           -1.19484064275718       -3.19931133991552        0.83093976674768
H           -1.16960563095261       -3.17970738671815       -0.95587268616925
H           -2.57183077211209       -2.53653999141579       -0.07510325215333
H            1.34666115576497       -2.95354215690456       -0.01296777628125
25
 energy: -43.838485067014 gnorm: 0.020310802923 xtb: 6.6.1 (8d0f1dd)
C            3.22359178485458        1.23586304015779        0.09109806213078
N            2.33042924591903        0.10583000574521        0.04038447015919
C            2.61753178669124       -1.25509067413020        0.03459664627555
N            1.42362042980496       -1.95462468506449        0.00091198401897
C            0.40566591338627       -1.07259662793454       -0.00893193911969
C            0.93742013958247        0.20744103730308        0.01524733620027
C            0.13045075939257        1.36239781302760       -0.00498703403188
O            0.51766075044928        2.53660852331421       -0.00515051338251
N           -1.25159225536128        1.03397493984891       -0.03038793029755
C           -2.19520428501810        2.14022563288282       -0.04880221626854
C           -1.81349294446190       -0.20749630298643       -0.04787777516329
O           -3.01630899664000       -0.38191510980374       -0.07114925360437
N           -0.94022620930234       -1.31078279768308       -0.03841961273813
C           -1.50118386639828       -2.64477448473089       -0.06132116478733
H            3.72174351828092        1.34339288905353        1.06175748926405
H            4.00042178329430        1.16406460519944       -0.67291623604975
H            2.62878925899722        2.13646818334039       -0.08206012353906
H            3.58592018382445       -1.69135561328778        0.04051347235915
H           -1.63184002808777        3.07077871004741       -0.02461619133281
H           -2.79806151168975        2.09446159644309       -0.95550042234425
H           -2.85168450325919        2.07827076721881        0.81873029760699
H           -1.21656015436144       -3.20954403272731        0.82978411396975
H           -1.19161496993031       -3.18984272726275       -0.95646307309299
H           -2.58622414136638       -2.53524686306899       -0.07546653357058
H            1.34958036450961       -2.95950550415097       -0.01699027439929
25
 energy: -43.839002047110 gnorm: 0.009481911634 xtb: 6.6.1 (8d0f1dd)
C            3.22939623222757        1.23211351463588        0.09218726741063
N            2.33146926085553        0.10584984310220        0.03730796293929
C            2.61219520089155       -1.25475025410249        0.03188173827584
N            1.41750912487598       -1.95261165255257        0.00070432932331
C            0.40291787592972       -1.07019286431184       -0.01028425581321
C            0.93698243565885        0.20979141300509        0.01223460981749
C            0.12543470456535        1.36612869141718       -0.00764678122560
O            0.50897353642128        2.54054566410199       -0.00935749311746
N           -1.25910790005188        1.03797134204393       -0.03164266343390
C           -2.20382507306349        2.14279086664105       -0.04895428309218
C           -1.81786786550489       -0.20490175275859       -0.04812480428647
O           -3.01919109251542       -0.38264102275090       -0.07014476788832
N           -0.94183318697857       -1.30737268955158       -0.03847304423041
C           -1.49031127444555       -2.64445045144554       -0.06047696372197
H            3.72725264083715        1.32050013259438        1.06491899958944
H            4.00522825478318        1.14736990395322       -0.67495453804865
H            2.64434029868753        2.13624990777365       -0.07426886237006
H            3.57895161329473       -1.69104368323039        0.04046944013334
H           -1.64183916954295        3.07331091079126       -0.02579335089217
H           -2.80646549065245        2.09758535239794       -0.95471647897582
H           -2.85780765928738        2.08159563569577        0.81964614758299
H           -1.19610614577280       -3.20291913044257        0.83125296062655
H           -1.17137641636702       -3.18369935577162       -0.95563292705609
H           -2.57538833469708       -2.54417465370133       -0.07471285511120
H            1.33930048296126       -2.95604334678299       -0.01343580817266
25
 energy: -43.838967226259 gnorm: 0.010997599069 xtb: 6.6.1 (8d0f1dd)
C            3.22016438542312        1.23594954743091        0.08852906728774
N            2.33448859514791        0.10351682110173        0.03582564767486
C            2.61596943359383       -1.25437115802094        0.03353581775283
N            1.42231403814652       -1.95377456814104        0.00217502135797
C            0.40657401384308       -1.07329649454153       -0.00873736519373
C            0.93952707521001        0.20695641364521        0.01348080295397
C            0.12489129637631        1.36767400717266       -0.00453230355334
O            0.50457892591598        2.54193588656396       -0.00558300068331
N           -1.25930378062260        1.03753668136251       -0.03027452625272
C           -2.20091991798251        2.14172267007888       -0.04882995391678
C           -1.81628927158411       -0.20594686968319       -0.04771753142249
O           -3.01607577338910       -0.38669515299236       -0.07151237806726
N           -0.93858707375081       -1.30760172735542       -0.03759582048513
C           -1.49074931753360       -2.64111077100848       -0.06130826789808
H            3.71310260537357        1.31477195809771        1.06525836483959
H            3.99781692130594        1.14851230319096       -0.68096025601643
H            2.62492384159373        2.12687678621612       -0.07888187222649
H            3.58447811430857       -1.68738508618221        0.04459380902338
H           -1.62787853091815        3.06545345342739       -0.02429749398518
H           -2.80094691295034        2.09948974934155       -0.95561259878682
H           -2.85488251941695        2.08314755091183        0.81928452244070
H           -1.20098248026644       -3.20041874040916        0.83086734366251
H           -1.17480411549921       -3.17969797438764       -0.95750950897706
H           -2.57446604472995       -2.53054396317559       -0.07622000862535
H            1.34588854551535       -2.95569900189276       -0.01199393264067
25
 energy: -43.839146315432 gnorm: 0.003411067036 xtb: 6.6.1 (8d0f1dd)
C            3.22573708649313        1.23435994477184        0.09163982025824
N            2.33393735781618        0.10489191868318        0.03796020748897
C            2.61517514108862       -1.25428290459030        0.03279775334679
N            1.42139514832629       -1.95228777242403        0.00034034648761
C            0.40519321038971       -1.07200981227897       -0.00942500985577
C            0.93884009140655        0.20907239270523        0.01342239840809
C            0.12692072986254        1.36754632717489       -0.00678065316486
O            0.50695126550407        2.54249862814514       -0.00833583908350
N           -1.25892317263937        1.03788176983743       -0.03151571736196
C           -2.20256630603537        2.14121584245863       -0.04927539915635
C           -1.81647033408133       -0.20465706632720       -0.04789421744433
O           -3.01710815406231       -0.38441896089418       -0.07045425829215
N           -0.94004607190632       -1.30757914345341       -0.03802461654531
C           -1.49315033392207       -2.64259650282043       -0.06036505970614
H            3.72248743468240        1.32056193549523        1.06558756948913
H            4.00407551995561        1.15006545516340       -0.67499628200153
H            2.63451218710885        2.13041395368134       -0.07746453627234
H            3.58310024874542       -1.68929045610356        0.04089970168979
H           -1.63514845903869        3.06854982712874       -0.02576182655002
H           -2.80477847638631        2.09584004492515       -0.95491870849233
H           -2.85624345205769        2.07995166202443        0.81918999241069
H           -1.20316287660430       -3.20303234455111        0.83116245869197
H           -1.17867785516710       -3.18399783129822       -0.95549931137433
H           -2.57762821620097       -2.53669330773813       -0.07432931210617
H            1.34441033983265       -2.95500127896397       -0.01597592260149
25
 energy: -43.839115366287 gnorm: 0.004390186079 xtb: 6.6.1 (8d0f1dd)
C            3.22409062567552        1.23438504586131        0.08935945497200
N            2.33202652142739        0.10440648985272        0.03771123367738
C            2.61316595628315       -1.25533422732134        0.03419468721374
N            1.41960097464553       -1.95306467563178        0.00341154614951
C            0.40348575939753       -1.07288370857724       -0.00867375845087
C            0.93725333837905        0.20839478988363        0.01400210480838
C            0.12803401916011        1.36584425117843       -0.00524151167358
O            0.50898874057531        2.54055227946832       -0.00606892550358
N           -1.25922711301423        1.03770222225756       -0.03058339849687
C           -2.20077019895026        2.14340475996362       -0.04834185659073
C           -1.81735075253752       -0.20421637619342       -0.04822780860772
O           -3.01828154949219       -0.38360857721579       -0.07155699515542
N           -0.94129466806080       -1.30813109674007       -0.03830706526130
C           -1.49118311245036       -2.64445054652620       -0.06217926345731
H            3.72282055800583        1.32369970988652        1.06189785169382
H            4.00022946103014        1.15101514421770       -0.67882712753203
H            2.63411803357560        2.13264576309375       -0.07868977590831
H            3.58078608426346       -1.69081741792963        0.04307027771087
H           -1.63395664052838        3.07116628754617       -0.02360103264518
H           -2.80196021251503        2.10011368640215       -0.95483462373456
H           -2.85576176196254        2.08313081939717        0.81930236848569
H           -1.19910272835777       -3.20447322317047        0.82913243433696
H           -1.17263451789797       -3.18358693384657       -0.95744107892138
H           -2.57605922760768       -2.54258902347661       -0.07740410968453
H            1.34181446406630       -2.95630312162882       -0.01012004916227
25
 energy: -43.839159412912 gnorm: 0.001475880931 xtb: 6.6.1 (8d0f1dd)
C            3.22447159217281        1.23458486390850        0.09122051155277
N            2.33311646708564        0.10452885866214        0.03705100308491
C            2.61427603910213       -1.25475856979395        0.03238078831384
N            1.42095107460366       -1.95279323732412        0.00059533818048
C            0.40459065120031       -1.07297340259556       -0.00991744110949
C            0.93808986685763        0.20848040140209        0.01277177028625
C            0.12792930300461        1.36631310409990       -0.00643107127273
O            0.50784557997340        2.54114245469373       -0.00766210984388
N           -1.25932700424606        1.03744539122574       -0.03117605275987
C           -2.20172906712338        2.14194809086464       -0.04911285680206
C           -1.81679463775810       -0.20455212033940       -0.04785936657588
O           -3.01743606355787       -0.38485506912942       -0.07037446348700
N           -0.94029615922937       -1.30793937503336       -0.03820049092857
C           -1.49213897856281       -2.64303116398376       -0.06050155920933
H            3.72083873788153        1.32062591555953        1.06535355000672
H            4.00211367800763        1.15053892952923       -0.67604139753658
H            2.63452871811545        2.13203251093788       -0.07665240964088
H            3.58220187279006       -1.68962066083743        0.04146602703176
H           -1.63489536199967        3.06963836590198       -0.02544732348852
H           -2.80342261374748        2.09749375024620       -0.95515961543832
H           -2.85588450991571        2.08168055147700        0.81911021075985
H           -1.20089586788534       -3.20257443388476        0.83133185982176
H           -1.17612625187633       -3.18320615856859       -0.95595322428650
H           -2.57663779507129       -2.53731261097225       -0.07463867643297
H            1.34346278328873       -2.95583406529482       -0.01416942196306
25
 energy: -43.839135360299 gnorm: 0.003143856658 xtb: 6.6.1 (8d0f1dd)
C            3.22632015426178        1.23446905489430        0.08956942251180
N            2.33438314248540        0.10484257358830        0.03878158026798
C            2.61490252176227       -1.25400774719860        0.03508913839135
N            1.42158999798603       -1.95174223323803        0.00275203768343
C            0.40503386227221       -1.07225601506021       -0.00776874121478
C            0.93868821759732        0.20947522958051        0.01497912635335
C            0.12758892988576        1.36791368368051       -0.00551566692031
O            0.50573666601704        2.54314886347837       -0.00719305810871
N           -1.25976645520366        1.03774426814944       -0.03098484692935
C           -2.20298341344758        2.14089135348324       -0.04852467251471
C           -1.81674315762704       -0.20419441519837       -0.04812815078266
O           -3.01712800559440       -0.38497238972518       -0.07200641657349
N           -0.94001030450037       -1.30757182041935       -0.03776817324279
C           -1.49306654413795       -2.64252078224861       -0.06191268146685
H            3.72433338662843        1.32156481790205        1.06295585609415
H            4.00398963625277        1.14768272339319       -0.67794192073607
H            2.63540429158683        2.12981090375527       -0.08042812070086
H            3.58301822115663       -1.68884362032799        0.04325816968556
H           -1.63534583647944        3.06809478018585       -0.02434888001112
H           -2.80502828235107        2.09628888986430       -0.95432832425049
H           -2.85673678074935        2.07934530735275        0.81990237273415
H           -1.20425365595423       -3.20388233881199        0.82940890187613
H           -1.17767827321869       -3.18313476994428       -0.95721521156974
H           -2.57752364187648       -2.53664421939078       -0.07713853726276
H            1.34410737635798       -2.95449977699355       -0.01350962505051
25
 energy: -43.839158997705 gnorm: 0.001328186518 xtb: 6.6.1 (8d0f1dd)
C            3.22521678082561        1.23459391128899        0.09058413881012
N            2.33385003231745        0.10453792767367        0.03813933821766
C            2.61449220599526       -1.25443279009690        0.03364326228461
N            1.42121234552634       -1.95215177708401        0.00164565905613
C            0.40466799842480       -1.07263626526890       -0.00871981842888
C            0.93832613998466        0.20906153398338        0.01405716795936
C            0.12801474646119        1.36737352628780       -0.00602576469062
O            0.50664178091143        2.54245813733438       -0.00756561435708
N           -1.25963039464834        1.03772347524810       -0.03119515568671
C           -2.20212861134738        2.14164639151169       -0.04894044512125
C           -1.81687771017545       -0.20407395359907       -0.04802919148052
O           -3.01736501999755       -0.38462260766962       -0.07118965616360
N           -0.94030060906395       -1.30777142485177       -0.03794089093649
C           -1.49253286071177       -2.64304729711841       -0.06111237632564
H            3.72274360114943        1.32125937781492        1.06419843612596
H            4.00302532330445        1.14966875906776       -0.67681737563604
H            2.63413294408489        2.13034729762420       -0.07832244356679
H            3.58254577042082       -1.68936460133383        0.04184075691463
H           -1.63438802080823        3.06882928453033       -0.02493087345141
H           -2.80402682569565        2.09731520647300       -0.95486374379337
H           -2.85611915164603        2.08084566225569        0.81936978454599
H           -1.20227566720479       -3.20360203469553        0.83029888583352
H           -1.17686544880697       -3.18370148713924       -0.95633004563407
H           -2.57710054939430       -2.53822961462188       -0.07565455589331
H            1.34357325320425       -2.95502431686362       -0.01415590031951
25
 energy: -43.817070319926 gnorm: 0.173442876255 xtb: 6.6.1 (8d0f1dd)
C            3.18156867373348        1.37372632208553        0.09943420797506
N            2.41608418331666        0.08858058748065        0.04208752886069
C            2.63044479189565       -1.29347286161999        0.03325546293944
N            1.40509997167937       -2.00484107550674        0.00323740733573
C            0.41530493122551       -1.10431015731259       -0.01009413344661
C            0.97321508833928        0.16220973784391        0.01186622528783
C            0.13359232920028        1.34867363062140       -0.00735933475790
O            0.52736783425161        2.49411658629468       -0.01294519600159
N           -1.25566504914254        1.02538531913216       -0.03181122234889
C           -2.18062272574077        2.13330922497630       -0.04884412611872
C           -1.81735507840836       -0.21862101922891       -0.04951837005262
O           -3.02590007439149       -0.38969867821617       -0.07215778233696
N           -0.94837453651889       -1.33163384873352       -0.04010053902074
C           -1.51777799538611       -2.64669613544662       -0.06158097056053
H            3.71862105326846        1.44502844053524        1.05991990524641
H            3.99790237911697        1.26834787866845       -0.68411166626209
H            2.57393167109767        2.14670561620191       -0.06379617984889
H            3.57953802930560       -1.73384095284508        0.04193047754120
H           -1.61268105900405        3.05600421826078       -0.02554614935488
H           -2.77280775226237        2.10656981500107       -0.95320033242123
H           -2.82655898725801        2.08999361196147        0.82156726182354
H           -1.23822500188103       -3.21416530952217        0.82990606520539
H           -1.21313252480279       -3.19554587235142       -0.95654979258170
H           -2.59814030592179       -2.52215938971547       -0.07601071854153
H            1.30380889296498       -2.98421117373231       -0.01396619491731
25
 energy: -43.831575352764 gnorm: 0.046424406339 xtb: 6.6.1 (8d0f1dd)
C            3.19793029792813        1.30322834282648        0.09326626319787
N            2.37088100296483        0.09068212647554        0.04161952516207
C            2.62812573720693       -1.28004340802579        0.03748843475411
N            1.41927613624548       -1.97846848665811        0.00505538413980
C            0.41471739641472       -1.08428823682501       -0.00892468452595
C            0.95396621907629        0.18721294704889        0.01340482104408
C            0.13130688383459        1.35435627666454       -0.00866588032094
O            0.51013427762009        2.52053184832061       -0.01319378497075
N           -1.25255059832350        1.02429905245813       -0.03172401428373
C           -2.18236020356614        2.13463017867983       -0.04866860701333
C           -1.81163288660572       -0.21718389809729       -0.04886528819103
O           -3.01497690762870       -0.39284502596871       -0.07201273350859
N           -0.93809774122188       -1.31965619877324       -0.03954416475742
C           -1.50611425094887       -2.64339178455318       -0.06142883369434
H            3.70783971223775        1.39791014588960        1.06076031389381
H            3.98958446672041        1.25243268180027       -0.68140051104957
H            2.55608370579703        2.13259178843690       -0.07253255611252
H            3.58900034272406       -1.72854857767184        0.04382630475338
H           -1.60166037730915        3.05408924406554       -0.02469335641158
H           -2.78355785942982        2.10393596111590       -0.95433082666688
H           -2.83513787355621        2.08753038447409        0.82111480619164
H           -1.22829326861556       -3.21135997387069        0.83026713367024
H           -1.20291567492536       -3.19292842232077       -0.95650850291188
H           -2.58938727905521       -2.52001229747043       -0.07587778099358
H            1.32707748109311       -2.97525015318871       -0.01281962775183
25
 energy: -43.831982796135 gnorm: 0.023104827306 xtb: 6.6.1 (8d0f1dd)
C            3.19745674359077        1.29773367706357        0.09750872535605
N            2.36290652630906        0.09408822129881        0.04828224971985
C            2.62977642726950       -1.28091105229180        0.03759212223529
N            1.42622656595786       -1.97984234174955        0.00270691961432
C            0.41452047425624       -1.09377821808149       -0.01013714005378
C            0.95894533698066        0.17985080908084        0.01448896140133
C            0.14809222986743        1.33272098735261       -0.00818974034588
O            0.53166522260989        2.50512369859586       -0.01224390931287
N           -1.24136429711795        1.01558762383730       -0.03142252833646
C           -2.17027416799033        2.13265785717671       -0.04801474995234
C           -1.81002440958218       -0.22044174986344       -0.04933416436829
O           -3.01367094725294       -0.38874780784170       -0.07217246497997
N           -0.93845640010933       -1.32555252684170       -0.04044859162171
C           -1.52214567913172       -2.64846655058782       -0.06195055852166
H            3.70915102681829        1.46051635199543        1.05608870071873
H            3.97294262076137        1.27976696158438       -0.67519136099677
H            2.54839085860790        2.15481523572607       -0.07183016963371
H            3.58969175096893       -1.73977891119835        0.03785458410941
H           -1.59417607580161        3.05449214308037       -0.02443939540825
H           -2.77225863376538        2.10214121746986       -0.95496961763603
H           -2.82502480168483        2.08560663873443        0.82125744122278
H           -1.25014110965664       -3.21785325975404        0.82992282480044
H           -1.22543448864625       -3.19967719796109       -0.95739140536331
H           -2.60600782543521       -2.51630332385274       -0.07590175458295
H            1.32845179085380       -2.98429396813995       -0.01645314442114
25
 energy: -43.832860623953 gnorm: 0.011956547824 xtb: 6.6.1 (8d0f1dd)
C            3.20970472500212        1.29026045453207        0.09482422259849
N            2.36584441980944        0.09687350540899        0.04139408813411
C            2.62674393579682       -1.27956833860480        0.03491318257069
N            1.42132754444920       -1.97511221490519        0.00303159653801
C            0.41250208676071       -1.08808331253592       -0.01117096848809
C            0.96046485481933        0.18713548340112        0.01108488442754
C            0.14141671216589        1.33765731593382       -0.00906157896957
O            0.51950477369102        2.51244053571517       -0.01463368905404
N           -1.25099589029420        1.02040428214388       -0.03156740524709
C           -2.18366434578606        2.13513499328830       -0.04796335320676
C           -1.81657270475055       -0.21726124257680       -0.04912817038768
O           -3.01993863414010       -0.39045585668528       -0.07160612660129
N           -0.93922063620899       -1.31993290908214       -0.03999843457375
C           -1.50963468784023       -2.64763354152447       -0.06126383942481
H            3.71138579577511        1.42505852652925        1.06025459813112
H            3.98507727678426        1.25575784774085       -0.67816772933782
H            2.57315604504769        2.15664501431616       -0.06574521914791
H            3.58341519024691       -1.74055672719263        0.04117218923109
H           -1.61156764688261        3.05821558688493       -0.02521136530861
H           -2.78502113206024        2.10362321359660       -0.95454405862033
H           -2.83700241518037        2.08726459674631        0.82172830207828
H           -1.22733151300042       -3.21138131571150        0.83069139216097
H           -1.20226504814918       -3.19294236175817       -0.95641913775553
H           -2.59375680048970       -2.52599431150421       -0.07568195849281
H            1.31566683311148       -2.97809470932377       -0.01131958761115
25
 energy: -43.832837366713 gnorm: 0.012080621513 xtb: 6.6.1 (8d0f1dd)
C            3.19597130659627        1.29398937012767        0.08932442137643
N            2.36839238138428        0.09528854325197        0.04022347855083
C            2.63240596282227       -1.27876810433717        0.03808982589298
N            1.42738673742920       -1.97692128829866        0.00465088667496
C            0.41623266288636       -1.09138219484873       -0.00830737243006
C            0.96158161722936        0.18619001691944        0.01410961908206
C            0.14015216899931        1.34097966419255       -0.00602076120833
O            0.51319265195686        2.51616705029073       -0.01100825944740
N           -1.25042590808089        1.02044446226299       -0.03069456061882
C           -2.17750463902527        2.13627449405804       -0.04824661673505
C           -1.81307673693828       -0.21810465236177       -0.04878866961234
O           -3.01570938351420       -0.39456455954388       -0.07309715255183
N           -0.93560268482617       -1.32142032142248       -0.03880800560635
C           -1.51068429125019       -2.64596356349738       -0.06179138957895
H            3.69314643489060        1.41255664715610        1.05929610577995
H            3.97759243375254        1.26097966423886       -0.68416608452128
H            2.54780990095597        2.14331970600286       -0.06945263642197
H            3.59100129013765       -1.73177884060462        0.04541987689142
H           -1.59414394732425        3.05248763546774       -0.02455419817611
H           -2.77623316186056        2.10664737266382       -0.95571738158237