      -----------------------------------------------------------      
     |                   =====================                   |     
     |                           x T B                           |     
     |                   =====================                   |     
     |                         S. Grimme                         |     
     |          Mulliken Center for Theoretical Chemistry        |     
     |                    University of Bonn                     |     
      -----------------------------------------------------------      

   * xtb version 6.6.1 (8d0f1dd) compiled by 'conda@1efc2f54142f' on 2023-08-01

   xtb is free software: you can redistribute it and/or modify it under
   the terms of the GNU Lesser General Public License as published by
   the Free Software Foundation, either version 3 of the License, or
   (at your option) any later version.
   
   xtb is distributed in the hope that it will be useful,
   but WITHOUT ANY WARRANTY; without even the implied warranty of
   MERCHANTABILITY or FITNESS FOR A PARTICULAR PURPOSE.  See the
   GNU Lesser General Public License for more details.
   
   Cite this work as:
   * C. Bannwarth, E. Caldeweyher, S. Ehlert, A. Hansen, P. Pracht,
     J. Seibert, S. Spicher, S. Grimme, WIREs Comput. Mol. Sci., 2020, 11,
     e01493. DOI: 10.1002/wcms.1493
   
   for GFN2-xTB:
   * C. Bannwarth, S. Ehlert and S. Grimme., J. Chem. Theory Comput., 2019,
     15, 1652-1671. DOI: 10.1021/acs.jctc.8b01176
   for GFN1-xTB:
   * S. Grimme, C. Bannwarth, P. Shushkov, J. Chem. Theory Comput., 2017,
     13, 1989-2009. DOI: 10.1021/acs.jctc.7b00118
   for GFN0-xTB:
   * P. Pracht, E. Caldeweyher, S. Ehlert, S. Grimme, ChemRxiv, 2019, preprint.
     DOI: 10.26434/chemrxiv.8326202.v1
   for GFN-FF:
   * S. Spicher and S. Grimme, Angew. Chem. Int. Ed., 2020, 59, 15665-15673.
     DOI: 10.1002/anie.202004239
   
   for ALPB and GBSA implicit solvation:
   * S. Ehlert, M. Stahn, S. Spicher, S. Grimme, J. Chem. Theory Comput.,
     2021, 17, 4250-4261. DOI: 10.1021/acs.jctc.1c00471
   
   for DFT-D4:
   * E. Caldeweyher, C. Bannwarth and S. Grimme, J. Chem. Phys., 2017,
     147, 034112. DOI: 10.1063/1.4993215
   * E. Caldeweyher, S. Ehlert, A. Hansen, H. Neugebauer, S. Spicher,
     C. Bannwarth and S. Grimme, J. Chem. Phys., 2019, 150, 154122.
     DOI: 10.1063/1.5090222
   * E. Caldeweyher, J.-M. Mewes, S. Ehlert and S. Grimme, Phys. Chem. Chem. Phys.
     2020, 22, 8499-8512. DOI: 10.1039/D0CP00502A
   
   for sTDA-xTB:
   * S. Grimme and C. Bannwarth, J. Chem. Phys., 2016, 145, 054103.
     DOI: 10.1063/1.4959605
   
   in the mass-spec context:
   * V. Asgeirsson, C. Bauer and S. Grimme, Chem. Sci., 2017, 8, 4879.
     DOI: 10.1039/c7sc00601b
   * J. Koopman and S. Grimme, ACS Omega 2019, 4, 12, 15120-15133.
     DOI: 10.1021/acsomega.9b02011
   
   for metadynamics refer to:
   * S. Grimme, J. Chem. Theory Comput., 2019, 155, 2847-2862
     DOI: 10.1021/acs.jctc.9b00143
   
   for SPH calculations refer to:
   * S. Spicher and S. Grimme, J. Chem. Theory Comput., 2021, 17, 1701-1714
     DOI: 10.1021/acs.jctc.0c01306
   
   with help from (in alphabetical order)
   P. Atkinson, C. Bannwarth, F. Bohle, G. Brandenburg, E. Caldeweyher
   M. Checinski, S. Dohm, S. Ehlert, S. Ehrlich, I. Gerasimov, C. Hölzer
   A. Katbashev, J. Koopman, C. Lavigne, S. Lehtola, F. März, M. Müller,
   F. Musil, H. Neugebauer, J. Pisarek, C. Plett, P. Pracht, F. Pultar,
   J. Seibert, P. Shushkov, S. Spicher, M. Stahn, M. Steiner, T. Strunk,
   J. Stückrath, T. Rose, and J. Unsleber
   
 * started run on 2024/04/06 at 11:14:10.675     

           -------------------------------------------------
          |                Calculation Setup                |
           -------------------------------------------------

          program call               : xtb xtbopt.xyz --opt crude --input .xc2 --gfn2
          hostname                   : n-62-30-23
          coordinate file            : xtbopt.xyz
          omp threads                :                     1

   ID    Z sym.   atoms
    1    7 N      1, 17
    2    6 C      2-6, 8, 9, 11-16, 18-23, 25, 26, 28-33
    3    8 O      7, 10, 24, 27
    4    1 H      34-72

molecular fragmentation (1/2 indicates fragments):
111111111111111111111111211111111111111111111111111111222111111111111111
# atoms in fragment 1/2:    68     4
 fragment masses (1/2) :      440.58       15.03
CMA distance (Bohr)    :  22.714
constraining FC (au)   :  0.0500
########################################################################
[WARNING] Please study the warnings concerning your input carefully
-1- readin_getIntValue: could not parse ''
########################################################################

           -------------------------------------------------
          |                 G F N 2 - x T B                 |
           -------------------------------------------------

        Reference                      10.1021/acs.jctc.8b01176
      * Hamiltonian:
        H0-scaling (s, p, d)           1.850000    2.230000    2.230000
        zeta-weighting                 0.500000
      * Dispersion:
        s8                             2.700000
        a1                             0.520000
        a2                             5.000000
        s9                             5.000000
      * Repulsion:
        kExp                           1.500000    1.000000
        rExp                           1.000000
      * Coulomb:
        alpha                          2.000000
        third order                    shell-resolved
        anisotropic                    true
        a3                             3.000000
        a5                             4.000000
        cn-shift                       1.200000
        cn-exp                         4.000000
        max-rad                        5.000000

q/qsh data taken from xtbrestart
CAMM data taken from xtbrestart

          ...................................................
          :                      SETUP                      :
          :.................................................:
          :  # basis functions                 171          :
          :  # atomic orbitals                 171          :
          :  # shells                          105          :
          :  # electrons                       180          :
          :  max. iterations                   250          :
          :  Hamiltonian                  GFN2-xTB          :
          :  restarted?                       true          :
          :  GBSA solvation                  false          :
          :  PC potential                    false          :
          :  electronic temp.         5000.0000000     K    :
          :  accuracy                    1.0000000          :
          :  -> integral cutoff          0.2500000E+02      :
          :  -> integral neglect         0.1000000E-07      :
          :  -> SCF convergence          0.1000000E-05 Eh   :
          :  -> wf. convergence          0.1000000E-03 e    :
          :  Broyden damping             0.4000000          :
          ...................................................

 iter      E             dE          RMSdq      gap      omega  full diag
   1   -100.6779709 -0.100678E+03  0.469E-05    0.39       0.0  T
   2   -100.6779709  0.203400E-08  0.145E-04    0.39      81.1  T
   3   -100.6779709 -0.201605E-08  0.442E-05    0.39     266.7  T

   *** convergence criteria satisfied after 3 iterations ***

         #    Occupation            Energy/Eh            Energy/eV
      -------------------------------------------------------------
         1        2.0000           -0.8138588             -22.1462
       ...           ...                  ...                  ...
        84        1.9934           -0.5134256             -13.9710
        85        1.9793           -0.4952897             -13.4775
        86        1.9627           -0.4858061             -13.2195
        87        1.9289           -0.4753335             -12.9345
        88        1.8611           -0.4641653             -12.6306
        89        1.8288           -0.4605735             -12.5328
        90        1.2682           -0.4317755             -11.7492 (HOMO)
        91        0.8241           -0.4174389             -11.3591 (LUMO)
        92        0.3645           -0.3992973             -10.8654
        93        0.0130           -0.3434746              -9.3464
        94        0.0033           -0.3215388              -8.7495
        95        0.0027           -0.3184682              -8.6660
       ...           ...                  ...                  ...
       171                          0.6082082              16.5502
      -------------------------------------------------------------
                  HL-Gap            0.0143366 Eh            0.3901 eV
             Fermi-level           -0.4230677 Eh          -11.5123 eV

 SCC (total)                   0 d,  0 h,  0 min,  0.119 sec
 SCC setup                      ...        0 min,  0.001 sec (  0.973%)
 Dispersion                     ...        0 min,  0.002 sec (  1.695%)
 classical contributions        ...        0 min,  0.001 sec (  0.446%)
 integral evaluation            ...        0 min,  0.018 sec ( 15.297%)
 iterations                     ...        0 min,  0.028 sec ( 23.216%)
 molecular gradient             ...        0 min,  0.069 sec ( 57.834%)
 printout                       ...        0 min,  0.001 sec (  0.525%)

         :::::::::::::::::::::::::::::::::::::::::::::::::::::
         ::                     SUMMARY                     ::
         :::::::::::::::::::::::::::::::::::::::::::::::::::::
         :: total energy             -99.292597811262 Eh    ::
         :: gradient norm              0.002482675946 Eh/a0 ::
         :: HOMO-LUMO gap              0.390119029816 eV    ::
         ::.................................................::
         :: SCC energy              -100.677970917264 Eh    ::
         :: -> isotropic ES            0.122516582519 Eh    ::
         :: -> anisotropic ES          0.003260045626 Eh    ::
         :: -> anisotropic XC          0.049651777919 Eh    ::
         :: -> dispersion             -0.073107131654 Eh    ::
         :: repulsion energy           1.384032930067 Eh    ::
         :: add. restraining           0.000000000000 Eh    ::
         :: total charge               1.000000000000 e     ::
         :::::::::::::::::::::::::::::::::::::::::::::::::::::

      ----------------------------------------------------------- 
     |                   =====================                   |
     |                        A N C O P T                        |
     |                   =====================                   |
     |               Approximate Normal Coordinate               |
     |                Rational Function Optimizer                |
      ----------------------------------------------------------- 

          ...................................................
          :                      SETUP                      :
          :.................................................:
          :   optimization level             crude          :
          :   max. optcycles                   200          :
          :   ANC micro-cycles                  20          :
          :   degrees of freedom               210          :
          :.................................................:
          :   RF solver                   davidson          :
          :   write xtbopt.log                true          :
          :   linear?                        false          :
          :   energy convergence         0.5000000E-03 Eh   :
          :   grad. convergence          0.1000000E-01 Eh/α :
          :   maxmium RF displ.          1.0000000          :
          :   Hlow (freq-cutoff)         0.1000000E-01      :
          :   Hmax (freq-cutoff)         5.0000000          :
          :   S6 in model hess.         20.0000000          :
          ...................................................

generating ANC from model Hessian ...
Using Lindh-Hessian (1995)
 Shifting diagonal of input Hessian by    1.0015450452203142E-002
 Lowest  eigenvalues of input Hessian
    0.010000    0.010007    0.000000    0.000000    0.000000    0.000000
    0.000000    0.000000    0.010072    0.010077    0.010095    0.010225
    0.010337    0.010355    0.010541    0.010555    0.010566    0.010597
 Highest eigenvalues
    2.001821    2.042124    2.058839    2.110935    2.181819    2.254710


........................................................................
.............................. CYCLE    1 ..............................
........................................................................

 iter      E             dE          RMSdq      gap      omega  full diag
   1   -100.6779709 -0.100678E+03  0.208E-05    0.39       0.0  T
   2   -100.6779709  0.512571E-09  0.679E-05    0.39     173.7  T
   3   -100.6779709 -0.514845E-09  0.194E-05    0.39     608.4  T
     SCC iter.                  ...        0 min,  0.026 sec
     gradient                   ...        0 min,  0.069 sec
 * total energy  :   -99.2925978 Eh     change       -0.1720366E-09 Eh
   gradient norm :     0.0024828 Eh/α   predicted     0.0000000E+00 (-100.00%)
   displ. norm   :     0.0812948 α      lambda       -0.7995116E-04
   maximum displ.:     0.0683386 α      in ANC's #10, #4, #7, ...

   *** GEOMETRY OPTIMIZATION CONVERGED AFTER 1 ITERATIONS ***

------------------------------------------------------------------------
 total energy gain   :        -0.0000000 Eh       -0.0000 kcal/mol
 total RMSD          :         0.0000000 a0        0.0000 Å
 total power (kW/mol):        -0.0000005 (step)   -0.0000 (real)
------------------------------------------------------------------------

 ANCopt (total)                0 d,  0 h,  0 min,  0.183 sec
 optimizer setup                ...        0 min,  0.000 sec (  0.166%)
 model hessian                  ...        0 min,  0.054 sec ( 29.660%)
 ANC generation                 ...        0 min,  0.007 sec (  3.578%)
 coordinate transformation      ...        0 min,  0.000 sec (  0.026%)
 single point calculation       ...        0 min,  0.119 sec ( 65.056%)
 optimization log               ...        0 min,  0.002 sec (  1.040%)
 hessian update                 ...        0 min,  0.000 sec (  0.001%)
 rational function              ...        0 min,  0.000 sec (  0.106%)

================
 final structure:
================
72
 xtb: 6.6.1 (8d0f1dd)
N           -1.93988478076680        2.84137699156292        2.20846533842755
C           -1.91808912830979        2.12926840493538        1.18321380485110
C           -3.08567979833188        1.92807674203688        0.25621160787641
C           -3.56713983142629        0.48891135114435        0.35446317128039
C           -4.50462410127485        0.00791283072321       -0.56198272076641
C           -4.97166646962028       -1.29480101020451       -0.50420347967184
O           -5.87776403984534       -1.83522874192086       -1.34346608313517
C           -6.49843704116567       -1.01841303732997       -2.30852268718884
C           -4.47888085379496       -2.17116174935663        0.50139327547888
O           -4.96956195506745       -3.42537332827134        0.46905510877410
C           -4.56622177687360       -4.34566325889008        1.45623320682242
C           -3.55857325705176       -1.68311268234167        1.41550936667247
C           -3.11213293603548       -0.36932946445654        1.34362274339619
C           -2.55217007181566        2.21288529606130       -1.17318229564298
C           -1.67703182806598        1.09425337728099       -1.76855603858428
C           -0.34155913792264        0.99589559219415       -1.14229476307692
N            0.25305581886120       -0.12308707028561       -0.75473117317193
C            1.63434113051747       -0.10588486241751       -0.33684413389607
C            2.57648981194490       -0.64410070067418       -1.43478027763101
C            3.99466400764149       -0.30036994439674       -1.08681837556965
C            4.50325989951759        0.96032244989490       -1.42109931221756
C            5.77143600835895        1.33224796820221       -1.07213524204162
C            6.64999418269913        0.46024916226724       -0.34724300538630
O            7.79819314649821        0.77632201083556       -0.01315665379732
C           11.36284678779393        1.93100136168200        1.01311715720775
C            6.09146529070368       -0.86099361221831       -0.01875327562672
O            6.94488421842448       -1.64699975742325        0.64371521136104
C            6.57366430986249       -2.95619325953662        1.00313525818845
C            4.79958516510616       -1.19378739932573       -0.38511767302882
C           -0.40192914921765       -1.40817639764181       -0.81883629243171
C           -4.28499357972286        2.87173608783136        0.56868256480840
C           -4.90530573447575        2.55596111438617        1.92739535433405
C           -3.91635963269740        4.35107399649683        0.50021004089994
H           -4.88317648108190        0.66752649999917       -1.32496433737173
H           -7.02462166184943       -0.17910006355721       -1.84411869794892
H           -7.21823073999843       -1.65944548999304       -2.81345997045305
H           -5.77752378229115       -0.64034789122407       -3.04069481109204
H           -4.83845557142369       -4.00373427840822        2.45904245634289
H           -5.10018584855807       -5.26684183733747        1.23193961226612
H           -3.48830317888103       -4.53244752497078        1.41363610058335
H           -3.18699786266463       -2.31660924727160        2.20435335636176
H           -2.41701258171808       -0.01874124227451        2.09049170774635
H           -3.40048551716063        2.36607443928060       -1.83888818028802
H           -1.97817540543857        3.13993479027670       -1.15410133121901
H           -2.21206429783625        0.14721478618091       -1.73099998930916
H           -1.52275904827886        1.34878443970569       -2.82504617038903
H           -1.01689782634702        1.59593267167011        0.82359650644759
H            0.25553180248749        1.89610008811593       -1.10803255144069
H            1.74497206276315       -0.70826114194138        0.56876793442228
H            1.92348087517522        0.92050893531071       -0.10140660383824
H            2.30687860171211       -0.17293641494918       -2.38251528383785
H            2.45387541500642       -1.72279061071741       -1.53595462815640
H            3.88191661622020        1.64991058065621       -1.97573878969853
H            6.16029101432748        2.30310546978777       -1.33585801520804
H           10.90407252861835        2.71483010938926        1.57729560302548
H           11.53353365919486        2.04907779736945       -0.03576475963756
H           11.61016435731274        1.00717227166741        1.49133449766469
H            7.43971448417469       -3.37755643616475        1.50991371916316
H            5.71825014750218       -2.95657591091389        1.68623768665765
H            6.33852580803996       -3.56057818876943        0.12175031487168
H            4.40528205043633       -2.16804126511619       -0.13437528840531
H           -0.52667050958674       -1.73591687745952       -1.85373842133125
H           -1.38345601304924       -1.36097225489298       -0.34164929893308
H            0.20193953796287       -2.14398075574956       -0.29306100799480
H           -5.04170904033945        2.67571371412304       -0.19966611685560
H           -4.18888085424909        2.75241876024869        2.71856074028343
H           -5.21905544915635        1.51642469051685        1.98457721734189
H           -5.77664621789837        3.18590126181825        2.08503588119031
H           -3.15373722010528        4.58425767392823        1.23690159704014
H           -3.56145222241463        4.63678660521341       -0.48642307948057
H           -4.79640484661225        4.94851046417854        0.72303509917677
H           -1.08488586143581        2.92801244391885        2.74855241739106

 Bond Distances (Angstroems)
 ---------------------------
N1-C2=1.2485         N1-H72=1.0150        C2-N1=1.2485         C2-C3=1.5044         C2-H47=1.1072        C3-C2=1.5044         
C3-C4=1.5207         C3-C14=1.5521        C3-C31=1.5577        C4-C3=1.5207         C4-C5=1.3965         C4-C13=1.3864        
C5-C4=1.3965         C5-C6=1.3851         C5-H34=1.0773        C6-C5=1.3851         C6-O7=1.3481         C6-C9=1.4220         
O7-C6=1.3481         O7-C8=1.4085         C8-O7=1.4085         C8-H35=1.0941        C8-H36=1.0881        C8-H37=1.0949        
C9-C6=1.4220         C9-O10=1.3472        C9-C12=1.3859        O10-C9=1.3472        O10-C11=1.4086       C11-O10=1.4086       
C11-H38=1.0939       C11-H39=1.0881       C11-H40=1.0948       C12-C9=1.3859        C12-C13=1.3894       C12-H41=1.0778       
C13-C4=1.3864        C13-C12=1.3894       C13-H42=1.0789       C14-C3=1.5521        C14-C15=1.5400       C14-H43=1.0892       
C14-H44=1.0905       C15-C14=1.5400       C15-C16=1.4783       C15-H45=1.0884       C15-H46=1.0976       C16-C15=1.4783       
C16-N17=1.3251       C16-H48=1.0808       N17-C16=1.3251       N17-C18=1.4432       N17-C30=1.4438       C18-N17=1.4432       
C18-C19=1.5436       C18-H49=1.0933       C18-H50=1.0920       C19-C18=1.5436       C19-C20=1.5001       C19-H51=1.0922       
C19-H52=1.0903       C20-C19=1.5001       C20-C21=1.3999       C20-C29=1.3923       C21-C20=1.3999       C21-C22=1.3669       
C21-H53=1.0813       C22-C21=1.3669       C22-C23=1.4345       C22-H54=1.0786       C23-C22=1.4345       C23-O24=1.2369       
C23-C26=1.4716       O24-C23=1.2369       C25-H55=1.0692       C25-H56=1.0692       C25-H57=1.0693       C26-C23=1.4716       
C26-O27=1.3360       C26-C29=1.3834       O27-C26=1.3360       O27-C28=1.4075       C28-O27=1.4075       C28-H58=1.0883       
C28-H59=1.0947       C28-H60=1.0943       C29-C20=1.3923       C29-C26=1.3834       C29-H61=1.0805       C30-N17=1.4438       
C30-H62=1.0927       C30-H63=1.0924       C30-H64=1.0874       C31-C3=1.5577        C31-C32=1.5266       C31-C33=1.5261       
C31-H65=1.0961       C32-C31=1.5266       C32-H66=1.0853       C32-H67=1.0874       C32-H68=1.0867       C33-C31=1.5261       
C33-H69=1.0857       C33-H70=1.0868       C33-H71=1.0868       H34-C5=1.0773        H35-C8=1.0941        H36-C8=1.0881        
H37-C8=1.0949        H38-C11=1.0939       H39-C11=1.0881       H40-C11=1.0948       H41-C12=1.0778       H42-C13=1.0789       
H43-C14=1.0892       H44-C14=1.0905       H45-C15=1.0884       H46-C15=1.0976       H47-C2=1.1072        H48-C16=1.0808       
H49-C18=1.0933       H50-C18=1.0920       H51-C19=1.0922       H52-C19=1.0903       H53-C21=1.0813       H54-C22=1.0786       
H55-C25=1.0692       H56-C25=1.0692       H57-C25=1.0693       H58-C28=1.0883       H59-C28=1.0947       H60-C28=1.0943       
H61-C29=1.0805       H62-C30=1.0927       H63-C30=1.0924       H64-C30=1.0874       H65-C31=1.0961       H66-C32=1.0853       
H67-C32=1.0874       H68-C32=1.0867       H69-C33=1.0857       H70-C33=1.0868       H71-C33=1.0868       H72-N1=1.0150        
 C  H  Rav=1.0874 sigma=0.0081  Rmin=1.0692  Rmax=1.1072    38
 C  C  Rav=1.4574 sigma=0.0668  Rmin=1.3669  Rmax=1.5577    22
 N  H  Rav=1.0150 sigma=0.0000  Rmin=1.0150  Rmax=1.0150     1
 N  C  Rav=1.3652 sigma=0.0829  Rmin=1.2485  Rmax=1.4438     4
 O  C  Rav=1.3561 sigma=0.0572  Rmin=1.2369  Rmax=1.4086     7

 selected bond angles (degree)
 --------------------
H72-N1-C2=118.10               C3-C2-N1=124.66                H47-C2-N1=123.76               H47-C2-C3=111.54               
C4-C3-C2=109.42                C14-C3-C2=106.03               C14-C3-C4=110.00               C31-C3-C2=113.14               
C31-C3-C4=108.46               C31-C3-C14=109.77              C5-C4-C3=119.74                C13-C4-C3=121.87               
C13-C4-C5=118.38               C6-C5-C4=121.53                H34-C5-C4=119.33               H34-C5-C6=119.14               
O7-C6-C5=125.29                C9-C6-C5=119.49                C9-C6-O7=115.22                C8-O7-C6=119.36                
H35-C8-O7=111.47               H36-C8-O7=105.53               H36-C8-H35=109.32              H37-C8-O7=111.61               
H37-C8-H35=109.61              H37-C8-H36=109.19              O10-C9-C6=115.50               C12-C9-C6=118.65               
C12-C9-O10=125.84              C11-O10-C9=119.15              

 selected dihedral angles (degree)
 ---------------------------------
C3-C2-N1-H72=181.74           H47-C2-N1-H72=359.31          C4-C3-C2-N1=247.88            C4-C3-C2-H47= 70.05           
C14-C3-C2-N1=129.29           C14-C3-C2-H47=311.46          C31-C3-C2-N1=  8.92           C31-C3-C2-H47=191.10          
C5-C4-C3-C2=189.94            C5-C4-C3-C14=306.04           C5-C4-C3-C31= 66.10           C13-C4-C3-C2= 10.63           
C13-C4-C3-C14=126.73          C13-C4-C3-C31=246.79          C6-C5-C4-C3=180.21            C6-C5-C4-C13=359.54           
H34-C5-C4-C3=359.46           H34-C5-C4-C13=178.80          O7-C6-C5-C4=179.69            O7-C6-C5-H34=  0.43           
C9-C6-C5-C4=359.37            C9-C6-C5-H34=180.11           C8-O7-C6-C5=354.93            C8-O7-C6-C9=175.23            
H35-C8-O7-C6=301.85           H36-C8-O7-C6=183.28           H37-C8-O7-C6= 64.78           O10-C9-C6-C5=181.12           
O10-C9-C6-O7=  0.84           C12-C9-C6-C5=  1.24           C12-C9-C6-O7=180.95           C11-O10-C9-C6=182.02          
C11-O10-C9-C12=  1.90         

 CMA Distance (Angstroems)
 ---------------------------
R(CMA): 12.0195
           -------------------------------------------------
          |                Final Singlepoint                |
           -------------------------------------------------

          ...................................................
          :                      SETUP                      :
          :.................................................:
          :  # basis functions                 171          :
          :  # atomic orbitals                 171          :
          :  # shells                          105          :
          :  # electrons                       180          :
          :  max. iterations                   250          :
          :  Hamiltonian                  GFN2-xTB          :
          :  restarted?                      false          :
          :  GBSA solvation                  false          :
          :  PC potential                    false          :
          :  electronic temp.         5000.0000000     K    :
          :  accuracy                    1.0000000          :
          :  -> integral cutoff          0.2500000E+02      :
          :  -> integral neglect         0.1000000E-07      :
          :  -> SCF convergence          0.1000000E-05 Eh   :
          :  -> wf. convergence          0.1000000E-03 e    :
          :  Broyden damping             0.4000000          :
          ...................................................

 iter      E             dE          RMSdq      gap      omega  full diag
   1   -100.6779709 -0.100678E+03  0.970E-06    0.39       0.0  T
   2   -100.6779709  0.431868E-10  0.201E-05    0.39     585.3  T
   3   -100.6779709 -0.458158E-10  0.723E-06    0.39    1630.0  T

   *** convergence criteria satisfied after 3 iterations ***

         #    Occupation            Energy/Eh            Energy/eV
      -------------------------------------------------------------
         1        2.0000           -0.8138589             -22.1462
       ...           ...                  ...                  ...
        84        1.9934           -0.5134254             -13.9710
        85        1.9793           -0.4952896             -13.4775
        86        1.9627           -0.4858062             -13.2195
        87        1.9289           -0.4753333             -12.9345
        88        1.8611           -0.4641652             -12.6306
        89        1.8288           -0.4605737             -12.5328
        90        1.2682           -0.4317756             -11.7492 (HOMO)
        91        0.8241           -0.4174395             -11.3591 (LUMO)
        92        0.3645           -0.3992966             -10.8654
        93        0.0130           -0.3434743              -9.3464
        94        0.0033           -0.3215387              -8.7495
        95        0.0027           -0.3184680              -8.6660
       ...           ...                  ...                  ...
       171                          0.6082081              16.5502
      -------------------------------------------------------------
                  HL-Gap            0.0143361 Eh            0.3901 eV
             Fermi-level           -0.4230678 Eh          -11.5123 eV

 SCC (total)                   0 d,  0 h,  0 min,  0.116 sec
 SCC setup                      ...        0 min,  0.001 sec (  0.751%)
 Dispersion                     ...        0 min,  0.002 sec (  1.349%)
 classical contributions        ...        0 min,  0.000 sec (  0.368%)
 integral evaluation            ...        0 min,  0.018 sec ( 15.286%)
 iterations                     ...        0 min,  0.026 sec ( 22.538%)
 molecular gradient             ...        0 min,  0.069 sec ( 59.152%)
 printout                       ...        0 min,  0.001 sec (  0.542%)

         :::::::::::::::::::::::::::::::::::::::::::::::::::::
         ::                     SUMMARY                     ::
         :::::::::::::::::::::::::::::::::::::::::::::::::::::
         :: total energy             -99.292597811464 Eh    ::
         :: gradient norm              0.002482551109 Eh/a0 ::
         :: HOMO-LUMO gap              0.390106327571 eV    ::
         ::.................................................::
         :: SCC energy              -100.677970917466 Eh    ::
         :: -> isotropic ES            0.122518177590 Eh    ::
         :: -> anisotropic ES          0.003259955034 Eh    ::
         :: -> anisotropic XC          0.049651743768 Eh    ::
         :: -> dispersion             -0.073107104419 Eh    ::
         :: repulsion energy           1.384032930067 Eh    ::
         :: add. restraining           0.000000000000 Eh    ::
         :: total charge               1.000000000000 e     ::
         :::::::::::::::::::::::::::::::::::::::::::::::::::::

           -------------------------------------------------
          |                Property Printout                |
           -------------------------------------------------

    * Orbital Energies and Occupations

         #    Occupation            Energy/Eh            Energy/eV
      -------------------------------------------------------------
         1        2.0000           -0.8138589             -22.1462
       ...           ...                  ...                  ...
        78        1.9980           -0.5327107             -14.4958
        79        1.9978           -0.5311526             -14.4534
        80        1.9972           -0.5270485             -14.3417
        81        1.9970           -0.5260393             -14.3143
        82        1.9952           -0.5186015             -14.1119
        83        1.9943           -0.5158984             -14.0383
        84        1.9934           -0.5134254             -13.9710
        85        1.9793           -0.4952896             -13.4775
        86        1.9627           -0.4858062             -13.2195
        87        1.9289           -0.4753333             -12.9345
        88        1.8611           -0.4641652             -12.6306
        89        1.8288           -0.4605737             -12.5328
        90        1.2682           -0.4317756             -11.7492 (HOMO)
        91        0.8241           -0.4174395             -11.3591 (LUMO)
        92        0.3645           -0.3992966             -10.8654
        93        0.0130           -0.3434743              -9.3464
        94        0.0033           -0.3215387              -8.7495
        95        0.0027           -0.3184680              -8.6660
        96        0.0012           -0.3059259              -8.3247
        97        0.0007           -0.2979343              -8.1072
        98        0.0000           -0.1959171              -5.3312
        99        0.0000           -0.1836368              -4.9970
       100                         -0.1397841              -3.8037
       101                         -0.0735081              -2.0003
       ...                                ...                  ...
       171                          0.6082081              16.5502
      -------------------------------------------------------------
                  HL-Gap            0.0143361 Eh            0.3901 eV
             Fermi-level           -0.4230678 Eh          -11.5123 eV

     #   Z          covCN         q      C6AA      α(0)
     1   7 N        1.774    -0.265    27.694     7.793
     2   6 C        2.827     0.101    25.745     8.314
     3   6 C        3.907     0.006    20.412     6.422
     4   6 C        2.974     0.003    27.962     8.674
     5   6 C        2.920    -0.080    30.006     8.983
     6   6 C        2.862     0.130    25.158     8.221
     7   8 O        1.706    -0.228    17.784     5.694
     8   6 C        3.644     0.027    20.460     6.502
     9   6 C        2.864     0.129    25.180     8.225
    10   8 O        1.706    -0.227    17.758     5.690
    11   6 C        3.645     0.026    20.468     6.502
    12   6 C        2.913    -0.075    29.865     8.961
    13   6 C        2.921    -0.053    29.314     8.879
    14   6 C        3.812    -0.065    21.738     6.636
    15   6 C        3.802    -0.070    21.833     6.652
    16   6 C        2.844     0.010    27.787     8.639
    17   7 N        2.729     0.016    20.977     6.802
    18   6 C        3.757    -0.017    20.929     6.522
    19   6 C        3.807    -0.069    21.821     6.650
    20   6 C        2.969     0.004    27.941     8.670
    21   6 C        2.913    -0.043    29.078     8.842
    22   6 C        2.909    -0.060    29.498     8.906
    23   6 C        2.828     0.202    23.719     7.981
    24   8 O        0.858    -0.362    20.934     6.134
    25   6 C        2.780    -0.103    30.572     9.056
    26   6 C        2.856     0.129    25.172     8.223
    27   8 O        1.706    -0.197    17.286     5.613
    28   6 C        3.644     0.024    20.503     6.509
    29   6 C        2.909    -0.078    29.960     8.975
    30   6 C        3.699    -0.072    22.044     6.715
    31   6 C        3.853    -0.007    20.670     6.466
    32   6 C        3.756    -0.119    22.833     6.813
    33   6 C        3.755    -0.119    22.841     6.815
    34   1 H        0.926     0.053     2.280     2.361
    35   1 H        0.924     0.055     2.257     2.349
    36   1 H        0.925     0.082     1.954     2.186
    37   1 H        0.924     0.048     2.344     2.394
    38   1 H        0.924     0.057     2.240     2.340
    39   1 H        0.925     0.082     1.955     2.186
    40   1 H        0.924     0.048     2.342     2.393
    41   1 H        0.926     0.053     2.280     2.361
    42   1 H        0.926     0.040     2.447     2.446
    43   1 H        0.925     0.062     2.177     2.307
    44   1 H        0.924     0.055     2.262     2.352
    45   1 H        0.925     0.067     2.121     2.277
    46   1 H        0.924     0.083     1.953     2.185
    47   1 H        0.922     0.006     2.952     2.687
    48   1 H        0.926     0.073     2.058     2.243
    49   1 H        0.924     0.068     2.102     2.267
    50   1 H        0.924     0.070     2.090     2.261
    51   1 H        0.924     0.057     2.239     2.340
    52   1 H        0.924     0.056     2.247     2.344
    53   1 H        0.925     0.045     2.384     2.415
    54   1 H        0.926     0.072     2.066     2.248
    55   1 H        0.927     0.093     1.851     2.127
    56   1 H        0.927     0.094     1.837     2.120
    57   1 H        0.927     0.093     1.852     2.128
    58   1 H        0.925     0.086     1.922     2.168
    59   1 H        0.924     0.054     2.272     2.357
    60   1 H        0.924     0.058     2.223     2.332
    61   1 H        0.926     0.045     2.386     2.415
    62   1 H        0.924     0.079     1.993     2.208
    63   1 H        0.924     0.081     1.972     2.196
    64   1 H        0.925     0.081     1.969     2.194
    65   1 H        0.924     0.038     2.474     2.460
    66   1 H        0.925     0.070     2.089     2.260
    67   1 H        0.925     0.036     2.503     2.474
    68   1 H        0.925     0.053     2.287     2.365
    69   1 H        0.925     0.062     2.175     2.307
    70   1 H        0.925     0.035     2.510     2.478
    71   1 H        0.925     0.056     2.251     2.346
    72   1 H        0.860     0.159     1.339     1.813

 Mol. C6AA /au·bohr⁶  :      47704.727957
 Mol. C8AA /au·bohr⁸  :    1089972.674244
 Mol. α(0) /au        :        336.172930


Wiberg/Mayer (AO) data.
largest (>0.10) Wiberg bond orders for each atom

 ---------------------------------------------------------------------------
     #   Z sym  total        # sym  WBO       # sym  WBO       # sym  WBO
 ---------------------------------------------------------------------------
     1   7 N    3.040 --     2 C    1.959    72 H    0.941
     2   6 C    3.931 --     1 N    1.959     3 C    0.994    47 H    0.901
     3   6 C    3.975 --     2 C    0.994     4 C    0.970    14 C    0.957
                            31 C    0.942
     4   6 C    3.947 --    13 C    1.412     5 C    1.368     3 C    0.970
     5   6 C    3.961 --     6 C    1.400     4 C    1.368    34 H    0.958
     6   6 C    3.904 --     5 C    1.400     9 C    1.219     7 O    1.102
     7   8 O    2.255 --     6 C    1.102     8 C    0.977
     8   6 C    3.931 --     7 O    0.977    36 H    0.976    35 H    0.973
                            37 H    0.973
     9   6 C    3.899 --    12 C    1.391     6 C    1.219    10 O    1.104
    10   8 O    2.254 --     9 C    1.104    11 C    0.977
    11   6 C    3.930 --    10 O    0.977    39 H    0.977    40 H    0.973
                            38 H    0.973
    12   6 C    3.961 --    13 C    1.403     9 C    1.391    41 H    0.964
    13   6 C    3.952 --     4 C    1.412    12 C    1.403    42 H    0.962
    14   6 C    3.971 --    15 C    0.979    44 H    0.972    43 H    0.968
                             3 C    0.957
    15   6 C    3.986 --    16 C    1.062    14 C    0.979    45 H    0.961
                            46 H    0.927
    16   6 C    3.609 --    17 N    1.415    15 C    1.062    48 H    0.956
    17   7 N    3.492 --    16 C    1.415    30 C    0.997    18 C    0.989
    18   6 C    3.947 --    17 N    0.989    50 H    0.967    49 H    0.963
                            19 C    0.962
    19   6 C    3.976 --    20 C    1.013    52 H    0.973    51 H    0.969
                            18 C    0.962
    20   6 C    3.804 --    29 C    1.379    21 C    1.318    19 C    1.013
    21   6 C    3.944 --    22 C    1.539    20 C    1.318    53 H    0.963
    22   6 C    3.796 --    21 C    1.539    23 C    1.152    54 H    0.963
    23   6 C    3.880 --    24 O    1.587    22 C    1.152    26 C    1.047
    24   8 O    1.721 --    23 C    1.587
    25   6 C    2.967 --    57 H    0.989    55 H    0.989    56 H    0.989
    26   6 C    3.737 --    29 C    1.404    27 O    1.144    23 C    1.047
    27   8 O    2.255 --    26 C    1.144    28 C    0.974
    28   6 C    3.926 --    58 H    0.976    27 O    0.974    59 H    0.971
                            60 H    0.971
    29   6 C    3.944 --    26 C    1.404    20 C    1.379    61 H    0.958
    30   6 C    3.956 --    17 N    0.997    64 H    0.977    62 H    0.965
                            63 H    0.961
    31   6 C    3.971 --    33 C    1.009    32 C    1.008    65 H    0.959
                             3 C    0.942
    32   6 C    3.977 --    31 C    1.008    67 H    0.981    68 H    0.981
                            66 H    0.973
    33   6 C    3.981 --    31 C    1.009    70 H    0.983    71 H    0.980
                            69 H    0.975
    34   1 H    0.996 --     5 C    0.958
    35   1 H    0.993 --     8 C    0.973
    36   1 H    0.992 --     8 C    0.976
    37   1 H    0.993 --     8 C    0.973
    38   1 H    0.992 --    11 C    0.973
    39   1 H    0.993 --    11 C    0.977
    40   1 H    0.993 --    11 C    0.973
    41   1 H    0.995 --    12 C    0.964
    42   1 H    0.998 --    13 C    0.962
    43   1 H    0.995 --    14 C    0.968
    44   1 H    0.996 --    14 C    0.972
    45   1 H    0.995 --    15 C    0.961
    46   1 H    0.971 --    15 C    0.927
    47   1 H    0.985 --     2 C    0.901
    48   1 H    0.994 --    16 C    0.956
    49   1 H    0.990 --    18 C    0.963
    50   1 H    0.994 --    18 C    0.967
    51   1 H    0.993 --    19 C    0.969
    52   1 H    0.995 --    19 C    0.973
    53   1 H    0.992 --    21 C    0.963
    54   1 H    0.989 --    22 C    0.963
    55   1 H    0.991 --    25 C    0.989
    56   1 H    0.991 --    25 C    0.989
    57   1 H    0.991 --    25 C    0.989
    58   1 H    0.992 --    28 C    0.976
    59   1 H    0.989 --    28 C    0.971
    60   1 H    0.988 --    28 C    0.971
    61   1 H    0.993 --    29 C    0.958
    62   1 H    0.984 --    30 C    0.965
    63   1 H    0.988 --    30 C    0.961
    64   1 H    0.993 --    30 C    0.977
    65   1 H    0.991 --    31 C    0.959
    66   1 H    0.990 --    32 C    0.973
    67   1 H    0.996 --    32 C    0.981
    68   1 H    0.993 --    32 C    0.981
    69   1 H    0.992 --    33 C    0.975
    70   1 H    0.997 --    33 C    0.983
    71   1 H    0.993 --    33 C    0.980
    72   1 H    0.969 --     1 N    0.941
 ---------------------------------------------------------------------------

Topologies differ in total number of bonds
Writing topology from bond orders to xtbtopo.mol

molecular dipole:
                 x           y           z       tot (Debye)
 q only:       -0.061      -0.547      -0.570
   full:        0.044      -0.817      -0.727       2.782
molecular quadrupole (traceless):
                xx          xy          yy          xz          yz          zz
 q only:       61.117      -3.254     -20.142      18.018      -9.512     -40.975
  q+dip:       50.120      -3.548     -16.189      20.801     -13.793     -33.931
   full:       49.843      -4.305     -17.073      18.312     -13.275     -32.770

           -------------------------------------------------
          |                Geometry Summary                 |
           -------------------------------------------------

      molecular mass/u    :      455.6105846
   center of mass at/Å    :       -0.0569672       0.0224693      -0.0384873
  moments of inertia/u·Å² :        0.2489382E+04   0.1159639E+05   0.1283813E+05
rotational constants/cm⁻¹ :        0.6771814E-02   0.1453697E-02   0.1313091E-02

 * 62 selected distances

     #   Z          #   Z                                           value/Å
     1   7 N        2   6 C                                       1.2484850
     4   6 C        5   6 C                                       1.3964633
     5   6 C        6   6 C                                       1.3851104
     6   6 C        7   8 O                                       1.3481235
     7   8 O        8   6 C                                       1.4084593
     6   6 C        9   6 C                                       1.4219954
     9   6 C       10   8 O                                       1.3471677
    10   8 O       11   6 C                                       1.4085943
     9   6 C       12   6 C                                       1.3859172
     4   6 C       13   6 C                                       1.3863786
    12   6 C       13   6 C                                       1.3894255
    14   6 C       15   6 C                                       1.5400242 (max)
    15   6 C       16   6 C                                       1.4782981
    16   6 C       17   7 N                                       1.3251019
    17   7 N       18   6 C                                       1.4432169
    20   6 C       21   6 C                                       1.3999140
    21   6 C       22   6 C                                       1.3668853
    23   6 C       24   8 O                                       1.2368819
    26   6 C       27   8 O                                       1.3360368
    27   8 O       28   6 C                                       1.4074711
    20   6 C       29   6 C                                       1.3922920
    26   6 C       29   6 C                                       1.3834483
    17   7 N       30   6 C                                       1.4438039
    31   6 C       32   6 C                                       1.5266309
    31   6 C       33   6 C                                       1.5261129
     5   6 C       34   1 H                                       1.0772805
     8   6 C       35   1 H                                       1.0940694
     8   6 C       36   1 H                                       1.0881119
     8   6 C       37   1 H                                       1.0948632
    11   6 C       38   1 H                                       1.0939165
    11   6 C       39   1 H                                       1.0881155
    11   6 C       40   1 H                                       1.0948112
    12   6 C       41   1 H                                       1.0778039
    13   6 C       42   1 H                                       1.0788503
    14   6 C       43   1 H                                       1.0891605
    14   6 C       44   1 H                                       1.0905297
    15   6 C       45   1 H                                       1.0883715
    15   6 C       46   1 H                                       1.0976146
    16   6 C       48   1 H                                       1.0807682
    18   6 C       49   1 H                                       1.0932657
    18   6 C       50   1 H                                       1.0920243
    19   6 C       51   1 H                                       1.0921941
    19   6 C       52   1 H                                       1.0903406
    21   6 C       53   1 H                                       1.0813068
    22   6 C       54   1 H                                       1.0785743
    25   6 C       55   1 H                                       1.0691861 (min)
    25   6 C       56   1 H                                       1.0692191
    25   6 C       57   1 H                                       1.0692606
    28   6 C       58   1 H                                       1.0883081
    28   6 C       59   1 H                                       1.0946975
    28   6 C       60   1 H                                       1.0942627
    29   6 C       61   1 H                                       1.0805172
    30   6 C       62   1 H                                       1.0927016
    30   6 C       63   1 H                                       1.0923968
    30   6 C       64   1 H                                       1.0874306
    31   6 C       65   1 H                                       1.0960853
    32   6 C       66   1 H                                       1.0852664
    32   6 C       67   1 H                                       1.0873568
    32   6 C       68   1 H                                       1.0866966
    33   6 C       69   1 H                                       1.0856713
    33   6 C       70   1 H                                       1.0867548
    33   6 C       71   1 H                                       1.0867664

 * 4 distinct bonds (by element types)

   Z      Z             #   av. dist./Å        max./Å        min./Å
   1 H    6 C          37     1.0868797     1.0976146     1.0691861
   6 C    6 C          14     1.4270640     1.5400242     1.3668853
   6 C    7 N           4     1.3651519     1.4438039     1.2484850
   6 C    8 O           7     1.3561049     1.4085943     1.2368819


optimized geometry written to: xtbopt.xyz


           -------------------------------------------------
          | TOTAL ENERGY              -99.292597811464 Eh   |
          | GRADIENT NORM               0.002482551109 Eh/α |
          | HOMO-LUMO GAP               0.390106327571 eV   |
           -------------------------------------------------

------------------------------------------------------------------------
 * finished run on 2024/04/06 at 11:14:11.152     
------------------------------------------------------------------------
 total:
 * wall-time:     0 d,  0 h,  0 min,  0.476 sec
 *  cpu-time:     0 d,  0 h,  0 min,  0.443 sec
 * ratio c/w:     0.931 speedup
 SCF:
 * wall-time:     0 d,  0 h,  0 min,  0.120 sec
 *  cpu-time:     0 d,  0 h,  0 min,  0.120 sec
 * ratio c/w:     1.000 speedup
 ANC optimizer:
 * wall-time:     0 d,  0 h,  0 min,  0.307 sec
 *  cpu-time:     0 d,  0 h,  0 min,  0.299 sec
 * ratio c/w:     0.973 speedup

