72
 energy: -99.292597811434 gnorm: 0.002482786239 xtb: 6.6.1 (8d0f1dd)
N           -1.93988478076680        2.84137699156292        2.20846533842755
C           -1.91808912830979        2.12926840493538        1.18321380485110
C           -3.08567979833188        1.92807674203688        0.25621160787641
C           -3.56713983142629        0.48891135114435        0.35446317128039
C           -4.50462410127485        0.00791283072321       -0.56198272076641
C           -4.97166646962028       -1.29480101020451       -0.50420347967184
O           -5.87776403984534       -1.83522874192086       -1.34346608313517
C           -6.49843704116567       -1.01841303732997       -2.30852268718884
C           -4.47888085379496       -2.17116174935663        0.50139327547888
O           -4.96956195506745       -3.42537332827134        0.46905510877410
C           -4.56622177687360       -4.34566325889008        1.45623320682242
C           -3.55857325705176       -1.68311268234167        1.41550936667247
C           -3.11213293603548       -0.36932946445654        1.34362274339619
C           -2.55217007181566        2.21288529606130       -1.17318229564298
C           -1.67703182806598        1.09425337728099       -1.76855603858428
C           -0.34155913792264        0.99589559219415       -1.14229476307692
N            0.25305581886120       -0.12308707028561       -0.75473117317193
C            1.63434113051747       -0.10588486241751       -0.33684413389607
C            2.57648981194490       -0.64410070067418       -1.43478027763101
C            3.99466400764149       -0.30036994439674       -1.08681837556965
C            4.50325989951759        0.96032244989490       -1.42109931221756
C            5.77143600835895        1.33224796820221       -1.07213524204162
C            6.64999418269913        0.46024916226724       -0.34724300538630
O            7.79819314649821        0.77632201083556       -0.01315665379732
C           11.36284678779393        1.93100136168200        1.01311715720775
C            6.09146529070368       -0.86099361221831       -0.01875327562672
O            6.94488421842448       -1.64699975742325        0.64371521136104
C            6.57366430986249       -2.95619325953662        1.00313525818845
C            4.79958516510616       -1.19378739932573       -0.38511767302882
C           -0.40192914921765       -1.40817639764181       -0.81883629243171
C           -4.28499357972286        2.87173608783136        0.56868256480840
C           -4.90530573447575        2.55596111438617        1.92739535433405
C           -3.91635963269740        4.35107399649683        0.50021004089994
H           -4.88317648108190        0.66752649999917       -1.32496433737173
H           -7.02462166184943       -0.17910006355721       -1.84411869794892
H           -7.21823073999843       -1.65944548999304       -2.81345997045305
H           -5.77752378229115       -0.64034789122407       -3.04069481109204
H           -4.83845557142369       -4.00373427840822        2.45904245634289
H           -5.10018584855807       -5.26684183733747        1.23193961226612
H           -3.48830317888103       -4.53244752497078        1.41363610058335
H           -3.18699786266463       -2.31660924727160        2.20435335636176
H           -2.41701258171808       -0.01874124227451        2.09049170774635
H           -3.40048551716063        2.36607443928060       -1.83888818028802
H           -1.97817540543857        3.13993479027670       -1.15410133121901
H           -2.21206429783625        0.14721478618091       -1.73099998930916
H           -1.52275904827886        1.34878443970569       -2.82504617038903
H           -1.01689782634702        1.59593267167011        0.82359650644759
H            0.25553180248749        1.89610008811593       -1.10803255144069
H            1.74497206276315       -0.70826114194138        0.56876793442228
H            1.92348087517522        0.92050893531071       -0.10140660383824
H            2.30687860171211       -0.17293641494918       -2.38251528383785
H            2.45387541500642       -1.72279061071741       -1.53595462815640
H            3.88191661622020        1.64991058065621       -1.97573878969853
H            6.16029101432748        2.30310546978777       -1.33585801520804
H           10.90407252861835        2.71483010938926        1.57729560302548
H           11.53353365919486        2.04907779736945       -0.03576475963756
H           11.61016435731274        1.00717227166741        1.49133449766469
H            7.43971448417469       -3.37755643616475        1.50991371916316
H            5.71825014750218       -2.95657591091389        1.68623768665765
H            6.33852580803996       -3.56057818876943        0.12175031487168
H            4.40528205043633       -2.16804126511619       -0.13437528840531
H           -0.52667050958674       -1.73591687745952       -1.85373842133125
H           -1.38345601304924       -1.36097225489298       -0.34164929893308
H            0.20193953796287       -2.14398075574956       -0.29306100799480
H           -5.04170904033945        2.67571371412304       -0.19966611685560
H           -4.18888085424909        2.75241876024869        2.71856074028343
H           -5.21905544915635        1.51642469051685        1.98457721734189
H           -5.77664621789837        3.18590126181825        2.08503588119031
H           -3.15373722010528        4.58425767392823        1.23690159704014
H           -3.56145222241463        4.63678660521341       -0.48642307948057
H           -4.79640484661225        4.94851046417854        0.72303509917677
H           -1.08488586143581        2.92801244391885        2.74855241739106
