25
 energy: -47.371921893430 gnorm: 9.051706835408 xtb: 6.6.1 (8d0f1dd)
C            3.21786164340000        1.13591514650000        0.01837059260000
N            2.27034809790000        0.05199982890000        0.00038279530000
C            2.54167221030000       -1.23971668410000       -0.00834188300000
N            1.39367826450000       -1.95088267900000       -0.00850347120000
C            0.35269634020000       -1.06748964300000        0.00059917290000
C            0.90759959010000        0.20069750900000        0.00663590170000
C            0.07590235260000        1.39864294500000       -0.00284827040000
O            0.48715076820000        2.53168346660000       -0.01725767220000
N           -1.27221500230000        1.06666939660000        0.00165480230000
C           -2.23229981500000        2.16656245330000       -0.00245172030000
C           -1.84872931540000       -0.19179276200000        0.00496135950000
O           -3.03273030250000       -0.36103538130000        0.00858583760000
N           -0.96599111670000       -1.30060631840000        0.00174701630000
C           -1.52030655580000       -2.64076660390000       -0.00239033190000
H            3.71480285180000        1.18589984860000        0.98803183970000
H            3.97079415090000        0.99383197990000       -0.75543416370000
H            2.68321036910000        2.07051068580000       -0.15067179540000
H            3.52469367910000       -1.66989040330000       -0.01523639120000
H           -1.67672429040000        3.10039111610000        0.00486339690000
H           -2.85755792270000        2.10547813320000       -0.89185337000000
H           -2.87119733260000        2.09858159720000        0.87661144540000
H           -1.20589108080000       -3.18768007210000        0.88663215920000
H           -1.21982032550000       -3.17678505510000       -0.90288069810000
H           -2.60531402170000       -2.54255916880000        0.00649952960000
H            1.32879827740000       -2.95942079410000       -0.01653446370000
25
 energy: -60.210473492907 gnorm: 16.690619634241 xtb: 6.6.1 (8d0f1dd)
C            3.21276640895004        1.13062450618228        0.01793517120689
N            2.00800594149098       -0.18989101558932       -0.07037392839620
C            2.53902222980593       -1.24535619127796       -0.00865066054592
N            1.39340579111267       -1.95221068215056       -0.00850367906453
C            0.35179550290133       -1.06783637982508        0.00064510641465
C            0.90171813526114        0.19840031865551        0.00631560579803
C            0.07607508382102        1.39865660910950       -0.00278126753872
O            0.48721708591026        2.53177752269248       -0.01730384653519
N           -1.27231485381357        1.06672268773422        0.00166758560339
C           -2.23227947781759        2.16653850019858       -0.00245595005704
C           -1.84864530695187       -0.19181131259409        0.00494881142382
O           -3.03279692939422       -0.36104083754522        0.00859359273830
N           -0.96631946367556       -1.30041915832887        0.00221906858717
C           -1.51983201448893       -2.63905666031508       -0.00070295339921
H            3.71458265760027        1.18572912980873        0.98790617173932
H            3.97063772366832        0.99379917793460       -0.75534160595290
H            2.68323694570577        2.07035377353751       -0.15066850766531
H            3.52488558843165       -1.66937059588073       -0.01520920970983
H           -1.67672834294625        3.10039290810406        0.00485226505792
H           -2.85757551887139        2.10546490040695       -0.89185994429377
H           -2.87121058939456        2.09857719417237        0.87661190542764
H           -1.20584105071050       -3.18771083168813        0.88664861687561
H           -0.94285028338388       -2.92178970355396       -0.83291258898114
H           -2.60532345670933       -2.54280404503170        0.00608519260417
H            1.32879970759828       -2.95950127315605       -0.01649333343716
25
 energy: -80.781199826829 gnorm: 24.574350060034 xtb: 6.6.1 (8d0f1dd)
C            3.20876202011656        1.12650145295012        0.01746445297130
N            1.74735402056875       -0.43115344711915       -0.14195809885639
C            2.53816236410027       -1.25291894121805       -0.00881907984439
N            1.39216368835923       -1.95493288753027       -0.00841247368289
C            0.34988595180628       -1.06908251121419        0.00079537552458
C            0.89248508381044        0.19754019225839        0.00626078310666
C            0.07605844197524        1.39891356125700       -0.00276693529578
O            0.48726060848216        2.53176962930990       -0.01732774944056
N           -1.27228724357695        1.06679781532341        0.00166860555440
C           -2.23227437277383        2.16653504621914       -0.00246105819465
C           -1.84857967115479       -0.19182339561652        0.00499819523243
O           -3.03280591327368       -0.36106949316608        0.00859373763715
N           -0.96675107126729       -1.29981483664618        0.00296971221112
C           -1.51930561274828       -2.63758321330311        0.00078626831476
H            3.71418276571824        1.18537618365112        0.98776261487219
H            3.97033493370585        0.99364243488875       -0.75524539779774
H            2.68316910850274        2.07008208753820       -0.15066469253176
H            3.52498641445336       -1.66885225790137       -0.01520948515446
H           -1.67674196690747        3.10039036961933        0.00484471479295
H           -2.85758595417658        2.10544918227264       -0.89186504328678
H           -2.87122060619565        2.09856672446802        0.87660757736637
H           -1.20583263510518       -3.18773924248124        0.88672022581370
H           -0.66440373606348       -2.66559290153036       -0.76266707794537
H           -2.60522986951145       -2.54311044138466        0.00553166951274
H            1.32864476525550       -2.95965256904484       -0.01643522297960
25
 energy: -109.428198158149 gnorm: 32.636663573715 xtb: 6.6.1 (8d0f1dd)
C            3.20639035839725        1.12408859926025        0.01715086955606
N            1.48743612499688       -0.67678128060519       -0.21470545805281
C            2.53944093590058       -1.25870298716844       -0.00868746745152
N            1.39066095719796       -1.95925187105325       -0.00807846697543
C            0.34703260504086       -1.07067001190970        0.00123516634958
C            0.88188423156539        0.20129192752275        0.00719133492384
C            0.07593387167415        1.39932694127554       -0.00275723550890
O            0.48726388131497        2.53175843509677       -0.01734305439419
N           -1.27233913063258        1.06682185181299        0.00165220960187
C           -2.23230574966540        2.16651104223084       -0.00248230658254
C           -1.84859077988280       -0.19171661070541        0.00508041519200
O           -3.03278931356377       -0.36118237233825        0.00856418543849
N           -0.96748186673267       -1.29893252684332        0.00380972346129
C           -1.51812373312888       -2.63667017603385        0.00129104109650
H            3.71384929186105        1.18515827691969        0.98766148048423
H            3.97009331384817        0.99358801284752       -0.75512807928261
H            2.68311153566750        2.06985482487434       -0.15063668713765
H            3.52513240095572       -1.66837157658357       -0.01522270866992
H           -1.67680010652799        3.10036170817500        0.00482976790850
H           -2.85761632179739        2.10539587361198       -0.89188941677886
H           -2.87126429490873        2.09851442769256        0.87658218195098
H           -1.20581139110850       -3.18777703910840        0.88678620149116
H           -0.38804043634575       -2.41079859992018       -0.69234065714396
H           -2.60508782296085       -2.54342243409478        0.00494472923112
H            1.32845295293481       -2.96015589335589       -0.01633615080723
25
 energy: -145.776848237210 gnorm: 40.043683627595 xtb: 6.6.1 (8d0f1dd)
C            3.20497281556893        1.12268241597759        0.01705780838483
N            1.22527777975042       -0.92492744535528       -0.28785428644815
C            2.54050612446467       -1.26128119199417       -0.00864312295545
N            1.38985524901017       -1.96448267756586       -0.00705822761100
C            0.34212654047673       -1.07288645555350        0.00227254956346
C            0.87607263935536        0.20726090747862        0.00856050437385
C            0.07603776190871        1.39926911330325       -0.00278706304468
O            0.48730860504311        2.53187762822082       -0.01737928599423
N           -1.27261422731738        1.06678062776284        0.00163991774043
C           -2.23234806840338        2.16648360981185       -0.00250359017044
C           -1.84860301026600       -0.19143772066378        0.00521472832624
O           -3.03281149916259       -0.36134516106052        0.00854334664582
N           -0.96834093637040       -1.29783787662653        0.00451997696871
C           -1.51686548123859       -2.63602720907038        0.00157602982117
H            3.71360040974719        1.18502367701806        0.98756424949236
H            3.96987756277667        0.99352391357386       -0.75505579335687
H            2.68302070898726        2.06966250483898       -0.15063235442194
H            3.52520112195500       -1.66796505420256       -0.01530012515441
H           -1.67685173178578        3.10032658218831        0.00480535937102
H           -2.85765115113667        2.10533889783474       -0.89191444507282
H           -2.87130559000515        2.09846959430426        0.87655900944774
H           -1.20578683169679       -3.18780153665480        0.88686907441669
H           -0.11360802100283       -2.15833447550894       -0.62305218686276
H           -2.60494365388128       -2.54366762058356        0.00447606858777
H            1.32830439732261       -2.96046650587329       -0.01630652414734
25
 energy: -189.450088926842 gnorm: 47.671882214409 xtb: 6.6.1 (8d0f1dd)
C            3.20367032085414        1.12136265660095        0.01716899509680
N            0.96769722503553       -1.16910284739367       -0.36605823575750
C            2.54092391080999       -1.26270724472353       -0.00852337331913
N            1.39169234215567       -1.97361477549047       -0.00429602707451
C            0.32386896351523       -1.07563191828849        0.00753288875276
C            0.87388990323849        0.21060597319082        0.00949821830332
C            0.07622072761702        1.39913412893703       -0.00279951256812
O            0.48730143797052        2.53191388912734       -0.01725489164696
N           -1.27292265894531        1.06674023657382        0.00161593126510
C           -2.23240322059119        2.16645835789757       -0.00249885358128
C           -1.84872127839985       -0.19103183881769        0.00532291706250
O           -3.03283538714452       -0.36149476239637        0.00835974742054
N           -0.96903133955447       -1.29712530758589        0.00499476589018
C           -1.51632858913333       -2.63568048895725        0.00181380994697
H            3.71333596860198        1.18485210681310        0.98768153689927
H            3.96970805215992        0.99348585564595       -0.75478896402712
H            2.68292240958602        2.06949961564745       -0.15041954305523
H            3.52526142494550       -1.66771407853830       -0.01546889821221
H           -1.67689311430472        3.10029349033291        0.00487009799721
H           -2.85764888111646        2.10533321384398       -0.89194831497553
H           -2.87137996040737        2.09839048585888        0.87652879522898
H           -1.20577541849804       -3.18787130065809        0.88670827022025
H            0.16455846169792       -1.90326588963280       -0.55439416980787
H           -2.60483739576847       -2.54386019391796        0.00394614624317
H            1.32815760977581       -2.96073082246930       -0.01641971840158
25
 energy: -239.015152846035 gnorm: 42.039431649339 xtb: 6.6.1 (8d0f1dd)
C            3.20245350504094        1.12054067686144        0.01785718066600
N            0.72551445595696       -1.41895766420034       -0.45872672214421
C            2.54186161950922       -1.26403280324780       -0.00794157830756
N            1.40081551362550       -1.98466795831061       -0.00058523403890
C            0.28133942357487       -1.06676758426230        0.03030742087598
C            0.87263019747579        0.21158175491209        0.01001281131155
C            0.07614007127200        1.39912495949303       -0.00271286481664
O            0.48698890365050        2.53190691026789       -0.01676349340009
N           -1.27329605417382        1.06651950853136        0.00153104456394
C           -2.23271395273477        2.16617679463365       -0.00258521509371
C           -1.84897987467694       -0.19089042876325        0.00507840943784
O           -3.03283054558303       -0.36191068499666        0.00769030745734
N           -0.97010625021455       -1.29710205273963        0.00516042358011
C           -1.51582600186822       -2.63552503643376        0.00156140304406
H            3.71280753471700        1.18497495204833        0.98846937814123
H            3.96954896680944        0.99396488585713       -0.75386053614601
H            2.68259991095272        2.06965330607016       -0.14960480632316
H            3.52567700014712       -1.66721158249433       -0.01503086429964
H           -1.67728614640416        3.10006323620789        0.00502968102267
H           -2.85775914142484        2.10510100032839       -0.89216657211544
H           -2.87181905093853        2.09788518390903        0.87631044188990
H           -1.20551692261315       -3.18819644614095        0.88597152600426
H            0.44431894124503       -1.64871962270461       -0.49014064898156
H           -2.60447981097557       -2.54431409653496        0.00285091146912
H            1.32834922173045       -2.96095866669117       -0.01654078589708
25
 energy: -241.882458329250 gnorm: 37.594058844479 xtb: 6.6.1 (8d0f1dd)
C            3.20357002726747        1.11985217178834        0.01301510894391
N            0.46706344410300       -1.66756676007131       -0.52038888713388
C            2.54134609820637       -1.26512832798103       -0.00932230261905
N            1.41657548349110       -1.99105821484205        0.00651824174281
C            0.24972606473920       -1.01168446558831        0.08509328289210
C            0.87309294005359        0.21254921997752        0.01013706853313
C            0.07678034421096        1.39917261090809       -0.00439078590188
O            0.48811219368495        2.53181564158431       -0.02024507962018
N           -1.27303267676431        1.06710056194054        0.00176146304753
C           -2.23174434221674        2.16718742038522       -0.00251386113002
C           -1.84942542542168       -0.18995652726345        0.00755277821842
O           -3.03315194923750       -0.36039016869956        0.01154778746439
N           -0.97476290995623       -1.29615161722388        0.00857782737473
C           -1.51705750658289       -2.63446958640027        0.00655945333537
H            3.71429857479841        1.18438343058904        0.98288763848955
H            3.96897516874859        0.99125817347425       -0.75945990130544
H            2.68323851948495        2.06819645581717       -0.15500114237831
H            3.52514283349863       -1.66882640843471       -0.01675754844341
H           -1.67589218551866        3.10085295030148        0.00338786174066
H           -2.85782646774588        2.10536358044566       -0.89132655648417
H           -2.86988467572426        2.10020297416625        0.87718203225634
H           -1.20575698608172       -3.18664960199694        0.89095429357906
H            0.71902965868552       -1.45209572491933       -0.48884292645983
H           -2.60547605891343       -2.54316789674715        0.00869282943521
H            1.32749134729057       -2.96255134960987       -0.01444705767703
25
 energy: -228.223358840480 gnorm: 386.391744197044 xtb: 6.6.1 (8d0f1dd)
C            3.20978428822476        1.12825921541896        0.01827698549810
N            0.60470882067189       -1.61336817675969       -0.56797344975971
C            2.54648749960210       -1.25747905289283       -0.00722286481180
N            1.44141448930109       -2.00542382205310        0.01503220908586
C            0.19066537461517       -0.95794502721209        0.14578090375049
C            0.88048972560184        0.21851338686595        0.01332590185636
C            0.07637976076042        1.39892287762824       -0.00293637974746
O            0.48678039530682        2.53208442219580       -0.01714180413802
N           -1.27413712565182        1.06619516812273        0.00140382245625
C           -2.23282248964589        2.16611068865970       -0.00266631607817
C           -1.85021454501003       -0.19017853257318        0.00564268746427
O           -3.03342486557890       -0.36175853536775        0.00777449329599
N           -0.98150118550031       -1.29557733420898        0.00787065774402
C           -1.51663206448693       -2.63675058459664        0.00057215782961
H            3.71252384846277        1.18485647774141        0.98809324166347
H            3.96906216635517        0.99353372938262       -0.75430338489430
H            2.68208002269381        2.06932553954477       -0.15002373626088
H            3.52594498116606       -1.66797604512505       -0.01446627890311
H           -1.67735553671690        3.10001379381886        0.00480301312139
H           -2.85789351474968        2.10491851190387       -0.89223677611393
H           -2.87184838085767        2.09790398533334        0.87626729407801
H           -1.20513729736736       -3.18825493828656        0.88609855549939
H            0.60974316518632       -1.55970039713976       -0.51851671900007
H           -2.60417026658657       -2.54429147670955        0.00341821324457
H            1.32950424830382       -2.96369533209109       -0.01570080898034
25
 energy: -242.602024560717 gnorm: 37.400190316401 xtb: 6.6.1 (8d0f1dd)
C            3.20776502111022        1.13500057166169        0.03293401610754
N            0.71503377308067       -1.64230448209355       -0.67151741414961
C            2.54902573670135       -1.25211435553468       -0.00239109659884
N            1.45013610300286       -2.00491684647425        0.01538880813240
C            0.18684560861579       -0.94480733457160        0.15451990028207
C            0.88042625975204        0.22072045921922        0.01737877449355
C            0.07351214203576        1.39882848764583        0.00160170814758
O            0.48151314126627        2.53292001225214       -0.00773674261193
N           -1.27661057954807        1.06329800972568        0.00012302573974
C           -2.23737624106528        2.16134784544634       -0.00383105027674
C           -1.85023679000834       -0.19403709064467       -0.00149976215855
O           -3.03303133517280       -0.36814017331260       -0.00410029394896
N           -0.98135642364230       -1.29737681490631        0.00095272315164
C           -1.51157434081967       -2.63998270124301       -0.01308875025454
H            3.70642827900344        1.18895834437914        1.00454444448781
H            3.96941337374509        1.00359608221869       -0.73754678414929
H            2.67816188443954        2.07489154448015       -0.13438528205030
H            3.52923692254832       -1.66110149745171       -0.00748592312183
H           -1.68381886900386        3.09635247368805        0.00848744018402
H           -2.85922710789480        2.10166586372660       -0.89577486258232
H           -2.87932521867297        2.08910055147154        0.87266554772378
H           -1.20188970865030       -3.19374606722969        0.87171266509844
H            0.51087663051755       -1.53832218324329       -0.43564968057597
H           -2.59917707933174       -2.54985421587534       -0.01380690935046
H            1.33568033209122       -2.96173794173437       -0.02032288381925
25
 energy: -232.113190176240 gnorm: 49.737450418298 xtb: 6.6.1 (8d0f1dd)
C            3.21383893945316        1.12677516006419        0.01101183632032
N            0.39262546958343       -1.72589439750482       -0.55959451867965
C            2.54699310228777       -1.25845114346549       -0.00928585930426
N            1.44786070254130       -2.01186986853965        0.02073164617740
C            0.18667185577713       -0.96210047168015        0.14377738592013
C            0.88328061042325        0.21948669917543        0.01211691375301
C            0.07855758312555        1.39910282779026       -0.00496490489660
O            0.49000914500674        2.53169322313042       -0.02177836074965
N           -1.27294007421241        1.06787177798585        0.00223340657742
C           -2.22994000324675        2.16913518946773       -0.00170407291615
C           -1.85090145533214       -0.18718944090660        0.00953059350684
O           -3.03402833323657       -0.35762259414417        0.01395048471148
N           -0.98669195268056       -1.29462754638626        0.01247188394806
C           -1.52017572349442       -2.63471670549846        0.00714668496655
H            3.71585313394272        1.18157347242047        0.97960116318165
H            3.96890557104477        0.98727390469131       -0.76305112382361
H            2.68436543182686        2.06566135161993       -0.15798139705711
H            3.52401763896683       -1.67251933740693       -0.01817730840420
H           -1.67324316717429        3.10234016412996        0.00335098623138
H           -2.85672677015672        2.10741603242856       -0.89003372812208
H           -2.86743809890237        2.10306305832033        0.87851654521625
H           -1.20736808302045       -3.18527612137849        0.89301377702399
H            0.80774875075693       -1.44544194033821       -0.52892356896316
H           -2.60722261622069       -2.54076372304943        0.01207933045340
H            1.32637985704094       -2.96668102932579       -0.01286617717145
25
 energy: -245.853338251526 gnorm: 19.353351264063 xtb: 6.6.1 (8d0f1dd)
C            3.21239512547976        1.13279313664419        0.02064216363214
N            0.55454086657387       -1.69003058993902       -0.61413839168203
C            2.54925777282980       -1.25395990284142       -0.00561854391089
N            1.46264020279352       -2.01474745230861        0.02529764561818
C            0.18091237107290       -0.94352027581544        0.15759169845525
C            0.88320035275319        0.22196553254591        0.01552831668902
C            0.07636734604977        1.39918160214870       -0.00208904494938
O            0.48543821305016        2.53250027711690       -0.01609716794712
N           -1.27535009778992        1.06532910807809        0.00112584596924
C           -2.23380492648846        2.16504495204627       -0.00293611406826
C           -1.85146317555101       -0.19012092978725        0.00483602873475
O           -3.03395478732193       -0.36298020988617        0.00601753588214
N           -0.99099239939506       -1.29624270866055        0.00927753983492
C           -1.51607340444911       -2.63686560332475       -0.00103226013591
H            3.71109944117483        1.18564925030826        0.99032767755470
H            3.96853359206642        0.99508970233017       -0.75207172323194
H            2.68075222244938        2.07011902731073       -0.14796819638071
H            3.52700209009568       -1.66665574931162       -0.01298705557067
H           -1.67874978932229        3.09922508175743        0.00516402201605
H           -2.85844776911745        2.10393940061924       -0.89285981882035
H           -2.87327325361603        2.09623473587333        0.87566985111609
H           -1.20389495410218       -3.18934767928646        0.88385257960034
H            0.65500383839114       -1.49243388431808       -0.50241547075783
H           -2.60291542959080       -2.54559047163384        0.00086907346129
H            1.33220806606382       -2.96633780806603       -0.01481457320901
25
 energy: -246.091248535180 gnorm: 18.999257916911 xtb: 6.6.1 (8d0f1dd)
C            3.23444304274226        1.15097290286759        0.03040489358001
N            0.56691277230836       -1.67193083597038       -0.73355672682535
C            2.56084227501795       -1.23669552874410       -0.00227911747244
N            1.52084303322987       -2.04542366195418        0.04600934175003
C            0.09241939746016       -0.87158562309772        0.23870847905719
C            0.90559249494985        0.23683267200343        0.02356920914229
C            0.07917241664651        1.39939269693304        0.00189149978710
O            0.48757352571875        2.53280020129461       -0.00931818793216
N           -1.27584087342941        1.06600592364316        0.00172360278079
C           -2.23147929469368        2.16749999948523       -0.00089165310053
C           -1.85507458830745       -0.18582767272332        0.00234608301581
O           -3.03624079053599       -0.35912485476133        0.00024791683820
N           -1.01651817523878       -1.29453047236555        0.00967578808020
C           -1.52117874025382       -2.63806694587742       -0.01363708258393
H            3.71046369857957        1.17883706063697        0.99915340186549
H            3.97004631370695        0.99187383317971       -0.74403786809379
H            2.68199427194133        2.06716423323940       -0.13886738798812
H            3.52592887850362       -1.67194297930833       -0.01049148040304
H           -1.67541411772712        3.10109628114612        0.01038257082260
H           -2.85488664818088        2.10925309832552       -0.89196160130793
H           -2.87239251462008        2.09717503146715        0.87660915434766
H           -1.20776511517798       -3.19049502649546        0.87313546623282
H            0.64305729837318       -1.59711129586489       -0.51134878369110
H           -2.60496688535227       -2.54245323634013       -0.00898856357661
H            1.33289983843910       -2.97547725911913       -0.01730733642520
25
 energy: -246.177266308264 gnorm: 19.170018343887 xtb: 6.6.1 (8d0f1dd)
C            3.23526267298147        1.16231454937529        0.02526286204197
N            0.68917128155268       -1.73472187629230       -0.72241673812750
C            2.56489276429716       -1.22988791214745       -0.00025638445116
N            1.58389408198430       -2.06464266047960        0.07100401024623
C            0.06499991852316       -0.80915395400072        0.29307798431138
C            0.90633020754576        0.24530880972737        0.02846158766905
C            0.07771384099773        1.40067490052014       -0.00064819580831
O            0.48066391678027        2.53475983476625       -0.01681423200713
N           -1.28054797791172        1.06191971089187       -0.00001639315583
C           -2.23690236421940        2.16177713959834       -0.00439415292046
C           -1.85981938429367       -0.18780629870259        0.00497585065707
O           -3.03871738714224       -0.36574104204493        0.00339604842923
N           -1.04786340804051       -1.29709551540093        0.02199011712995
C           -1.51636377607195       -2.63720942493622       -0.00258757484755
H            3.70685096804557        1.18836912046516        0.99276648357762
H            3.96528198141602        0.99766475607400       -0.75048402912627
H            2.67515242785523        2.07157942041782       -0.14667547647857
H            3.53140627408124       -1.66358400776136       -0.00773776376511
H           -1.68306477446939        3.09678964108830        0.00407012622935
H           -2.86107808938846        2.09981012878255       -0.89480119292708
H           -2.87696515726767        2.09213144427417        0.87390785202499
H           -1.19832294765750       -3.19212042308642        0.88057448582370
H            0.53198497920666       -1.57913820745564       -0.61232538752505
H           -2.59859181900168       -2.54972405485258       -0.00191315773734
H            1.34506328429692       -2.98403553722053       -0.00724511136319
25
 energy: -246.701790953201 gnorm: 8.070175417815 xtb: 6.6.1 (8d0f1dd)
C            3.24729142147921        1.16932579194717        0.02566006744280
N            0.61806439505149       -1.73968539304950       -0.74147636265052
C            2.57117021178769       -1.22214491696462       -0.00011453436890
N            1.58629588622284       -2.07087031968685        0.07051789267333
C            0.03903378560897       -0.80242029796613        0.30840272273102
C            0.91691639047814        0.24891746618434        0.03002058847180
C            0.07965051175850        1.40122306743890       -0.00029266931718
O            0.48370321662282        2.53464349274345       -0.01597592657374
N           -1.27941211421192        1.06380283209345        0.00075786025381
C           -2.23411354632426        2.16478272470140       -0.00285690959695
C           -1.86154207431257       -0.18433451537450        0.00544074237676
O           -3.04020413101399       -0.36138575076302        0.00416862219991
N           -1.05270025358493       -1.29736710364919        0.02176660831378
C           -1.52084452897468       -2.63747638329171       -0.00546205920920
H            3.70904141369024        1.18350215597580        0.99263301068813
H            3.96657991821958        0.99283385997461       -0.75163895845602
H            2.67743496520227        2.06856829714856       -0.14673194779060
H            3.52987066186012       -1.66859974210611       -0.00911053706247
H           -1.67901382324332        3.09907565086781        0.00579935459706
H           -2.85858190020700        2.10392565105127       -0.89308496655912