25
 energy: -43.833116110444 gnorm: 0.112429817666 xtb: 6.6.1 (8d0f1dd)
C            3.23305507365739        1.16941435229461        0.08548318148771
N            2.30997346685362        0.07857196267622        0.03866416523384
C            2.62298510722413       -1.22976447518419        0.03072252260799
N            1.44980211274789       -1.94149011602623        0.00122290768068
C            0.40097987472178       -1.06557906960591       -0.00826289995243
C            0.93090173878994        0.20644898855878        0.01431826377399
C            0.09405350563856        1.39483649930786       -0.00448068125571
O            0.49196268918087        2.55166315000189       -0.00331112584808
N           -1.25727421230947        1.05953788981428       -0.03094280141923
C           -2.22384748074265        2.15500465383722       -0.04994691855401
C           -1.82543173911995       -0.19897934272985       -0.04731053616881
O           -3.00816745023361       -0.37751971279720       -0.07031832770494
N           -0.93347124234002       -1.30150163121536       -0.03711886471158
C           -1.47676643116683       -2.64373940863519       -0.06041502418137
H            3.70802662099164        1.21055586525245        1.06816912257578
H            4.00234262813874        1.02964383115402       -0.67605438005823
H            2.69436468332526        2.09601560364931       -0.09148494872289
H            3.67935589202973       -1.62943001401292        0.04575500119914
H           -1.67422459733000        3.08985971233397       -0.02532464463265
H           -2.82922019685408        2.09750911862459       -0.95305915826419
H           -2.88133194461889        2.08062190190157        0.81444679755869
H           -1.17880858636200       -3.19384924706475        0.83219369161772
H           -1.15353331689135       -3.17323913801334       -0.95691451232417
H           -2.56395299467133       -2.55137517917403       -0.07476657891143
H            1.37013878801183       -2.95527758093348       -0.01117621145253
25
 energy: -43.837976412316 gnorm: 0.039910438893 xtb: 6.6.1 (8d0f1dd)
C            3.24291423033728        1.17788577288703        0.08735458431311
N            2.31379654113319        0.09433528014104        0.03609382276886
C            2.62129920248335       -1.24062271987445        0.03059928620869
N            1.43845870556200       -1.94510187819497        0.00125682723907
C            0.40611641806164       -1.06269843979994       -0.00870143060685
C            0.93062828908828        0.21676927531836        0.01294803899894
C            0.10378994047893        1.38770062998838       -0.00569739320994
O            0.49391006930379        2.55850706821696       -0.00467632789996
N           -1.26120609150181        1.04847864914260       -0.03123901723270
C           -2.22141223465887        2.14571121150334       -0.04971551088190
C           -1.82280754884379       -0.20207245432233       -0.04752322262131
O           -3.01865615847190       -0.38618660089416       -0.07048641699441
N           -0.93247311144069       -1.30154264883936       -0.03726654528631
C           -1.47453226094532       -2.64139691821828       -0.06027565748573
H            3.72204793244245        1.22337516357532        1.06985623115400
H            4.01168992881348        1.04404218071203       -0.67664045172248
H            2.69573936587529        2.10116738113189       -0.08797563356144
H            3.62531229802994       -1.64245553543739        0.04489724024606
H           -1.65912666557444        3.07581281204803       -0.02512611301762
H           -2.82746739368679        2.09378962158279       -0.95388758399852
H           -2.87954144082966        2.07701316889141        0.81593761230022
H           -1.17454675601579       -3.19395134813388        0.83198721419258
H           -1.14930483468917       -3.17359136402238       -0.95621746808143
H           -2.56046965131043       -2.54701844308651       -0.07470013988403
H            1.35775321503019       -2.95001125030120       -0.01071390536361
25
 energy: -43.838571825383 gnorm: 0.019980146957 xtb: 6.6.1 (8d0f1dd)
C            3.23857900557702        1.17336128781267        0.08569243705438
N            2.31282502796761        0.09778367471103        0.03368193395839
C            2.63759038562104       -1.24517837800159        0.03231550902703
N            1.44733941198435       -1.94905941743085        0.00203304286151
C            0.41445288936337       -1.07001382165106       -0.00768743470913
C            0.92772542393700        0.21637584937351        0.01384898876336
C            0.11225897244277        1.37937638779035       -0.00296153032946
O            0.49695742907755        2.55607054675522       -0.00098086235293
N           -1.26562359820835        1.04959258687730       -0.02991576586646
C           -2.22400977062474        2.15124880138593       -0.04983199422588
C           -1.81425527042557       -0.19781228784083       -0.04679312297034
O           -3.01515603761354       -0.38332183489946       -0.07091208480775
N           -0.93053962064024       -1.30292767219630       -0.03652614919904
C           -1.47908708170807       -2.63960539820930       -0.06051898343736
H            3.70846716495414        1.21166537702151        1.07241597591772
H            4.00538208233487        1.02719704796869       -0.67704716957603
H            2.68893237651523        2.09462067843618       -0.09520115394018
H            3.63618441977966       -1.61927338445345        0.04495405965635
H           -1.67512223036921        3.09125877368377       -0.02513582693727
H           -2.83174146142548        2.10005664703853       -0.95320370824131
H           -2.88545693513369        2.08339036549255        0.81354398745555
H           -1.18188570584928       -3.19589600054042        0.83140201195404
H           -1.15640524376444       -3.17453805928406       -0.95678101213166
H           -2.56463930042013       -2.54542729362240       -0.07499093258661
H            1.37913965529930       -2.95100586220323       -0.01131217576364
25
 energy: -43.838921709524 gnorm: 0.008406699121 xtb: 6.6.1 (8d0f1dd)
C            3.23964232219432        1.17215169995296        0.08775454693479
N            2.31015910081785        0.09662365059233        0.03423370195056
C            2.63291592667351       -1.24756456354144        0.03190530495018
N            1.43862718142910       -1.94581841809268        0.00157645444424
C            0.40906244199573       -1.06715472362693       -0.00830862157027
C            0.92415973958177        0.21869903776080        0.01346860326039
C            0.11013387481925        1.38066612023479       -0.00651435151418
O            0.48820219447255        2.55790120531994       -0.00664520462919
N           -1.26951376281866        1.04989947781988       -0.03208352181452
C           -2.22314561857707        2.15087920564845       -0.04998004376266
C           -1.81722391774977       -0.19631926464064       -0.04758022828253
O           -3.01670874780452       -0.38251971004864       -0.07031373565194
N           -0.93505273327367       -1.30085499610703       -0.03716013619064
C           -1.47565873401448       -2.64043303119237       -0.05998702388567
H            3.71699474690102        1.21228202371848        1.07036306783171
H            4.00577662920950        1.03544660908158       -0.67699042194513
H            2.69592152501927        2.09815104180780       -0.08560062843600
H            3.63811853169683       -1.62881514048964        0.04408743927136
H           -1.66448418264206        3.08450420970545       -0.02583840459115
H           -2.83001167906959        2.09820625394332       -0.95368207201855
H           -2.88014882502399        2.08127337796971        0.81648509618866
H           -1.17314510715728       -3.19313382209142        0.83245075894007
H           -1.14808867738197       -3.17338610621491       -0.95575335344270
H           -2.56169357244164       -2.55377747768068       -0.07435149824277
H            1.36707333181518       -2.94896804581479       -0.01144768822077
25
 energy: -43.838867563415 gnorm: 0.007441344707 xtb: 6.6.1 (8d0f1dd)
C            3.23992935088155        1.17469768207495        0.08466185372026
N            2.31182670135692        0.09554929531736        0.03452177854859
C            2.63197215185614       -1.24778501038727        0.03384639220979
N            1.43853060180683       -1.94515904583081        0.00248610842759
C            0.40977812963899       -1.06804088919021       -0.00779748241493
C            0.92598670839095        0.21798560600047        0.01498669348694
C            0.11390688880129        1.38113904738748       -0.00180320415493
O            0.49070327035141        2.55716774091651        0.00112426204441
N           -1.26741772145399        1.04929575236471       -0.02948747448220
C           -2.22278585685708        2.14683361393639       -0.04947878095263
C           -1.81483591979371       -0.19742671911634       -0.04696597008976
O           -3.01298631007046       -0.38555737588170       -0.07116769537487
N           -0.93360500119184       -1.30133917505539       -0.03701715568826
C           -1.47890088836975       -2.63881817828910       -0.06141590166760
H            3.71514647743049        1.22635021566506        1.06809029668733
H            4.01042152126151        1.03958304152862       -0.67643905836069
H            2.69423927668665        2.09855216230720       -0.09681581555070
H            3.63903293442278       -1.63467601416762        0.04626292461237
H           -1.66468118671770        3.07979507788654       -0.02352034668665
H           -2.82660695235808        2.09270436776486       -0.95493513068698
H           -2.88278206656265        2.07547947742951        0.81441562136544
H           -1.18208458517765       -3.19474038788168        0.83078662361488
H           -1.15635928018485       -3.17272198486981       -0.95826221884494
H           -2.56408265949390       -2.54092107335731       -0.07595002083452
H            1.36756640401733       -2.95000861253812       -0.01003825935461
25
 energy: -43.838988620280 gnorm: 0.002911330398 xtb: 6.6.1 (8d0f1dd)
C            3.23971848861191        1.17303766010622        0.08758110310722
N            2.31106663179386        0.09594748909015        0.03387168148216
C            2.63131282651784       -1.24683093040470        0.03149885953860
N            1.43898572158548       -1.94496491410015        0.00058035975168
C            0.40977079400357       -1.06813681748231       -0.00887476111437
C            0.92530596359346        0.21845648786942        0.01322340791337
C            0.11401883875194        1.38166377629488       -0.00526720051569
O            0.49115999089054        2.55766795813550       -0.00413164941149
N           -1.26849921082092        1.05027805234181       -0.03127061916623
C           -2.22344672864322        2.14945247087577       -0.05002073337535
C           -1.81561868272830       -0.19703564865902       -0.04707193260323
O           -3.01422253221537       -0.38533560976994       -0.07005170109905
N           -0.93374405169621       -1.30141037324696       -0.03701516438634
C           -1.47644332358593       -2.64023604268809       -0.05978274288758
H            3.71466042905051        1.21654987470464        1.07167896270198
H            4.00837172103831        1.03646752665865       -0.67530363113101
H            2.69401509478334        2.09787674707464       -0.08959637162764
H            3.63672211334913       -1.63129209836002        0.04361599266274
H           -1.66689419040676        3.08357558556913       -0.02591368801381
H           -2.83055372889087        2.09719042949976       -0.95341916214966
H           -2.88233739710517        2.08095265386790        0.81497452665311
H           -1.17702948230689       -3.19454677917034        0.83252974718047
H           -1.15214590463735       -3.17436131174151       -0.95583656619031
H           -2.56204864084139       -2.54717229192219       -0.07394235086800
H            1.36978724857965       -2.94985528052892       -0.01196832687830
25
 energy: -43.838968581273 gnorm: 0.003354287679 xtb: 6.6.1 (8d0f1dd)
C            3.23964948334322        1.17268460942183        0.08500464287320
N            2.31074775039685        0.09619215560584        0.03479806561898
C            2.63141790109793       -1.24644562897790        0.03427508402584
N            1.43901491018554       -1.94474169164117        0.00398153088972
C            0.40930041863672       -1.06838086936555       -0.00687819779224
C            0.92453216176692        0.21863445987284        0.01519377257416
C            0.11378032437305        1.38128214715511       -0.00380581676641
O            0.48920836501739        2.55788364997843       -0.00292797089348
N           -1.26959084428218        1.04983986929553       -0.03075114879763
C           -2.22271124998199        2.14997710733976       -0.04927983737073
C           -1.81691044491124       -0.19672413953772       -0.04762388895274
O           -3.01592070279998       -0.38420045398118       -0.07196387625012
N           -0.93475623643898       -1.30130157595770       -0.03687009077155
C           -1.47653666489453       -2.64044314069576       -0.06172297304664
H            3.71758645828094        1.21546630033949        1.06754998623836
H            4.00525705379545        1.03391592097593       -0.68043311142542
H            2.69438278272054        2.09787735178754       -0.09107327597745
H            3.63687412805055       -1.62858611850443        0.04690900639093
H           -1.66510742906626        3.08380724281195       -0.02365356682277
H           -2.82863612598777        2.09862256975858       -0.95367874944783
H           -2.88166771042228        2.08045721255609        0.81570900415938
H           -1.17626081318431       -3.19449681726655        0.83037318898081
H           -1.14946041239102       -3.17258999351291       -0.95791306556161
H           -2.56258097820583       -2.55132361426053       -0.07711307927493
H            1.37029986357243       -2.94946793918321       -0.00801759302655
25
 energy: -43.838996898236 gnorm: 0.001296152397 xtb: 6.6.1 (8d0f1dd)
C            3.23971764606625        1.17302337249924        0.08696273994400
N            2.31134723941224        0.09584317698357        0.03418337155103
C            2.63176202318497       -1.24679894075773        0.03230535736972
N            1.43927272738287       -1.94482880396478        0.00124417656571
C            0.40967087782315       -1.06855266346754       -0.00835693377649
C            0.92502382192676        0.21848081833283        0.01386418402443
C            0.11450568057452        1.38125166907927       -0.00476039494761
O            0.48958673646872        2.55780869369451       -0.00375931600932
N           -1.26923087444342        1.04972695108862       -0.03112812582534
C           -2.22285732242969        2.14918983064611       -0.04995227973151
C           -1.81641619041690       -0.19674222127019       -0.04723568052811
O           -3.01528675735975       -0.38439278736361       -0.07045989963359
N           -0.93437639139403       -1.30123764899336       -0.03700796517932
C           -1.47722203464875       -2.63991975255743       -0.06019917807631
H            3.71533272136323        1.21645416679604        1.07058083736372
H            4.00758083204392        1.03597740455529       -0.67646899037670
H            2.69437761191030        2.09800344651798       -0.08988083517797
H            3.63752524991601       -1.62969506849930        0.04447396376325
H           -1.66574500715239        3.08327737837187       -0.02527797995768
H           -2.82909697215759        2.09655924787797       -0.95408162596375
H           -2.88151530749763        2.07970367192903        0.81529121272500
H           -1.17700542811127       -3.19364230798578        0.83213122537423
H           -1.15215097814842       -3.17328344343723       -0.95637842664543
H           -2.56309268571796       -2.54863760044621       -0.07436129002200
H            1.37020477007604       -2.94962997561485       -0.01164010725668
25
 energy: -43.838988295812 gnorm: 0.002110116929 xtb: 6.6.1 (8d0f1dd)
C            3.23976334677295        1.17280673212854        0.08663219419416
N            2.31157745086950        0.09516282577014        0.03388874363507
C            2.63102592477408       -1.24742144093192        0.03232268774154
N            1.43881354518099       -1.94496233338167        0.00205265877250
C            0.40978335256513       -1.06841827269677       -0.00830274845237
C            0.92519895953703        0.21860327367936        0.01349865894302
C            0.11517061565199        1.38187185967493       -0.00504039835830
O            0.49066826904941        2.55803594094600       -0.00380809153040
N           -1.26924692466275        1.05041770281439       -0.03109932954439
C           -2.22382294206163        2.14976691883950       -0.04947590329090
C           -1.81574226323246       -0.19671642117058       -0.04724602098429
O           -3.01415611024401       -0.38540603089304       -0.07050836508049
N           -0.93361584696871       -1.30120808273106       -0.03702442463973
C           -1.47560858952425       -2.64040493189214       -0.06063796064757
H            3.71491055397736        1.21740753070404        1.07050033786685
H            4.00831189644266        1.03618186210578       -0.67625194226611
H            2.69394399497758        2.09738341366176       -0.09107033357489
H            3.63662224628539       -1.63237778930714        0.04440823378636
H           -1.66759111144722        3.08418537502345       -0.02536605011643
H           -2.83152749699164        2.09814950448906       -0.95263100883359
H           -2.88290219920969        2.08169987330001        0.81554307202787
H           -1.17691913230894       -3.19529470346183        0.83158412162551
H           -1.15052146155637       -3.17431895837559       -0.95655934504543
H           -2.56114385717938       -2.54727418357395       -0.07573519805108
H            1.36891976797414       -2.94993105070695       -0.00958554860365
25
 energy: -43.838997636339 gnorm: 0.000854495426 xtb: 6.6.1 (8d0f1dd)
C            3.23965448583317        1.17299102146085        0.08672590881657
N            2.31145077183510        0.09548636338925        0.03413022236561
C            2.63121318602617       -1.24696059784168        0.03232308262918
N            1.43911536056049       -1.94481235932383        0.00163064275190
C            0.40969994061657       -1.06855250255888       -0.00824499568667
C            0.92499308150071        0.21859388997857        0.01387988258747
C            0.11507898062070        1.38164217854489       -0.00460300225505
O            0.49018919054264        2.55796786194119       -0.00344348195535
N           -1.26932002492510        1.05002891664698       -0.03102440109926
C           -2.22327305480936        2.14953001640590       -0.04982637584786
C           -1.81605381538065       -0.19680514250819       -0.04722629345624
O           -3.01459684190478       -0.38518621120056       -0.07066200839578
N           -0.93392271310697       -1.30132694143250       -0.03694324248139
C           -1.47634914323865       -2.64032146969003       -0.06037106013645
H            3.71548667903915        1.21675135528021        1.07028228526242
H            4.00750731930265        1.03612558629025       -0.67680252944273
H            2.69401599008574        2.09780055330348       -0.09021404215793
H            3.63692841507182       -1.63095019955982        0.04451250659726
H           -1.66644312953878        3.08366599183333       -0.02522510324415
H           -2.83007238370420        2.09773986139279       -0.95360312321033
H           -2.88248833980277        2.08099228672206        0.81505995989650
H           -1.17700018625352       -3.19480306319579        0.83184256795135
H           -1.15145256962826       -3.17401492928086       -0.95645888473830
H           -2.56203124856043       -2.54791661460538       -0.07493097020567
H            1.36958203848972       -2.94972723797791       -0.01071950497181
25
 energy: -43.827554072416 gnorm: 0.099626378271 xtb: 6.6.1 (8d0f1dd)
C            3.22840623675226        1.16769419569979        0.08581600058106
N            2.31943068642310        0.07816019379831        0.03646628562528
C            2.66575638755111       -1.24507362858495        0.03147403221753
N            1.46190001601125       -1.94770572210645        0.00156634590090
C            0.41081362309578       -1.07329931495124       -0.00850680904163
C            0.92862997835870        0.19839154316928        0.01265761518856
C            0.09392715181537        1.38462101153470       -0.00472608454473
O            0.48510899407317        2.55340925891320       -0.00319037585202
N           -1.26383809301547        1.05656685958266       -0.03102859176270
C           -2.22860017601500        2.15484153078688       -0.04987632930891
C           -1.83311006529078       -0.19733530869443       -0.04779347815930
O           -3.01649232645278       -0.37671380257213       -0.07058163362772
N           -0.94101652156085       -1.30046861161748       -0.03752102911246
C           -1.48370897027958       -2.64104460993657       -0.06053275194978
H            3.70279546438954        1.20644191149243        1.06967250369364
H            3.99625410515102        1.02585717265281       -0.67811625815926
H            2.68967507983289        2.09425813511250       -0.09163964803172
H            3.79082854152815       -1.61658221484223        0.04929840937901
H           -1.67793966743596        3.08932386346587       -0.02506208294463
H           -2.83414273574416        2.10074165049231       -0.95292091766957
H           -2.88621645530948        2.08379620994568        0.81438293014458
H           -1.18700836378624       -3.19193783425590        0.83197155624906
H           -1.16147355212996       -3.17144143756142       -0.95694987476623
H           -2.57231168426216       -2.54604388247563       -0.07494222815278
H            1.35499824003959       -2.95940096971229       -0.00989010609888
25
 energy: -43.834481443236 gnorm: 0.035024383658 xtb: 6.6.1 (8d0f1dd)
C            3.24090314119411        1.17651747008980        0.08722150631905
N            2.31900602872869        0.09232567406213        0.03364275640804
C            2.64486395979098       -1.24763548664444        0.03123546007831
N            1.45089888601870       -1.95107613175468        0.00172713546246
C            0.41597411188060       -1.07064536286727       -0.00887955585832
C            0.93178655470637        0.20998197383095        0.01162358346115
C            0.10586020882326        1.38005479897168       -0.00579816225581
O            0.48988383420422        2.55372644556217       -0.00436568627939
N           -1.26221931414733        1.04677704044584       -0.03122619010924
C           -2.22276908059756        2.14515677348306       -0.04960311545045
C           -1.82195511988479       -0.20299501037374       -0.04768755647358
O           -3.01732760350234       -0.38898575607079       -0.07065382561840
N           -0.93103505047155       -1.30249090094451       -0.03744332069425
C           -1.47817837061915       -2.64003699465147       -0.06037249936766
H            3.71956656591694        1.22213342566237        1.07046914099422
H            4.00999162171471        1.04401325694386       -0.67743648552441
H            2.69384487290317        2.09996785543134       -0.08810980502834
H            3.67632253583286       -1.62347866023400        0.04702531541364
H           -1.66210319703044        3.07626900150398       -0.02489165963088
H           -2.82947270840826        2.09465503212878       -0.95348952736658
H           -2.88155686700300        2.07772773088721        0.81567999986195
H           -1.18187882160194       -3.19401443436176        0.83206200807610
H           -1.15644384179218       -3.17374951774875       -0.95654378202669
H           -2.56473326422963       -2.54206044763577       -0.07484334762689
H            1.35343681131307       -2.95508157638028       -0.00931490696675
25
 energy: -43.835112634606 gnorm: 0.017845306182 xtb: 6.6.1 (8d0f1dd)
C            3.23736973267451        1.17080561809263        0.08599137632526
N            2.32124677498403        0.08817967776905        0.03210198855956
C            2.66541306800233       -1.25253962851418        0.03288016147437
N            1.46486976620584       -1.95402801750708        0.00242784231921
C            0.42405532968179       -1.07768415754290       -0.00822779008258
C            0.93377192066307        0.20755894336670        0.01236510878586
C            0.11138967862679        1.37347788072058       -0.00403093268470
O            0.49103036991001        2.54959072256774       -0.00174009398446
N           -1.26675171920841        1.04817985875810       -0.03040852291761
C           -2.22709778126027        2.14992489967579       -0.04971983881002
C           -1.81704748548094       -0.19977167913849       -0.04727624407252
O           -3.01672048556591       -0.38528226724735       -0.07098209484785
N           -0.92760794761457       -1.30309946749796       -0.03694021953630
C           -1.48514587337667       -2.63664591120284       -0.06060540123003
H            3.70705400903137        1.21013433096305        1.07303366734394
H            4.00269578788469        1.02873470382717       -0.67907558120067
H            2.68362021735714        2.09029709204478       -0.09331184225393
H            3.69538272909917       -1.59669155630263        0.04770567770203
H           -1.67623897926601        3.08801132558594       -0.02490079991713
H           -2.83619749858571        2.10169246528416       -0.95263356495829
H           -2.88935068633059        2.08481491475941        0.81357707418144
H           -1.19121167351434       -3.19308266739548        0.83166424712189
H           -1.16558171059308       -3.17211881387712       -0.95704815173418
H           -2.57145091990716       -2.53748754630853       -0.07507745098783
H            1.37516927032247       -2.95591452154484       -0.00974113479819
25
 energy: -43.835433236366 gnorm: 0.008104685538 xtb: 6.6.1 (8d0f1dd)
C            3.23786940587990        1.17063631766564        0.08741519708388
N            2.31925171152489        0.08771002903833        0.03221455923296
C            2.66503661780215       -1.25684869639316        0.03248324731549
N            1.45638092024800       -1.95032665666447        0.00213614592549
C            0.41853739784387       -1.07383894147125       -0.00855688067958
C            0.93029506349623        0.21144257837646        0.01220764301420
C            0.10959603684651        1.37535847771468       -0.00620492484013
O            0.48265665445744        2.55387363067050       -0.00540059054278
N           -1.27193066708760        1.04873687952645       -0.03175185726185
C           -2.22661687013295        2.15097134453556       -0.04988604938785
C           -1.82105655253277       -0.19729203051569       -0.04772117328014
O           -3.02089834545478       -0.38251626165039       -0.07056958569365
N           -0.93274516236004       -1.30085617887958       -0.03723406624001
C           -1.48060214952968       -2.63859840012131       -0.06019186379398
H            3.71173847203945        1.21010340729093        1.07177204322622
H            4.00228906637826        1.03273587036368       -0.67841137195841
H            2.69081156013629        2.09500725333819       -0.08736941938419
H            3.70164106528501       -1.61212256583346        0.04654810592528
H           -1.66852102967194        3.08467519464495       -0.02543574478100
H           -2.83416827819683        2.10094235218766       -0.95359315481496
H           -2.88510196055582        2.08402649693818        0.81597192753024
H           -1.17978560172562       -3.19220450629422        0.83193783583383
H           -1.15445343648778       -3.17221446034533       -0.95577883526668
H           -2.56743008952617       -2.55027663930443       -0.07463004497739
H            1.35987206506349       -2.95206829548220       -0.00992366238772
25
 energy: -43.835418478447 gnorm: 0.007048914024 xtb: 6.6.1 (8d0f1dd)
C            3.23770449813781        1.17481730904598        0.08550949864995
N            2.31944028621198        0.08922609038340        0.03240896507226
C            2.66399791769164       -1.25580994127646        0.03376806265731
N            1.45598382444093       -1.95050525911544        0.00255037120768
C            0.41907434763932       -1.07558037734151       -0.00835853468765
C            0.93081743876762        0.21077518504959        0.01316825144525
C            0.11377059793361        1.37465461921296       -0.00357479012638
O            0.48610630252817        2.55297867170669       -0.00105271001217
N           -1.26942355911482        1.04663198883527       -0.03034126623765
C           -2.22458407218576        2.14619338126689       -0.04945216216055
C           -1.81742360456380       -0.19923161217305       -0.04748795226559
O           -3.01622608904194       -0.38657649517450       -0.07117092381231
N           -0.93127865514002       -1.30273374486826       -0.03729307982614
C           -1.48523922048885       -2.63752726162111       -0.06116080445587
H            3.71199904884181        1.22206608956434        1.06945763154015
H            4.00536746087860        1.03969400070979       -0.67791227473006
H            2.69001793171166        2.09815092973935       -0.09340613900613
H            3.70118286601692       -1.61481434178089        0.04870675148361
H           -1.66708125850644        3.07963362805653       -0.02387895241136
H           -2.83003424905544        2.09418551190542       -0.95418677562172