25
 energy: -42.178300126563 gnorm: 0.007910806835 xtb: 6.6.1 (8d0f1dd)
C            3.76813398410860        0.58570416033754        0.12097695874919
N            2.69304532538258       -0.19084356927830        0.03919296468696
C            2.69430856498758       -1.54362004590250       -0.01704954388719
N            1.40569815614682       -2.01686706519987       -0.05833837119238
C            0.57185281382994       -0.96861658623470       -0.03497205796137
C            1.34799266559272        0.20854792990435        0.00844869142329
C            0.66806087308804        1.43921460088724       -0.02118391573412
O            1.18720500290838        2.64841484582503       -0.07893681510698
N           -0.67419744537360        1.40252093250900        0.00179376388848
C           -3.39023842543139        1.52685878383409        0.08949067458404
C           -1.36371805242522        0.30353094993477        0.00709367250806
O           -2.67188132443777        0.29591363396797        0.05467796857064
N           -0.79085880207342       -0.95590502864113       -0.04450127700177
C           -1.55587177140183       -2.18476897437596       -0.09752373192226
H            3.68476373051421        1.64354049348600        0.25022948958067
H            4.73271522543145        0.12150816645735        0.14496295342727
H            2.14711779589300        2.66719468106171       -0.18126867140502
H            3.56697540898369       -2.15757544423639       -0.01466469332422
H           -2.72181666489908        2.38263367202050        0.07180082732771
H           -4.04684044694042        1.54498269407526       -0.77834858014920
H           -3.98332542181525        1.53558821705982        1.00083330814589
H           -1.31705368746920       -2.81544227245891        0.76022642654008
H           -1.33911452227364       -2.72379930056587       -1.02156363023793
H           -2.61328088348039       -1.93731631608340       -0.07086465759444
H            1.16075941525467       -2.99316061678210       -0.09934013601492
