25
 energy: -42.145802762694 gnorm: 0.046355156465 xtb: 6.6.1 (8d0f1dd)
C            3.91678138589422        0.45130791751298        0.16420765025999
N            2.77659365855958       -0.23217085042875        0.06214948235383
C            2.66839860329817       -1.57724942941392       -0.02552048101980
N            1.34626898706934       -1.94204430577383       -0.08612776477625
C            0.60179792663900       -0.82607118864770       -0.04126065078682
C            1.46854430248761        0.27537321199155        0.02079608564844
C            0.91056525604879        1.56915589061164       -0.05093950887840
O            1.71834947126612        2.64583009324907       -0.15519238988251
N           -0.45365782071893        1.65476662755619       -0.02915194740762
C           -3.85214291991978        1.22104931752779        0.10931732961141
C           -1.26378443141057        0.62165589127059       -0.00082161053310
O           -2.57696032878796        0.49250392690139        0.06068545669511
N           -0.74618310838825       -0.69773097480906       -0.05330458006087
C           -1.54574613192829       -1.90840911129151       -0.07916709249373
H            3.93032024103570        1.47957806810669        0.46496882894165
H            4.83353000902126       -0.10140416523799        0.16455094839018
H            2.61231210679981        2.39422818950850       -0.42182864272440
H            3.48818110698330       -2.26034669611796       -0.03321745634098
H           -3.70226241020887        2.29972233788469        0.10602084491914
H           -4.40657741090641        0.90030031868783       -0.76826466329365
H           -4.33766493058122        0.89758503899567        1.02516413138442
H           -1.29151342388062       -2.53477518852169        0.77734537804470
H           -1.36107925423786       -2.45545615760177       -1.00511681027373
H           -2.59861510255114       -1.65476339969007       -0.02546439413187
H            1.02497573251732       -2.89439682066904       -0.14865652574500
25
 energy: -42.155466294845 gnorm: 0.027347550637 xtb: 6.6.1 (8d0f1dd)
C            3.91216169514232        0.45424633360687        0.16698688642863
N            2.77262461896083       -0.23005207915158        0.06294916403692
C            2.67381454523616       -1.57653652686964       -0.02600197830936
N            1.35538942254707       -1.95267522592758       -0.08562267284751
C            0.60386940885508       -0.84398181141553       -0.03942310782701
C            1.45797334869811        0.26699943122756        0.02325257812091
C            0.86654695533595        1.54818831071236       -0.04856737737408
O            1.59979885359625        2.65901754784392       -0.16234444391643
N           -0.48442113770243        1.62303404373745       -0.02539456328835
C           -3.77661604963270        1.26661957104854        0.10658700430116
C           -1.26674843787476        0.58368820829527        0.00244730737161
O           -2.56651416425049        0.46405648776143        0.06266752862060
N           -0.74372011618402       -0.72746155366924       -0.05210418044185
C           -1.54570385149725       -1.93299770894563       -0.08118758633187
H            3.92822550284832        1.47833767384730        0.47502634026967
H            4.82957244847976       -0.09940708619467        0.16408251760522
H            2.51157502076449        2.45265884894842       -0.42430819511595
H            3.49768491849676       -2.25460773029465       -0.03349914443063
H           -3.60734781393833        2.33969094856987        0.10224327394406
H           -4.35600190929581        0.95639861929151       -0.76276233149999
H           -4.28937720087630        0.95374890493499        1.01569882055052
H           -1.29430163665784       -2.55758922589531        0.77681724525784
H           -1.36082256676628       -2.47555979588059       -1.00917570078826
H           -2.59701875901254       -1.67093499097508       -0.02880733898107
H            1.03978841882797       -2.90664265300471       -0.14838842745464
25
 energy: -42.163319859714 gnorm: 0.022192786484 xtb: 6.6.1 (8d0f1dd)
C            3.89282129431575        0.47296846833378        0.16259863953755
N            2.76345529520542       -0.22563512426483        0.06365607264441
C            2.68299924529771       -1.57473284287516       -0.02266915687108
N            1.36945026997647       -1.96976273060460       -0.08325474075111
C            0.60526261639404       -0.87179140974025       -0.03691389620475
C            1.44210134987005        0.25293399368633        0.02515923289706
C            0.81613804163768        1.51778838132865       -0.04893759820074
O            1.46901677231586        2.66446248054189       -0.16268382099454
N           -0.52472271625473        1.57955723174153       -0.02462966186762
C           -3.68131045429531        1.32613542571893        0.10383877023311
C           -1.27745409946356        0.52630595634468        0.00334644367913
O           -2.56702591934993        0.41928777944164        0.06419671683844
N           -0.74376644648525       -0.77351044769323       -0.05124004212281
C           -1.54660363392714       -1.97582170626841       -0.08446246632989
H            3.89108710462878        1.50600753689827        0.44021602158189
H            4.81750686729652       -0.07145396079905        0.16517761099115
H            2.41205171796080        2.51127986316436       -0.37721712406520
H            3.51492709077881       -2.24284545214681       -0.03078191021427
H           -3.43942464824503        2.38527672745489        0.09659858919320
H           -4.30256471984427        1.05725747189856       -0.75880283723117
H           -4.23851997118583        1.05432308810403        1.00854658560405
H           -1.30054812429244       -2.60069485196328        0.77414181790884
H           -1.36126813702550       -2.51548348562909       -1.01334991122624
H           -2.59655530112944       -1.70697619104179       -0.03485291336113
H            1.06337801992088       -2.92663766002972       -0.14650880376808
25
 energy: -42.168748822619 gnorm: 0.027910036137 xtb: 6.6.1 (8d0f1dd)
C            3.87195532312240        0.49506438375635        0.15837546327896
N            2.75310147219649       -0.21844020218684        0.06123494049623
C            2.69230977921777       -1.56956255017304       -0.02119120856954
N            1.38402033880842       -1.98457930724089       -0.08038733173258
C            0.60426488486800       -0.89815276525422       -0.03541894551013
C            1.42510513989902        0.24201123427416        0.02476979226366
C            0.77329472915210        1.49398829670424       -0.04502668175702
O            1.36620841177068        2.66984791212403       -0.15799305261004
N           -0.56684438808489        1.53362856070199       -0.01755741198990
C           -3.60548626282931        1.38358985119882        0.10126587515922
C           -1.29688383396135        0.46410182656451        0.00678608746758
O           -2.58620245584122        0.37177741031396        0.06643640479385
N           -0.74823307400377       -0.82279687696368       -0.04970845251516
C           -1.54626707260468       -2.02773806125006       -0.08844947239136
H            3.85266189790420        1.53616011735148        0.40567799024492
H            4.80372151146543       -0.03682261149485        0.16744504757055
H            2.32521929785244        2.56658763237838       -0.34058889900937
H            3.53335934510883       -2.22632754320703       -0.02816692313836
H           -3.25032302370025        2.42070149277508        0.09045831966812
H           -4.25850314532222        1.17660061573609       -0.76162406121118
H           -4.19687535634386        1.17283729847891        1.00695017154132
H           -1.30414562570944       -2.65484073384182        0.76944677906883
H           -1.35836238518102       -2.56535606199572       -1.01787416517723
H           -2.59646021912881       -1.75855033020808       -0.04200827830310
H            1.08979622544540       -2.94549104694041       -0.14168036973802
25
 energy: -42.173131502409 gnorm: 0.024856510453 xtb: 6.6.1 (8d0f1dd)
C            3.84552746195373        0.52061018565867        0.15362574568637
N            2.73831071208881       -0.20926103932730        0.05706799303289
C            2.69812342025767       -1.56173671633847       -0.02024070848416
N            1.39573176511137       -1.99635578136233       -0.07628090475326
C            0.59887688304889       -0.92173202327111       -0.03482428593602
C            1.40428864735636        0.23323300306174        0.02177046858844
C            0.73584797746092        1.47471114279209       -0.03820963283847
O            1.28889147512752        2.66867676595913       -0.14249304792564
N           -0.60767969390214        1.48833931092228       -0.00690198038151
C           -3.53645780925380        1.43730857092824        0.09880059496440
C           -1.31943629724216        0.40414316344063        0.01017294835355
O           -2.61432776085747        0.33267172983679        0.06743905471661
N           -0.75744200901921       -0.87018007790363       -0.04806742349510
C           -1.54675943205117       -2.08184190687656       -0.09280823954095
H            3.80719460557879        1.56995997074485        0.36504183618334
H            4.78562809318383        0.00494063226099        0.16943016539513
H            2.24828103201795        2.60909312159450       -0.30925247877529
H            3.54904675314296       -2.20604122107351       -0.02485074668180
H           -3.06467510311723        2.43679826097219        0.08476743713130
H           -4.20197662679510        1.29955517785066       -0.76797198518359
H           -4.14240197737349        1.29502867110200        1.00743847421328
H           -1.30737929372410       -2.71242359408691        0.76366892425688
H           -1.35352891182127       -2.61872769508827       -1.02195234014630
H           -2.59840311703152       -1.81654591680090       -0.05055210803691
H            1.11515071996027       -2.96198519339439       -0.13364614244283
25
 energy: -42.176305661953 gnorm: 0.014213179183 xtb: 6.6.1 (8d0f1dd)
C            3.81585877957791        0.54597678378106        0.14589590847122
N            2.72070560879810       -0.20099821431829        0.05106765538366
C            2.69881507556513       -1.55404093173467       -0.01932571204379
N            1.40212688048473       -2.00524806336078       -0.07042506685618
C            0.58955997053921       -0.94127187651092       -0.03514294155536
C            1.38208488481464        0.22508947377008        0.01610021948455
C            0.70725649097212        1.46000889473043       -0.03255788429524
O            1.23954231493960        2.66270207944890       -0.12071150394703
N           -0.63930363407466        1.45000079434786        0.00012489453423
C           -3.47512443987370        1.47888713211084        0.09650556180544
C           -1.33868162322644        0.35659493958205        0.01090091307105
O           -2.64105278516626        0.31220047012556        0.06560959723450
N           -0.76986752665271       -0.90885670885554       -0.04676572641298
C           -1.54965549956480       -2.12834673673980       -0.09620382059704
H            3.75878615356905        1.60159937190785        0.32049323030785
H            4.76494235967507        0.04891360405921        0.16811536540880
H            2.19550134995696        2.64013131415520       -0.27043062856400
H            3.55887026300215       -2.18622572998111       -0.02078706683290
H           -2.91814184791445        2.42691423325345        0.08047183396568
H           -4.13636335284903        1.40568489001357       -0.77359527937394
H           -4.07660930669006        1.40100308901318        1.00777563057017
H           -1.31168608504877       -2.76188319441267        0.75917935608729
H           -1.34892491588199       -2.66608815447948       -1.02398025548821
H           -2.60342294807131       -1.86910819622764       -0.05909664314942
H            1.13521534721992       -2.97540072207691       -0.12204601930796
25
 energy: -42.177855794612 gnorm: 0.011885554385 xtb: 6.6.1 (8d0f1dd)
C            3.78734387386380        0.57036804836287        0.13346956075525
N            2.70401815500460       -0.19423350909204        0.04390312560530
C            2.69740341509584       -1.54743894167728       -0.01853198088193
N            1.40584103176904       -2.01303581998672       -0.06377274044028
C            0.57952160979390       -0.95909700109914       -0.03577369946108
C            1.36097940335789        0.21532110795074        0.01018302026683
C            0.68156139440233        1.44615806534973       -0.02875277256824
O            1.20114877296769        2.65555779154337       -0.09846373971213
N           -0.66390743882266        1.41729286035259        0.00050577140829
C           -3.42153013381473        1.50994674476921        0.09348564231216
C           -1.35445697958864        0.31880418506755        0.00872304470590
O           -2.66106590177905        0.29655675633267        0.06075450749569
N           -0.78201064017905       -0.94094716439140       -0.04593441687863
C           -1.55306724640299       -2.16591843195872       -0.09754955417073
H            3.71408599394634        1.62762963090801        0.28074898760991
H            4.74563628426027        0.09237960762568        0.15889587344556
H            2.16225695786592        2.66469524946031       -0.21936822606498
H            3.56552702664992       -2.16827690398363       -0.01715513256209
H           -2.78633035324820        2.40561997483958        0.07599517559823
H           -4.08495249296261        1.49740624416989       -0.77635773073505
H           -4.02308021576696        1.49109723410102        1.00585376238453
H           -1.31437770730794       -2.79831582719575        0.75879214175626
H           -1.34346462159269       -2.70400611078532       -1.02362258032126
H           -2.60878961339287       -1.91224187873184       -0.06589059635107
H            1.15214093998130       -2.98708337032990       -0.10896582529598
25
 energy: -42.178300125358 gnorm: 0.007911840502 xtb: 6.6.1 (8d0f1dd)
C            3.76813398410860        0.58570416033754        0.12097695874919
N            2.69304532538258       -0.19084356927830        0.03919296468696
C            2.69430856498758       -1.54362004590250       -0.01704954388719
N            1.40569815614682       -2.01686706519987       -0.05833837119238
C            0.57185281382994       -0.96861658623470       -0.03497205796137
C            1.34799266559272        0.20854792990435        0.00844869142329
C            0.66806087308804        1.43921460088724       -0.02118391573412
O            1.18720500290838        2.64841484582503       -0.07893681510698
N           -0.67419744537360        1.40252093250900        0.00179376388848
C           -3.39023842543139        1.52685878383409        0.08949067458404
C           -1.36371805242522        0.30353094993477        0.00709367250806
O           -2.67188132443777        0.29591363396797        0.05467796857064
N           -0.79085880207342       -0.95590502864113       -0.04450127700177
C           -1.55587177140183       -2.18476897437596       -0.09752373192226
H            3.68476373051421        1.64354049348600        0.25022948958067
H            4.73271522543145        0.12150816645735        0.14496295342727
H            2.14711779589300        2.66719468106171       -0.18126867140502
H            3.56697540898369       -2.15757544423639       -0.01466469332422
H           -2.72181666489908        2.38263367202050        0.07180082732771
H           -4.04684044694042        1.54498269407526       -0.77834858014920
H           -3.98332542181525        1.53558821705982        1.00083330814589
H           -1.31705368746920       -2.81544227245891        0.76022642654008
H           -1.33911452227364       -2.72379930056587       -1.02156363023793
H           -2.61328088348039       -1.93731631608340       -0.07086465759444
H            1.16075941525467       -2.99316061678210       -0.09934013601492
