25
 energy: 0.000000000000 xtb: 6.6.1 (8d0f1dd)
C            3.23720163006194        1.16630919979326        0.08434469647475
N            2.29877817382611        0.07527477071623        0.03981603040599
C            2.58028210190900       -1.21425402444508        0.03006176031096
N            1.43813958087363       -1.93419271955128        0.00098261760884
C            0.39035688448383       -1.05887472636071       -0.00790371836672
C            0.93510056364412        0.21347819449412        0.01709077491437
C            0.09450143893243        1.40504303904423       -0.00410947031874
O            0.49712751527797        2.54126714362870       -0.00342325688240
N           -1.25076640035757        1.06271879480407       -0.03085478223738
C           -2.21907211982101        2.15522099834493       -0.05001256985998
C           -1.81739487048744       -0.20012725993278       -0.04692818574614
O           -2.99983886758376       -0.37846417018721       -0.07008878229737
N           -0.92618586207120       -1.30210215599479       -0.03682761578324
C           -1.46982264913417       -2.64643102187190       -0.06029820460571
H            3.71247264356769        1.21471455160235        1.06488849150277
H            4.00791497605742        1.03430808813993       -0.67357694370751
H            2.69910007168542        2.09770118228144       -0.09130154882931
H            3.56654120610678       -1.63682992603973        0.04233140067262
H           -1.67107961066214        3.09322851271934       -0.02552706933167
H           -2.82428953597071        2.09428624779827       -0.95318082946668
H           -2.87644029173232        2.07745725625962        0.81450067533302
H           -1.17061996399332       -3.19584890659852        0.83242232437030
H           -1.14560257411436       -3.17511610292205       -0.95688275822323
H           -2.55549792440841       -2.55659984320617       -0.07459039797972
H            1.38130855184625       -2.94313852034425       -0.01389874181052
25
 energy: -5.398484243618 xtb: 6.6.1 (8d0f1dd)
C            3.24392663968032        1.17744439561203        0.08675516310826
N            2.30803838165910        0.09553487803060        0.03771073180888
C            2.59949856482628       -1.23262030029548        0.03004777589989
N            1.42737382017069       -1.94019624699588        0.00080380182395
C            0.39634718310046       -1.05605178355450       -0.00827685826450
C            0.93020524301215        0.22264224084551        0.01523766795089
C            0.10166407962622        1.39609671141008       -0.00526953918983
O            0.49830148877487        2.56195692384734       -0.00465481473775
N           -1.26036096406709        1.05071539542807       -0.03111171883608
C           -2.22055159973556        2.14687637510497       -0.04985002200445
C           -1.82365034289004       -0.20057940087773       -0.04730858202198
O           -3.02029113478911       -0.38296303565337       -0.07040824945134
N           -0.93419502201807       -1.30079542172380       -0.03705223103080
C           -1.47180149886403       -2.64286652794972       -0.06020136217957
H            3.72212393243501        1.22330277026930        1.06883470912562
H            4.01199419881267        1.04260460429281       -0.67623807279766
H            2.69719701831225        2.10210656032606       -0.08880017949059
H            3.57767749350114       -1.65899897162144        0.04268498144820
H           -1.65894143524530        3.07811753919210       -0.02535861622055
H           -2.82595189644608        2.09345289163179       -0.95425032642816
H           -2.87812761844946        2.07682468742631        0.81602031267008
H           -1.16827032525092       -3.19403580764811        0.83190500632954
H           -1.14323269604358       -3.17350572743804       -0.95598936807606
H           -2.55710862917623       -2.55212236442049       -0.07457192821752
H            1.36034978700052       -2.94391178306639       -0.01362438507120
25
 energy: -6.573620359914 xtb: 6.6.1 (8d0f1dd)
C            3.25126742267739        1.18446271850745        0.08934642366568
N            2.31513128977959        0.10703006043174        0.03401661943533
C            2.60930452502402       -1.24656210486585        0.03017648525955
N            1.41459979516058       -1.93875145866001        0.00108191225101
C            0.39958442217376       -1.05133381395177       -0.00904078420266
C            0.92691940380673        0.23085590622664        0.01235067944859
C            0.10753986933302        1.38437347698977       -0.00764531771287
O            0.48598556979256        2.56564328438558       -0.00778348323882
N           -1.27082764148130        1.03940994363705       -0.03181768800709
C           -2.22113059709092        2.13953784753566       -0.04962342118596
C           -1.82671403919351       -0.20207019058435       -0.04777056990755
O           -3.02755149392392       -0.39056273156167       -0.07048448347793
N           -0.94021901451918       -1.29722687777357       -0.03734299319361
C           -1.47186954664170       -2.63813413669291       -0.05996471603178
H            3.73690201211760        1.23375359409066        1.06985897295101
H            4.01860102242347        1.05870963319927       -0.67797566940730
H            2.69905447456161        2.10699199043016       -0.08134084517041
H            3.58045495858838       -1.68040181144085        0.04338945772608
H           -1.64103401337048        3.06020395195936       -0.02516943626402
H           -2.82766884186056        2.09409260416281       -0.95430510750498
H           -2.87912460753516        2.07763423864475        0.81716432758364
H           -1.16592372725071       -3.19083346300881        0.83160394410451
H           -1.14076625301429       -3.17081413011501       -0.95486465796243
H           -2.55719976937907       -2.54670641416917       -0.07448771629113
H            1.33689944775832       -2.94027351520490       -0.01233803671958
25
 energy: -6.643232832317 xtb: 6.6.1 (8d0f1dd)
C            3.25527953783576        1.18653640914383        0.09103460221726
N            2.31893213380988        0.10808718821246        0.03070932411101
C            2.60960140800899       -1.25301862453548        0.03011608987328
N            1.40849152976738       -1.93648762150800        0.00175224935781
C            0.39991333303632       -1.04878186940740       -0.00987094177462
C            0.92739933855863        0.23432659169727        0.00973439425151
C            0.10887811005525        1.38124555879683       -0.01063943159029
O            0.47259537326848        2.56615278916775       -0.01199861531031
N           -1.27693747700240        1.03498507230229       -0.03301932461554
C           -2.22112253399359        2.13735002130299       -0.04954047451469
C           -1.82853153169663       -0.20462531098360       -0.04831555635938
O           -3.02878635343142       -0.39845427288692       -0.07043886876266
N           -0.94126507651374       -1.29538270850905       -0.03762014452234
C           -1.46993290336544       -2.63631154776186       -0.05955144161654
H            3.74779249931134        1.23628829298381        1.06879986111859
H            4.02184926430263        1.07354002508103       -0.67977369079789
H            2.70128604726790        2.11033343494429       -0.07106756083395
H            3.57724013217381       -1.69415409652027        0.04396442932721
H           -1.62892353935411        3.05028906885457       -0.02532356674201
H           -2.82888149619944        2.09665804091641       -0.95363990477104
H           -2.87859569510067        2.08010259470525        0.81798675039961
H           -1.16379098595481       -3.18835215565059        0.83239829009067
H           -1.13841164337014       -3.16917974515523       -0.95423822850231
H           -2.55542590452209       -2.54425783812717       -0.07425287765651
H            1.32356110104432       -2.93786069489121       -0.01017146622956
25
 energy: -6.545983097109 xtb: 6.6.1 (8d0f1dd)
C            3.25998720510949        1.18799404110833        0.09437690296334
N            2.32447578642927        0.10646091529093        0.02443840872147
C            2.60704778196453       -1.26036640250782        0.02938335536431
N            1.40157651053154       -1.93310025013702        0.00325100296887
C            0.39918085492189       -1.04477602433634       -0.01172721824714
C            0.92984767183010        0.23865760945632        0.00430013304820
C            0.10961577717546        1.38036714210656       -0.01775751386874
O            0.45220770627390        2.56807226080177       -0.02195966498115
N           -1.28464088501589        1.03013958806264       -0.03627026729175
C           -2.22066933937463        2.13625139272510       -0.04960526692399
C           -1.83197246824067       -0.20908632717408       -0.04971728268478
O           -3.03051559567220       -0.41079124521925       -0.07018197803529
N           -0.94120064249527       -1.29325065459770       -0.03828444035411
C           -1.46499090837284       -2.63536268498594       -0.05836437625529
H            3.76539392073165        1.23037397341087        1.06660602088552
H            4.02225374051537        1.09962750379250       -0.68525055328440
H            2.70228759771417        2.11437532443261       -0.04655759379832
H            3.56933346582336       -1.71399923544208        0.04488784947029
H           -1.61278345583339        3.03877663644949       -0.02633103272029
H           -2.83141978021887        2.10321124081292       -0.95191251832012
H           -2.87611626518439        2.08609931650980        0.81983573392128
H           -1.15859331270815       -3.18475995095393        0.83487960314212
H           -1.13267241408501       -3.16796258681592       -0.95267423303900
H           -2.55077639136365       -2.54357292258111       -0.07349183352526
H            1.30535810748040       -2.93435005803660       -0.00483934100844
25
 energy: -6.046245101890 xtb: 6.6.1 (8d0f1dd)
C            3.26552255427222        1.18874728994659        0.10240136890022
N            2.33260327903542        0.10239199955610        0.01168460699845
C            2.60096665322569       -1.26970273219451        0.02629528265553
N            1.39167809416504       -1.92795883036670        0.00607186283886
C            0.39656342774970       -1.03733636941418       -0.01615362463120
C            0.93424103392063        0.24543661725087       -0.00787259387843
C            0.11037695155110        1.38162185359577       -0.03480878022566
O            0.42330448516681        2.57268858022132       -0.04586541290936
N           -1.29511448051830        1.02378867741572       -0.04472011309787
C           -2.21938659238952        2.13681835337092       -0.05022016251062
C           -1.83863188518361       -0.21556708814361       -0.05322135572798
O           -3.03448236758458       -0.42862519479688       -0.06929267309856
N           -0.94076531703635       -1.29022001341570       -0.04001380044166
C           -1.45423507402649       -2.63603816064794       -0.05509694452399
H            3.79864112530902        1.20246289581156        1.06248161538735
H            4.01306506301143        1.14951324543085       -0.69975414913160
H            2.69862539494801        2.11945763144874        0.01269892349891
H            3.55405765010723       -1.74442605833165        0.04638538024098
H           -1.59038124161263        3.02502136644572       -0.02992090434833
H           -2.83742547461551        2.11697955557260       -0.94789713477228
H           -2.86876422098455        2.09822073089786        0.82436993884284
H           -1.14575896059219       -3.17876751746996        0.84115461895245
H           -1.11864418484883       -3.16849563738468       -0.94788790511989
H           -2.54058280934953       -2.54848051860829       -0.07120573286855
H            1.27674156421586       -2.92850207401848        0.00742158511769
25
 energy: -0.402993048480 xtb: 6.6.1 (8d0f1dd)
C            3.28111390142847        1.18922045062151        0.13306339321001
N            2.35799810616681        0.08785930110501       -0.03459801539568
C            2.57911721658165       -1.29796431104760        0.01344466928069
N            1.35972565168936       -1.91118686187291        0.01527553630394
C            0.38637340022442       -1.01174568797945       -0.03296342899710
C            0.94858708730797        0.26765519551410       -0.05319538728716
C            0.11360941985165        1.38814450261702       -0.09847690778921
O            0.33466286760195        2.58866495737908       -0.13544227337411
N           -1.32767123518903        1.00511770621330       -0.07680873058097
C           -2.21498463418038        2.14130809289360       -0.05289434735037
C           -1.86152752085168       -0.23501392413133       -0.06612640342992
O           -3.04849775304450       -0.48384888681469       -0.06514891813956
N           -0.93964788414786       -1.28022363471928       -0.04669278961788
C           -1.41559761085798       -2.64031128167217       -0.04231833301593
H            3.91553378527017        1.08711837932658        1.04711787926181
H            3.96904172748585        1.32508429067730       -0.75264965219381
H            2.68124610228478        2.13342551733297        0.23475688459778
H            3.50133014835915       -1.84230978057697        0.05111614455080
H           -1.52234846913163        2.98564118943955       -0.04538422095996
H           -2.86051281542350        2.16444997233080       -0.93256304509094
H           -2.83992296316232        2.14008939866545        0.84173224604523
H           -1.09870340605435       -3.15760080632222        0.86552593828490
H           -1.06538478504471       -3.17356906501647       -0.92802226850087
H           -2.50398100508476       -2.57231893146410       -0.06317568405939
H            1.18265533585645       -2.90865718032696        0.05146161039494
25
 energy: -1.445058815430 xtb: 6.6.1 (8d0f1dd)
C            3.27865585014394        1.18576917648122        0.13743396809662
N            2.35600890221468        0.08658529791434       -0.03708028621057
C            2.57649952842180       -1.29391652853593        0.01323155516394
N            1.36110631339437       -1.91076412498501        0.01525203300546
C            0.38457455366600       -1.01029037341421       -0.03630777388277
C            0.94866742786648        0.26742075474978       -0.05961848071326
C            0.11457870912774        1.39206167570792       -0.10746717676914
O            0.34431101175588        2.58814299446319       -0.14911487571746
N           -1.32593595850128        1.00919436375592       -0.08071437704206
C           -2.21709786665042        2.14401795405867       -0.05031479605465
C           -1.86260096682618       -0.23250448686403       -0.06743631394270
O           -3.04910267976592       -0.48036199035920       -0.06292635792855
N           -0.93957718373332       -1.27975896365937       -0.04897622473167
C           -1.41194183460319       -2.64192532787366       -0.04175799133301
H            3.91212165791460        1.07754399267585        1.04359410150213
H            3.96127962060542        1.32088249338206       -0.73897089568159
H            2.68712496703673        2.12307595202197        0.24036983438136
H            3.49778240764925       -1.83686735466844        0.05048858784500
H           -1.53544406254972        2.99324883478714       -0.04517705365922
H           -2.86601237738075        2.16683304206430       -0.92643042862143
H           -2.83587351317102        2.13883866558147        0.84766516130619
H           -1.09309150855580       -3.15585417235305        0.86733230622286
H           -1.05835133172762       -3.17573641168461       -0.92585151173921
H           -2.50040083529507       -2.58003136635217       -0.06329510180556
H            1.18493383689938       -2.90657549472206        0.05310599445655
25
 energy: -0.782405421324 xtb: 6.6.1 (8d0f1dd)
C            3.27431985922655        1.16589239737607        0.17871412074996
N            2.35544062451441        0.07831579131690       -0.07656877673186
C            2.55617949841741       -1.28382110355024        0.00712985698285
N            1.35055610889334       -1.90100308023338        0.02104939397692
C            0.37073748648564       -0.99006634606640       -0.06441569335545
C            0.95204035859689        0.27742861349115       -0.11954330119522
C            0.12105260227844        1.41276587292689       -0.19201947618623
O            0.35807345441558        2.59725787180917       -0.28476776523069
N           -1.33104648225374        1.02008253226107       -0.12067532313850
C           -2.22570697965888        2.15845724050382       -0.03733884049292
C           -1.87896942770356       -0.22516654783355       -0.08169257282444
O           -3.06078122768137       -0.48108256484637       -0.04791007321179
N           -0.94286954497354       -1.27206302958247       -0.06696036502214
C           -1.37560080260117       -2.65088895802977       -0.03186618753481
H            3.95717098200387        0.95042644644734        1.01338416179447
H            3.88769788999439        1.39359388005227       -0.69609873014352
H            2.70554941080740        2.06726077150493        0.40671683765039
H            3.45968025911039       -1.84642996331614        0.04951542287415
H           -1.57015258487130        3.01690523464816       -0.05419001298748
H           -2.91123848624526        2.19927437872167       -0.88253560438151
H           -2.79608717629166        2.14625963488613        0.89153473274856
H           -1.03933287181904       -3.13212473061606        0.89047297826055
H           -0.99218204605831       -3.19054731158208       -0.90124496396021
H           -2.46494527024418       -2.63625466453165       -0.05989316905479
H            1.15262903359360       -2.88544376358532        0.08623724656100
25
 energy: 1.163836274290 xtb: 6.6.1 (8d0f1dd)
C            3.26630672957438        1.13724686775874        0.22944294783532
N            2.34632840507608        0.07817139159771       -0.12654428134250
C            2.54008587991927       -1.26213563218262        0.00610241385512
N            1.34064275230014       -1.89359096262340        0.02954841465177
C            0.35617170278720       -0.96995395528637       -0.09925447958145
C            0.94784529093657        0.28527529317793       -0.19296780762265
C            0.12566728536361        1.43267246803580       -0.29392668965238
O            0.40066525304183        2.60786150044185       -0.46803113410069
N           -1.32884108337461        1.03551457894601       -0.16951075712881
C           -2.23480661608545        2.17344453310946       -0.02094076516597
C           -1.89457490675931       -0.20759960887066       -0.09876438662136
O           -3.07477717275785       -0.46055822946958       -0.02887466630467
N           -0.95280427194384       -1.26482619309970       -0.09197670944663
C           -1.33983804830059       -2.65907284557043       -0.02029457339368
H            4.00592538774623        0.77624514225824        0.96090202112986
H            3.77974104725336        1.48480350529691       -0.64272551904281
H            2.72379286908408        1.97816292953262        0.63482747804230
H            3.43059756166275       -1.82783238363417        0.04807579968691
H           -1.62178341970902        3.05793019970819       -0.06914060380908
H           -2.96791894969001        2.22542585056580       -0.82477334606944
H           -2.74333009861855        2.14039376506738        0.94613738304543
H           -0.98097018137169       -3.10029689954147        0.91782390829822
H           -0.91599234426382       -3.20890125484667       -0.86867328016024
H           -2.42797040129021       -2.70668653429287       -0.05609361177936
H            1.13205199735515       -2.86266492390643        0.12666614082409
25
 energy: 6.744208278391 xtb: 6.6.1 (8d0f1dd)
C            3.25756021763647        1.10857752955387        0.28060938962172
N            2.34144443792619        0.07257088259437       -0.17993459583515
C            2.52021023925068       -1.24728554020408        0.00527248211878
N            1.33018408525321       -1.88481096561746        0.03543621599060
C            0.34155215715365       -0.95042013505465       -0.13393253374170
C            0.94746154371284        0.29307101797413       -0.26904346010197
C            0.13022801190362        1.45252565328046       -0.39942728809737
O            0.42982732382352        2.60990174806656       -0.63543288341252
N           -1.32896919063655        1.05116563181575       -0.21954107563323
C           -2.24046520811253        2.18968933971896       -0.00747715672942
C           -1.90922568027985       -0.19306720902671       -0.11764467892034
O           -3.08578798308847       -0.44589487957378       -0.01115437395446
N           -0.95917917852055       -1.25719933378448       -0.11607978427185
C           -1.30260137542272       -2.66688598323550       -0.00691876043915
H            4.06214725259145        0.60842239179829        0.89911026322533
H            3.66925915119474        1.61071389267357       -0.59786971461605
H            2.73897083765825        1.88642874956549        0.87988386080908
H            3.39783719554945       -1.82596502429129        0.04798609043368
H           -1.66389593191434        3.09200331799698       -0.08751274640109
H           -3.02215806544590        2.25018587042410       -0.76799140052418
H           -2.68725727798430        2.14234202348927        0.99557540573575
H           -0.92614085858730       -3.06790851440699        0.94719986140701
H           -0.84324485876730       -3.22576840422580       -0.83500386979916
H           -2.38879964606420       -2.77132701086378       -0.05039479088021
H            1.10325746910550       -2.84203644649495        0.17131944016318
25
 energy: 6.224966915017 xtb: 6.6.1 (8d0f1dd)
C            3.24508853730886        1.07204985497001        0.29734300803793
N            2.30985861754824        0.10816749120176       -0.21500576003411
C            2.53865291526371       -1.22528576468794        0.04538526333657
N            1.33124334158442       -1.89666690811997        0.02537980590732
C            0.34835986542046       -0.96736123940651       -0.14423280291134
C            0.91381260283895        0.27781891642730       -0.30412366334566
C            0.09470492529446        1.42972202843740       -0.43945431679258
O            0.50217492207272        2.56695668266374       -0.68397160926951
N           -1.29983052549031        1.07065524924940       -0.23777091163593
C           -2.22283907700831        2.18933718895171       -0.01062420864358
C           -1.88624049645877       -0.15727259505798       -0.13007057206868
O           -3.07593780043787       -0.35576467614940       -0.00764504557412
N           -0.97770100234967       -1.26448706527762       -0.13512352867672
C           -1.32151034493351       -2.65550043545741        0.00108794239623
H            4.05153035786749        0.52288959751470        0.75750522811316
H            3.55705289443884        1.78017581727694       -0.59302392331648
H            2.73971796459701        1.72570714987969        1.10382468224230
H            3.46233385882036       -1.74916440276659        0.05259246553247
H           -1.67922957314568        3.13457039084197       -0.11618232125994
H           -3.03612319065382        2.19102521815107       -0.73194309633834
H           -2.64207581384126        2.10684887494004        0.98928015222794
H           -0.94940176110600       -3.04522355598245        0.95465084558908
H           -0.85126714054312       -3.22314928463669       -0.80935865825514
H           -2.38946418428088       -2.78390481290168       -0.04093921178918
H            1.14930477512913       -2.86311511788913        0.19945413267558
25
 energy: 5.513793568734 xtb: 6.6.1 (8d0f1dd)
C            3.24064447137558        1.07859498419504        0.33680145979350
N            2.29079650058942        0.15218922471411       -0.22903302962629
C            2.53191277418251       -1.22749912153297        0.06662390241944
N            1.29435974303659       -1.88270847783213        0.00453820828341
C            0.34952753818045       -0.95964308358778       -0.16744565535414
C            0.88429384369249        0.29520310943566       -0.34865546744562
C            0.04220974268176        1.41598594367507       -0.51963171111323
O            0.43974747028378        2.57307250675256       -0.76969735517152
N           -1.31363116918814        1.07181374165035       -0.27230705187064
C           -2.22256175539874        2.19009713936706        0.00626837249070
C           -1.87928689902900       -0.15280772239624       -0.14594577792698
O           -3.07621508261685       -0.34329263802074        0.00694114744603
N           -0.99092021583406       -1.25668909206268       -0.16448066835199
C           -1.29978973631809       -2.65082882071799        0.00331880875890
H            4.06661673346242        0.50024993032069        0.71889086116438
H            3.55638419741522        1.74949488505803       -0.46363534633504
H            2.80935302319507        1.67745062443247        1.12476780819395
H            3.47233495768663       -1.75489220999581        0.03545084105359
H           -1.63632299639916        3.12240339115669       -0.10764371173435
H           -3.09199190681611        2.19935563190209       -0.67393803303748
H           -2.59721387645613        2.11251671597109        1.03420172139475
H           -0.90816006399782       -3.01571280816873        0.96374505136286
H           -0.80839741541170       -3.22528669473900       -0.79247877039205
H           -2.36402576711376       -2.81928156232796       -0.03870992578245
H            1.12255055673303       -2.86075699507653        0.21908821792753
25
 energy: 14.086258963670 xtb: 6.6.1 (8d0f1dd)
C            3.20467206650933        1.08724419019490        0.37937654574923
N            2.29275398340932        0.13948774585566       -0.26156829774291
C            2.51612412109103       -1.22228588389889        0.06328284755251
N            1.29635503410856       -1.87540181027818        0.00975215939397
C            0.34242700714978       -0.95911821762957       -0.20197163992282
C            0.89248783874477        0.29155537601894       -0.40083891341475
C            0.05549097708483        1.42179497803774       -0.61454144260793
O            0.41260226724411        2.57497493451118       -0.89507203597072
N           -1.31366696626650        1.07991226268996       -0.31882137680149
C           -2.21459829650409        2.19802524722408        0.01055386904287
C           -1.88177800584646       -0.15185208767740       -0.15978908786480
O           -3.07057451444314       -0.33820552651385        0.01801887224136
N           -0.98981823146160       -1.24550884150219       -0.19658445205526
C           -1.28583763249534       -2.64774798140764        0.01508065512134
H            4.16194198803284        0.36424429583783        0.65060064900199
H            3.45638437104459        1.84904000024614       -0.38273654926539
H            2.79176125169742        1.62768876867801        1.33026856193508
H            3.44884995338602       -1.74508339089795        0.00412225112174
H           -1.64201644263738        3.12371466207441       -0.13444311703838
H           -3.12866735638505        2.19866066294139       -0.62514757675971
H           -2.52889636787224        2.11527899041388        1.07806311692909
H           -0.89183123362343       -2.97094386226820        0.99882170654808
H           -0.77647245151033       -3.23868211885603       -0.76276735782344
H           -2.35606443609442       -2.84534440611752       -0.03307513660680
H            1.12058574357263       -2.84241938550425        0.25644964538440
25
 energy: 6.751577817170 xtb: 6.6.1 (8d0f1dd)
C            3.21281580105496        1.07269822337506        0.38987489779883
N            2.30708065103179        0.11529523294010       -0.24098628745917
C            2.50774821172231       -1.23971112775068        0.05237095945153
N            1.29578331868183       -1.87786459670408        0.00784215215078
C            0.34095897715502       -0.96373866006894       -0.21833678091015
C            0.90645931413476        0.28603138495928       -0.40124124323092
C            0.05606779961505        1.41390274535758       -0.64311509273228
O            0.36123926193663        2.57226343567004       -0.91629469788506
N           -1.32129874017506        1.07527040485184       -0.32801335426951
C           -2.20258707650125        2.20004246232596        0.01914727642403
C           -1.88444183119657       -0.16504099078116       -0.15938078747641
O           -3.06714031232320       -0.35437904742841        0.02692328975562
N           -0.98614011875361       -1.24010800686109       -0.21511098516303
C           -1.28576385002168       -2.64281030952997        0.01882398299718
H            4.10930077439213        0.44745973704572        0.69324052476135
H            3.50711726932230        1.86955388108627       -0.35593240130647
H            2.77023425719432        1.60129264996763        1.30701587995535
H            3.43211363272948       -1.76424267130021       -0.04135620701857
H           -1.61664076596701        3.10399901654200       -0.12642078094354
H           -3.10889052101220        2.21290673223533       -0.60545396567541
H           -2.50902816922357        2.12555920210928        1.08277310616450
H           -0.89435998460402       -2.94781982358966        1.01015871942825
H           -0.78071897388035       -3.24042784177235       -0.75393653581018
H           -2.35737832275750       -2.83373114691704       -0.02476842256747
H            1.11968406538069       -2.83737228359005        0.24921064970804
25