25
 energy: 0.000000000000 xtb: 6.6.1 (8d0f1dd)
C            3.23720163006194        1.16630919979326        0.08434469647475
N            2.29877817382611        0.07527477071623        0.03981603040599
C            2.58028210190900       -1.21425402444508        0.03006176031096
N            1.43813958087363       -1.93419271955128        0.00098261760884
C            0.39035688448383       -1.05887472636071       -0.00790371836672
C            0.93510056364412        0.21347819449412        0.01709077491437
C            0.09450143893243        1.40504303904423       -0.00410947031874
O            0.49712751527797        2.54126714362870       -0.00342325688240
N           -1.25076640035757        1.06271879480407       -0.03085478223738
C           -2.21907211982101        2.15522099834493       -0.05001256985998
C           -1.81739487048744       -0.20012725993278       -0.04692818574614
O           -2.99983886758376       -0.37846417018721       -0.07008878229737
N           -0.92618586207120       -1.30210215599479       -0.03682761578324
C           -1.46982264913417       -2.64643102187190       -0.06029820460571
H            3.71247264356769        1.21471455160235        1.06488849150277
H            4.00791497605742        1.03430808813993       -0.67357694370751
H            2.69910007168542        2.09770118228144       -0.09130154882931
H            3.56654120610678       -1.63682992603973        0.04233140067262
H           -1.67107961066214        3.09322851271934       -0.02552706933167
H           -2.82428953597071        2.09428624779827       -0.95318082946668
H           -2.87644029173232        2.07745725625962        0.81450067533302
H           -1.17061996399332       -3.19584890659852        0.83242232437030
H           -1.14560257411436       -3.17511610292205       -0.95688275822323
H           -2.55549792440841       -2.55659984320617       -0.07459039797972
H            1.38130855184625       -2.94313852034425       -0.01389874181052
25
 energy: -4.857392390515 xtb: 6.6.1 (8d0f1dd)
C            3.25179836257211        1.16807366817949        0.08992278144358
N            2.31253766251721        0.08924525108686        0.03850911494235
C            2.60538265760161       -1.23869731866482        0.02253685444474
N            1.43371509302467       -1.94632899578720       -0.00603934968091
C            0.40180450152943       -1.06119565155298       -0.00575912951687
C            0.93280707107671        0.21816137147095        0.02194102724067
C            0.09929191108549        1.39353375465440        0.00785934367771
O            0.50275668520237        2.55661824861665        0.00899249994439
N           -1.26951720178548        1.05962144543517       -0.02213361634821
C           -2.24159858966924        2.16688463764371       -0.06204590200993
C           -1.82162616220056       -0.20044994067998       -0.03386002805895
O           -3.01672865208532       -0.39051629268324       -0.05504468259340
N           -0.92903743834233       -1.30333617608232       -0.03016749780273
C           -1.46135508478276       -2.64918616806583       -0.05760300604965
H            3.73350252648062        1.20776385563035        1.07067353854493
H            4.01803117013424        1.03515517968383       -0.67551399584633
H            2.70645719569636        2.09424446360366       -0.07966405836489
H            3.58442360692049       -1.66483047079228        0.02840905810857
H           -1.69677780308364        3.10970090769189       -0.04214880340373
H           -2.85196271322256        2.12301001554790       -0.96643297416058
H           -2.91604067027736        2.11874703251413        0.79472922861013
H           -1.15281384449495       -3.20580717115225        0.82987593681081
H           -1.13480031481640       -3.17704267525785       -0.95623064861836
H           -2.54684270681656       -2.56387282260807       -0.06748323622045
H            1.36880740567204       -2.95046754626014       -0.02628855894560
25
 energy: -4.278426967237 xtb: 6.6.1 (8d0f1dd)
C            3.27375758827970        1.15822892172651        0.10039825264226
N            2.32386395412589        0.09571601729029        0.03689289605413
C            2.62374882181684       -1.26221897067519        0.00509243388438
N            1.42666340085138       -1.95331038122405       -0.02102791035200
C            0.41206176403902       -1.06212485262122       -0.00104991863810
C            0.92826629143162        0.22329405126724        0.03401152347861
C            0.09858009529075        1.37905937888517        0.03146936698896
O            0.49533967345722        2.55637649534851        0.03729354422870
N           -1.30053052725437        1.06482554975410       -0.00644296451503
C           -2.27637291938656        2.19025159170385       -0.08678780995498
C           -1.82586432908914       -0.19816071716691       -0.00885285540632
O           -3.02408696643719       -0.41057108399738       -0.02115561585849
N           -0.93080425947641       -1.29994148703240       -0.01487238028436
C           -1.44265358133362       -2.65217093219914       -0.05043375807637
H            3.77154625592237        1.18378023829106        1.07670676281667
H            4.03408242605024        1.03379447627978       -0.67547241425667
H            2.72941740275770        2.08732495780517       -0.05111036289279
H            3.59634014950462       -1.69398926281071       -0.00426761559703
H           -1.73497309573453        3.13795594970738       -0.07714054849923
H           -2.88436232177790        2.15713120503466       -0.99751697482993
H           -2.97935302040882        2.18544347939875        0.75433956076324
H           -1.11610769617841       -3.22039852090478        0.82611184758578
H           -1.11411014705911       -3.17316395611738       -0.95490336479548
H           -2.52879343873434       -2.58271703004463       -0.05035669735756
H            1.35655914727928       -2.95538651552665       -0.05389110098109
25
 energy: -0.508183763859 xtb: 6.6.1 (8d0f1dd)
C            3.29972907604582        1.13810079791406        0.11589555823291
N            2.33050415839442        0.09523946361124        0.03537557377343
C            2.63099105139382       -1.28037433042375       -0.02156013991856
N            1.41990650430332       -1.95673932501012       -0.04448312836255
C            0.41788529039972       -1.06157196827216        0.00582238217542
C            0.92297071455926        0.22883101162685        0.05259243555032
C            0.09071162100043        1.37339071324175        0.06444728255438
O            0.47938953652022        2.55558927824095        0.08209092372304
N           -1.33689855411060        1.07904128240250        0.01294992279471
C           -2.31819663685056        2.22011309468517       -0.12404151520612
C           -1.83394142812614       -0.19395392910632        0.02638228812807
O           -3.02994270945978       -0.43439912935976        0.03058528837880
N           -0.93125854300791       -1.29294911298698        0.00910146107538
C           -1.41570764389841       -2.65558026409934       -0.03766360008239
H            3.81926130862023        1.13486964714743        1.08438680367271
H            4.05055349203518        1.02544688235473       -0.67351200798014
H            2.76820900251641        2.07984347843568       -0.00414402059338
H            3.59977553124364       -1.71880111528895       -0.05702486241960
H           -1.78219895537468        3.17318807186660       -0.12931276727980
H           -2.91338560801072        2.18389000652715       -1.04689031669105
H           -3.05495286638255        2.26386938837258        0.69452470862398
H           -1.06071281698655       -3.23506978903654        0.82333249662423
H           -1.08573591075999       -3.16008187915482       -0.95308238745241
H           -2.50314835610616       -2.61407790490048       -0.02068025354429
H            1.34840740997781       -2.95878576661536       -0.09805822962981
25
 energy: 7.069892365367 xtb: 6.6.1 (8d0f1dd)
C            3.33537705809271        1.10343960506652        0.14089697864618
N            2.33458283067211        0.09034916568820        0.03240542901451
C            2.63021923726930       -1.29540054512065       -0.06075645347031
N            1.41254076713809       -1.95739007280212       -0.08170253612423
C            0.42069750133403       -1.05865608355374        0.01429473352290
C            0.91631763044416        0.23621901312293        0.07850779782231
C            0.07579570120738        1.37565809565046        0.10922079303811
O            0.45604830607679        2.55609585043953        0.15337419891101
N           -1.38470814482334        1.10358019092471        0.03468843716928
C           -2.37640725844258        2.26150770611295       -0.18107282047803
C           -1.84814714094090       -0.18673951212736        0.07564904132407
O           -3.03696337247747       -0.46496430648751        0.11151511277294
N           -0.93098579246850       -1.28120282595642        0.04528960715038
C           -1.37574412516122       -2.65989346739678       -0.01544497757736
H            3.88329339604357        1.04629812030256        1.09724209281869
H            4.07025583522321        1.00627360249438       -0.66800720202258
H            2.83141766755389        2.06839463150068        0.07275046325669
H            3.59602419464469       -1.74114248681480       -0.14086246834445
H           -1.85131295531801        3.22319625311121       -0.20778752628311
H           -2.94925768915493        2.20933182918802       -1.12230586944027
H           -3.15468057200324        2.36483738951089        0.60351717335616
H           -0.97461377556817       -3.25021980372477        0.82218832704336
H           -1.04650297010121       -3.13595488866499       -0.94890753338991
H           -2.46427069876939       -2.66462838616569        0.03035110585715
H            1.34323903746521       -2.95996047212609       -0.16801000842620
25
 energy: 14.693162553558 xtb: 6.6.1 (8d0f1dd)
C            3.36688040990131        1.06563501303663        0.16753520959774
N            2.33410294688645        0.08353514471489        0.02708075287660
C            2.61972112320312       -1.29591985524350       -0.09408713909960
N            1.40818673937224       -1.95244016364388       -0.11875077556007
C            0.41834374429552       -1.05337426081167        0.01643857829526
C            0.91214878407102        0.24235192595618        0.09587637177859
C            0.06086690926394        1.38579119565438        0.14064180222480
O            0.43750303834935        2.55703810742661        0.22407530095554
N           -1.42245431313615        1.12751594169250        0.04101722035140
C           -2.42830666616462        2.29662860489226       -0.23399075553809
C           -1.86290228642862       -0.17919880349161        0.11374881622150
O           -3.04051837293574       -0.48726554182581        0.19026470352719
N           -0.92973802810484       -1.26969944354775        0.07565208805139
C           -1.33957149618617       -2.66287616637939        0.00932980956921
H            3.93209173899465        0.94716497078926        1.11169315205360
H            4.08668482122274        0.98171964611600       -0.65656218807074
H            2.89752391742998        2.05272920572677        0.15140620074343
H            3.58378427407068       -1.74409950483953       -0.22283683613368
H           -1.91773856871216        3.26776451350510       -0.27873909711277
H           -2.98273748456807        2.22342510909844       -1.18848125574395
H           -3.23185959445646        2.43758756059171        0.51933363162676
H           -0.89179611241812       -3.25353734793884        0.82543985988018
H           -1.01701863567134       -3.11254097788226       -0.94055225409625
H           -2.42587512713856       -2.71417170144425        0.08631634533904
H            1.34489290679598       -2.95473456998005       -0.23481564558980
25
 energy: 17.753500171139 xtb: 6.6.1 (8d0f1dd)
C            3.38429756421670        1.03726701529513        0.18921832186008
N            2.33028167085856        0.07929713634446        0.01967068750774
C            2.60419932682577       -1.27945750188530       -0.11167479386556
N            1.40751063071835       -1.94211158527337       -0.14471616573806
C            0.41171121966078       -1.04641198093968        0.00572970169150
C            0.91243902424665        0.24611046193994        0.09503076054400
C            0.05223731366406        1.39833503741883        0.14514218013179
O            0.43038333679590        2.55799988717863        0.27379100950470
N           -1.43542275822020        1.13955340053589        0.02537813809675
C           -2.45592720310599        2.31123582435260       -0.26470386518426
C           -1.87288029165187       -0.17404351469407        0.12556234239147
O           -3.03872111910609       -0.49164052100870        0.24072785505190
N           -0.92843544594864       -1.26289971018108        0.08584977295933
C           -1.32081757242167       -2.66335009964067        0.02986524880596
H            3.94565548541021        0.86937085259130        1.12459987284491
H            4.09674315808114        0.96102412110284       -0.63907957251924
H            2.94521276411088        2.03463416810932        0.20719149600129
H            3.56696242382840       -1.72240567523669       -0.27754411997294
H           -1.95778731118314        3.28881560253744       -0.31818798499307
H           -3.00305759909233        2.22222681419152       -1.22183019079964
H           -3.26092652213082        2.45401316887158        0.47218164242169
H           -0.84006726985704       -3.23981208098190        0.83401142243811
H           -1.01235840267704       -3.10203021586810       -0.92761802064029
H           -2.40037972726834       -2.74405027604131        0.13252392171997
H            1.35136197218188       -2.94264172654637       -0.27408576411086
25
 energy: 17.827245408146 xtb: 6.6.1 (8d0f1dd)
C            3.39156641931880        1.02458246006792        0.20729249625999
N            2.32722196058707        0.08347334548324        0.01262246194180
C            2.59578909847998       -1.26333536593877       -0.12577806598818
N            1.40539753941313       -1.93314437955316       -0.16345981552914
C            0.40595422360550       -1.03833786841458       -0.01285532022445
C            0.91259579156992        0.25157764319035        0.08588023475370
C            0.04894367688028        1.40501956123418        0.14008687045739
O            0.42783249623237        2.56137762103306        0.30395668826027
N           -1.43298170102716        1.13851943276699        0.00567276803964
C           -2.46275908602877        2.30859353108297       -0.28155651015526
C           -1.87788011596291       -0.17100444101521        0.12576771827870
O           -3.03864689182860       -0.48539296680386        0.26741501458386
N           -0.93003288315909       -1.25968513227489        0.08242890616609
C           -1.31621343020006       -2.66249149531646        0.04581138296471
H            3.94454416317368        0.81811619043701        1.13786025910897
H            4.10199515786303        0.95287544446807       -0.62233864685024
H            2.97097369442382        2.02595577019215        0.24894346623977
H            3.55669705526866       -1.69897131867821       -0.31390707987020
H           -1.97015853230607        3.28843412493320       -0.33888858375410
H           -3.00548226233821        2.21208283534753       -1.23970650210349
H           -3.26902640515036        2.44587141293164        0.45211881879628
H           -0.81085670179027       -3.22342091100748        0.84447521818678
H           -1.02473405339266       -3.10424466588704       -0.91415469840896
H           -2.39035928208787       -2.75559889491838        0.17261447811912
H            1.35183473639190       -2.93182333118803       -0.29326766312578
25
 energy: 16.045081056577 xtb: 6.6.1 (8d0f1dd)
C            3.39575030835917        1.01691422898839        0.23226960117417
N            2.32255516157677        0.09483517758617        0.00253283904609
C            2.58904640834687       -1.24598076162286       -0.14533461173820
N            1.40047439531245       -1.92239561113412       -0.18710070060489
C            0.39912008945362       -1.02624850332227       -0.04083843676622
C            0.91074786079575        0.26117578267586        0.07014293116658
C            0.04533390706844        1.41110258864675        0.13198770586998
O            0.42241809639120        2.56599174265464        0.32571985420583
N           -1.42293682150416        1.13144762082053       -0.02219477084417
C           -2.45953281601859        2.29588621502313       -0.29982308230887
C           -1.88085555620290       -0.16741847111165        0.12308420751360
O           -3.03936691468916       -0.47166575164163        0.29010353333271
N           -0.93376096905304       -1.25640077254484        0.07167193839535
C           -1.31667067465714       -2.66001717651353        0.06650300804467
H            3.93670763817434        0.76524060201909        1.15742282803129
H            4.10812394803310        0.95470899571568       -0.59686404849712
H            2.99390915293147        2.02205126111533        0.30390336003293
H            3.54756905570992       -1.67230000189185       -0.35805455404743
H           -1.96990803393845        3.27590640019211       -0.35705858339207
H           -2.99805103399612        2.19168523849679       -1.25821972637923
H           -3.26454767260738        2.41939501281285        0.43772835693893
H           -0.78357667752287       -3.20175182416321        0.85981992490350
H           -1.05216696591920       -3.11532242763630       -0.89478031034934
H           -2.38467434383400       -2.75805995044313        0.22778500878434
H            1.34650712572599       -2.91975101254970       -0.31337237636514
25
 energy: 12.586985875521 xtb: 6.6.1 (8d0f1dd)
C            3.39669672150369        1.01267816034632        0.26679878034029
N            2.31583378549422        0.11247525937591       -0.01337387876998
C            2.58324477230192       -1.22935633178949       -0.17073447550876
N            1.39238623046800       -1.90887428899387       -0.21857290369856
C            0.39138637113322       -1.01030311487212       -0.07669120010851
C            0.90610510879844        0.27474524037296        0.04705807790124
C            0.03938666049342        1.41770280728457        0.12130711290693
O            0.40946162793024        2.57243072470256        0.33412330225114
N           -1.40753367365678        1.12016547542175       -0.05720335013922
C           -2.44548634694754        2.27302517566561       -0.32098164704559
C           -1.88096971245084       -0.16375239065829        0.11851598085183
O           -3.03975916758329       -0.45221118922927        0.30988361957452
N           -0.93886937499897       -1.25243223541942        0.05479355299480
C           -1.32063761973092       -2.65492379405385        0.09451352367469
H            3.92137544864055        0.70917952170859        1.18511068792068
H            4.11682843226928        0.97078027097889       -0.55815166751473
H            3.01397956372293        2.02098012080969        0.37740396042198
H            3.53840415970513       -1.64505379246210       -0.41508870256227
H           -1.95626582513997        3.25124774184907       -0.37395244200399
H           -2.97922746391424        2.15950932437162       -1.27896426916004
H           -3.24580614778113        2.37465646435728        0.42613256788410
H           -0.75638436546329       -3.17502088178604        0.88054591017967
H           -1.09516377843310       -3.13426190824040       -0.86667625912707
H           -2.38131312322480       -2.74859224029140        0.30202213089498
H            1.33454238479988       -2.90576551727625       -0.34078451601088
25
 energy: 8.377000843311 xtb: 6.6.1 (8d0f1dd)
C            3.39356787677147        1.00968404389163        0.30986787870967
N            2.30861040175034        0.13300619073544       -0.03759517068258
C            2.57843881926610       -1.21573920869807       -0.19943943226092
N            1.38225437945411       -1.89255737020250       -0.25885597042024
C            0.38387039445012       -0.99275899254517       -0.11546589198078
C            0.89979010843506        0.29022901581151        0.01810221921993
C            0.03070144961833        1.42506333735504        0.10783322394890
O            0.38685911457368        2.58179542860241        0.32997495066023
N           -1.39125308564631        1.10760656066428       -0.09441014065510
C           -2.42180515263723        2.24203738416984       -0.34466379065110
C           -1.87789636594721       -0.16163849740894        0.11307302975320
O           -3.03837794429114       -0.43173894704430        0.32585638599824
N           -0.94407964710049       -1.24768563835144        0.03507847812536
C           -1.32601300008518       -2.64640792169480        0.13059246972048
H            3.89770165007894        0.65087906880826        1.21984431486741
H            4.12821804038436        1.00209460690907       -0.50515397117566
H            3.02687184592159        2.01821719347228        0.46774086835641
H            3.52807788229681       -1.62027804259518       -0.48637780408058
H           -1.93036213294847        3.21696583007247       -0.39047228400385
H           -2.94933662546956        2.11780626455101       -1.30229858955083
H           -3.21533157674272        2.31891854500990        0.41362079975439
H           -0.72876354151754       -3.14477245742184        0.90589972027138
H           -1.14927981688296       -3.15694517337614       -0.82741586457709
H           -2.37750447072217       -2.72531872218699        0.39197209289649
H            1.31725606492610       -2.88943389635544       -0.38027362609615
25
 energy: 4.436236689482 xtb: 6.6.1 (8d0f1dd)
C            3.38470099467354        1.00610273711643        0.35910346793537
N            2.30331233704095        0.15332365892266       -0.07070785052258
C            2.57514717233890       -1.20582828161011       -0.22891713101622
N            1.37203830774311       -1.87416619657220       -0.30794453369257
C            0.37783515719020       -0.97588817785127       -0.15283175119583
C            0.89446775908238        0.30542564861560       -0.01270514213404
C            0.02144778953343        1.43251302283938        0.09217703061744
O            0.35733823949364        2.59325274898106        0.31716747666339
N           -1.37708419127085        1.09574404566258       -0.12861465867708
C           -2.39092528876342        2.20560616202768       -0.37026802987966
C           -1.87191612742948       -0.16248493703547        0.10712810618683
O           -3.03441050261425       -0.41429792399014        0.33753092728392
N           -0.94811214288467       -1.24233306130535        0.01544110381600
C           -1.33111451866497       -2.63396554697962        0.17434594915746
H            3.86404821488492        0.59154082912326        1.25878867647739
H            4.14036416441876        1.04600260429000       -0.43806387981896
H            3.02594116117664        2.00846756940333        0.57031930454938
H            3.51509304595119       -1.59815766013481       -0.57279688287756
H           -1.89469324357374        3.17627826064443       -0.40727870177352
H           -2.91009185718988        2.07040623218340       -1.32859488084296
H           -3.17796564261100        2.26082366802811        0.39640985082357
H           -0.70071462646474       -3.11153580884452        0.93514389695265
H           -1.20917857887252       -3.17885906807547       -0.77534219187112
H           -2.37057123461836       -2.68828707752763        0.49181101962959
H            1.29725827936622       -2.87065484573896       -0.43426727964368
25
 energy: 2.061272482396 xtb: 6.6.1 (8d0f1dd)
C            3.37010776947994        1.00106669527059        0.40354765715310
N            2.30334251888486        0.16703398694034       -0.10557803426586
C            2.57541968856839       -1.20308391555054       -0.25412396254500
N            1.36565814378369       -1.85887663355168       -0.35726375996016
C            0.37616941829653       -0.96526952339019       -0.17818366427445
C            0.89368443230066        0.31510709683210       -0.03413590931679
C            0.01692389182929        1.43714356841234        0.07974724228884
O            0.33171404405649        2.60232241551775        0.30110058723602
N           -1.36984544990078        1.08845026721464       -0.14685596188786
C           -2.36313269450921        2.17528063941036       -0.39367687069271
C           -1.86413827369685       -0.16691574588374        0.10340172311692
O           -3.02808605764320       -0.40682674793911        0.34364743485606
N           -0.94859631286952       -1.23790088003542        0.00235419161574
C           -1.33264273260248       -2.62006060344160        0.21695148687083
H            3.82726245674422        0.54249630899179        1.29184426680698
H            4.14792085435229        1.09131705828359       -0.36936471636197
H            3.00447774032670        1.98967255366256        0.66300634218066
H            3.50056995139356       -1.58324203373247       -0.65960046564865
H           -1.86098037018553        3.14237086829466       -0.42324597531169
H           -2.87212323301022        2.03165720672746       -1.35509315097622
H           -3.14903861555191        2.22254372710988        0.37271062955597
H           -0.67561375713865       -3.08284746651855        0.96191904263316
H           -1.25878581696434       -3.19239999444129       -0.71975505867872
H           -2.35902481025138       -2.64597203802106        0.57890134316742
H            1.28097188224336       -2.85403820799002       -0.49522052141444
25
 energy: 1.222355148991 xtb: 6.6.1 (8d0f1dd)
C            3.35147929145724        0.99474493487601        0.43550160516343
N            2.30906142976999        0.17031150154090       -0.13499107217717
C            2.57912412239956       -1.20650630568549       -0.27393422095486
N            1.36559855780327       -1.85038734360378       -0.39826159181822
C            0.37961557253954       -0.96395345202270       -0.18870936495991
C            0.89917366387209        0.31554922246357       -0.04143633929613
C            0.02153983829336        1.43760799399154        0.07164472115649
O            0.32208869477603        2.60522166161741        0.28750361319162
N           -1.36922857915898        1.08744000448744       -0.14304548069564
C           -2.34715075700131        2.16094904255845       -0.41082977184946
C           -1.85642994003718       -0.17354188783570        0.10197171919031
O           -3.02071858328463       -0.41099721840547        0.34505185151537
N           -0.94417037635436       -1.23596743228989       -0.00302795808091
C           -1.32907276894216       -2.60878805297100        0.25009572839163
H            3.79457043806402        0.50774551987366        1.31362248959183
H            4.14649627967636        1.12884138247195       -0.31100095891398
H            2.96347979189408        1.96447379162775        0.72953478559676
H            3.48553184179727       -1.57453640879907       -0.73052473164087
H           -1.83977586639804        3.12613219464927       -0.43717539747591
H           -2.84412956106891        2.01183619853996       -1.37828206777400
H           -3.14013662396431        2.21696286245396        0.34423321691209
H           -0.65296852274115       -3.06338967146041        0.98156933750543
H           -1.29141203398002       -3.19662748657131       -0.67344120651575
H           -2.34442272844987       -2.61106190653665        0.64143370095013
H            1.27407148697400       -2.84303054279797       -0.55046871086512
25
 energy: 0.751083242993 xtb: 6.6.1 (8d0f1dd)
C            3.32830464282397        0.98838250967040        0.46996813149773
N            2.31438137094600        0.17143397080276       -0.16381322361688
C            2.58138431679942       -1.20435422083381       -0.29980198196710
N            1.36766093324932       -1.84290057384392       -0.43844424929126
C            0.38249156892026       -0.96429019524989       -0.20359595093619
C            0.90770086824876        0.31213457450489       -0.04921580947289
C            0.03346922531380        1.43779480993835        0.05764975391266
O            0.32858421206804        2.60457112575509        0.27493657035526
N           -1.36266415504312        1.08587210821224       -0.13606531594616
C           -2.33234567509869        2.15145184036288       -0.42581397213640
C           -1.85005893171016       -0.17903098208875        0.09630757718123
O           -3.01376869876610       -0.41347814268021        0.34373532332884
N           -0.93822810804038       -1.23578664849368       -0.01213375808638
C           -1.32542577511927       -2.60052347204882        0.28365011938994
H            3.75619827692887        0.46657347998616        1.33911098127102
H            4.13902060537914        1.16952065811160       -0.24798496778783
H            2.91175314228720        1.93676304952113        0.79720235190254
H            3.46742055711022       -1.55522314973288       -0.80794823294419
H           -1.81945214281782        3.11398438803882       -0.45117991629385
H           -2.81319007762633        1.99416551516420       -1.40076849728830
H           -3.13542768365241        2.21540929479234        0.31430501193628
H           -0.62578357138851       -3.04093000244908        1.00378270646764
H           -1.33241109481247       -3.20720071245903       -0.62898162367282
H           -2.32956658682661       -2.58319040815070        0.71206420409090
H            1.27216744876269       -2.83212021465765       -0.59993133574661
25