72
 energy: -99.369911054023 gnorm: 0.003647429109 xtb: 6.6.1 (8d0f1dd)
N           -2.81844777989474        3.02065774404536        2.56558586355823
C           -2.16069472041726        2.81389766738219        1.47505563871056
C           -2.59596967055281        3.25153595251942        0.21922282434186
C           -3.80294137229287       -0.42287746024408        0.64124744386422
C           -4.62130005738771       -0.85870789289178       -0.39117676029623
C           -5.11300216395598       -2.15792123830371       -0.40125467967298
O           -5.91663503553354       -2.68567436315319       -1.34333569590922
C           -6.35971398529990       -1.87781850357410       -2.40840084880575
C           -4.76724394270889       -3.04051569079741        0.66127576946219
O           -5.29838972710683       -4.27463593651930        0.57608272261674
C           -5.06486069105670       -5.20051674195212        1.61126712888014
C           -3.93986908823749       -2.58502712676217        1.67979651621704
C           -3.46122418569404       -1.28384666684130        1.66819485743794
C           -1.72722740902841        2.99645491495418       -0.97705200751872
C           -1.13338873883405        1.62196853942307       -0.97386086245211
C            0.14917138256293        1.38417389279352       -0.64336226416861
N            0.74665542563180        0.17097415278834       -0.54350960710717
C            2.14896904801432        0.07542029158506       -0.24507267875520
C            3.02748749617568       -0.07183876175973       -1.50751738732404
C            4.47490413764430        0.00614468061874       -1.12000119464928
C            5.19263959476852        1.18306831223415       -1.27789088205582
C            6.51222003971649        1.27381463095037       -0.86561677466885
C            7.14340792960317        0.18855583814483       -0.27267280547599
O            8.40777813699011        0.16664180876296        0.18054414587461
C            9.19567632284342        1.33226851187743        0.08805041819442
C            6.41789820630919       -1.02696669685906       -0.11099178941486
O            7.10520063460872       -2.02936571933777        0.46672778271224
C            6.47501897574261       -3.27088471228510        0.67484212405739
C            5.10019878021186       -1.09347208727325       -0.53682826445586
C            0.03417463798830       -1.02657323246151       -0.90887017594120
C           -3.85009866722012        4.04882720738396        0.05893520438537
C           -5.06952655032869        3.31824571586081        0.62952969098912
C           -3.69029027550895        5.40629144740730        0.75927280195602
H           -4.88609462967824       -0.17745569293083       -1.18371151117877
H           -6.92519658645333       -1.01355300372023       -2.04712796343422
H           -7.01461026130642       -2.51264280061395       -3.00332452323976
H           -5.52427503760950       -1.53681897386268       -3.02798779817726
H           -5.44428552570596       -4.83302740578762        2.57014338038155
H           -5.61052297027281       -6.09898212094592        1.32758061229556
H           -4.00014124845564       -5.43688095022049        1.70635495340402
H           -3.67409871310455       -3.23861707310367        2.49520811488757
H           -2.82711678656515       -0.94171391141346        2.47146693659993
H           -2.32109855144926        3.13588668758167       -1.88552395134506
H           -0.92320070734489        3.74422512812774       -0.99550164677580
H           -3.44819861996570        0.59610017334622        0.64510504967469
H           -1.81062612180136        0.81553789482651       -1.20386504791672
H           -1.20147228269488        2.27819965434260        1.48062347243533
H            0.79621766775321        2.21918592977788       -0.40757585179809
H            2.31643955893461       -0.78330077228898        0.41186512066241
H            2.45923945331402        0.97599160436862        0.29074611815550
H            2.78109726045079        0.73196936141714       -2.20344741977061
H            2.81237964428991       -1.02595763719566       -1.99197851030531
H            4.72501016972625        2.04165831227943       -1.73450746879203
H            7.04510414701095        2.19936274467707       -1.01015663620602
H            8.74186079286555        2.16536749615529        0.63288508726544
H            9.36018551685781        1.62210768193585       -0.95412142760425
H           10.14921551925776        1.07731417885127        0.54658404054702
H            7.22314685561419       -3.90218634327729        1.14982407755059
H            5.60955407275368       -3.17454937195690        1.33794967750910
H            6.16413363918476       -3.72622338128024       -0.27011678939929
H            4.54469252672590       -2.01133462682764       -0.42436392229669
H           -0.29147839511992       -0.98896021898164       -1.95228638322916
H           -0.84962908759379       -1.15280443943741       -0.27674701217397
H            0.68222416113747       -1.88974288140925       -0.77644594855350
H           -4.01856457979113        4.23156949628504       -1.00852748899756
H           -4.91977757310791        3.13810683284587        1.69102033430571
H           -5.22201391295859        2.36551080499070        0.12767143513808
H           -5.95938410494802        3.92821942263823        0.49560243101297
H           -3.52656826349643        5.24967537522610        1.82138596810392
H           -2.84791987427486        5.95569822180557        0.34657574053606
H           -4.59185184814854        5.99678133216532        0.62335686190670
H           -2.40643639494531        2.68812431630201        3.42841647655720
