      -----------------------------------------------------------      
     |                   =====================                   |     
     |                           x T B                           |     
     |                   =====================                   |     
     |                         S. Grimme                         |     
     |          Mulliken Center for Theoretical Chemistry        |     
     |                    University of Bonn                     |     
      -----------------------------------------------------------      

   * xtb version 6.6.1 (8d0f1dd) compiled by 'conda@1efc2f54142f' on 2023-08-01

   xtb is free software: you can redistribute it and/or modify it under
   the terms of the GNU Lesser General Public License as published by
   the Free Software Foundation, either version 3 of the License, or
   (at your option) any later version.
   
   xtb is distributed in the hope that it will be useful,
   but WITHOUT ANY WARRANTY; without even the implied warranty of
   MERCHANTABILITY or FITNESS FOR A PARTICULAR PURPOSE.  See the
   GNU Lesser General Public License for more details.
   
   Cite this work as:
   * C. Bannwarth, E. Caldeweyher, S. Ehlert, A. Hansen, P. Pracht,
     J. Seibert, S. Spicher, S. Grimme, WIREs Comput. Mol. Sci., 2020, 11,
     e01493. DOI: 10.1002/wcms.1493
   
   for GFN2-xTB:
   * C. Bannwarth, S. Ehlert and S. Grimme., J. Chem. Theory Comput., 2019,
     15, 1652-1671. DOI: 10.1021/acs.jctc.8b01176
   for GFN1-xTB:
   * S. Grimme, C. Bannwarth, P. Shushkov, J. Chem. Theory Comput., 2017,
     13, 1989-2009. DOI: 10.1021/acs.jctc.7b00118
   for GFN0-xTB:
   * P. Pracht, E. Caldeweyher, S. Ehlert, S. Grimme, ChemRxiv, 2019, preprint.
     DOI: 10.26434/chemrxiv.8326202.v1
   for GFN-FF:
   * S. Spicher and S. Grimme, Angew. Chem. Int. Ed., 2020, 59, 15665-15673.
     DOI: 10.1002/anie.202004239
   
   for ALPB and GBSA implicit solvation:
   * S. Ehlert, M. Stahn, S. Spicher, S. Grimme, J. Chem. Theory Comput.,
     2021, 17, 4250-4261. DOI: 10.1021/acs.jctc.1c00471
   
   for DFT-D4:
   * E. Caldeweyher, C. Bannwarth and S. Grimme, J. Chem. Phys., 2017,
     147, 034112. DOI: 10.1063/1.4993215
   * E. Caldeweyher, S. Ehlert, A. Hansen, H. Neugebauer, S. Spicher,
     C. Bannwarth and S. Grimme, J. Chem. Phys., 2019, 150, 154122.
     DOI: 10.1063/1.5090222
   * E. Caldeweyher, J.-M. Mewes, S. Ehlert and S. Grimme, Phys. Chem. Chem. Phys.
     2020, 22, 8499-8512. DOI: 10.1039/D0CP00502A
   
   for sTDA-xTB:
   * S. Grimme and C. Bannwarth, J. Chem. Phys., 2016, 145, 054103.
     DOI: 10.1063/1.4959605
   
   in the mass-spec context:
   * V. Asgeirsson, C. Bauer and S. Grimme, Chem. Sci., 2017, 8, 4879.
     DOI: 10.1039/c7sc00601b
   * J. Koopman and S. Grimme, ACS Omega 2019, 4, 12, 15120-15133.
     DOI: 10.1021/acsomega.9b02011
   
   for metadynamics refer to:
   * S. Grimme, J. Chem. Theory Comput., 2019, 155, 2847-2862
     DOI: 10.1021/acs.jctc.9b00143
   
   for SPH calculations refer to:
   * S. Spicher and S. Grimme, J. Chem. Theory Comput., 2021, 17, 1701-1714
     DOI: 10.1021/acs.jctc.0c01306
   
   with help from (in alphabetical order)
   P. Atkinson, C. Bannwarth, F. Bohle, G. Brandenburg, E. Caldeweyher
   M. Checinski, S. Dohm, S. Ehlert, S. Ehrlich, I. Gerasimov, C. Hölzer
   A. Katbashev, J. Koopman, C. Lavigne, S. Lehtola, F. März, M. Müller,
   F. Musil, H. Neugebauer, J. Pisarek, C. Plett, P. Pracht, F. Pultar,
   J. Seibert, P. Shushkov, S. Spicher, M. Stahn, M. Steiner, T. Strunk,
   J. Stückrath, T. Rose, and J. Unsleber
   
 * started run on 2024/04/06 at 11:16:24.499     

           -------------------------------------------------
          |                Calculation Setup                |
           -------------------------------------------------

          program call               : xtb struc.xyz --opt loose --input .xc1 --gfn2
          hostname                   : n-62-30-23
          coordinate file            : struc.xyz
          omp threads                :                     1

   ID    Z sym.   atoms
    1    7 N      1, 17
    2    6 C      2-6, 8, 9, 11-16, 18-23, 25, 26, 28-33
    3    8 O      7, 10, 24, 27
    4    1 H      34-72
constraining bond 13 63 to    8.7133300 Å, actual value:    2.5182942 Å

           -------------------------------------------------
          |                 G F N 2 - x T B                 |
           -------------------------------------------------

        Reference                      10.1021/acs.jctc.8b01176
      * Hamiltonian:
        H0-scaling (s, p, d)           1.850000    2.230000    2.230000
        zeta-weighting                 0.500000
      * Dispersion:
        s8                             2.700000
        a1                             0.520000
        a2                             5.000000
        s9                             5.000000
      * Repulsion:
        kExp                           1.500000    1.000000
        rExp                           1.000000
      * Coulomb:
        alpha                          2.000000
        third order                    shell-resolved
        anisotropic                    true
        a3                             3.000000
        a5                             4.000000
        cn-shift                       1.200000
        cn-exp                         4.000000
        max-rad                        5.000000


          ...................................................
          :                      SETUP                      :
          :.................................................:
          :  # basis functions                 171          :
          :  # atomic orbitals                 171          :
          :  # shells                          105          :
          :  # electrons                       180          :
          :  max. iterations                   250          :
          :  Hamiltonian                  GFN2-xTB          :
          :  restarted?                      false          :
          :  GBSA solvation                  false          :
          :  PC potential                    false          :
          :  electronic temp.         5000.0000000     K    :
          :  accuracy                    1.0000000          :
          :  -> integral cutoff          0.2500000E+02      :
          :  -> integral neglect         0.1000000E-07      :
          :  -> SCF convergence          0.1000000E-05 Eh   :
          :  -> wf. convergence          0.1000000E-03 e    :
          :  Broyden damping             0.4000000          :
          ...................................................

 iter      E             dE          RMSdq      gap      omega  full diag
   1   -100.5973919 -0.100597E+03  0.374E+00    3.20       0.0  T
   2   -100.7362642 -0.138872E+00  0.221E+00    1.08       1.0  T
   3   -100.7049001  0.313641E-01  0.141E+00    3.29       1.0  T
   4   -100.7721690 -0.672689E-01  0.526E-01    1.50       1.0  T
   5   -100.7894292 -0.172602E-01  0.190E-01    1.98       1.0  T
   6   -100.7911978 -0.176856E-02  0.792E-02    1.77       1.0  T
   7   -100.7914750 -0.277198E-03  0.375E-02    1.83       1.0  T
   8   -100.7914914 -0.164582E-04  0.140E-02    1.83       1.0  T
   9   -100.7914976 -0.616739E-05  0.474E-03    1.82       2.5  T
  10   -100.7914988 -0.118227E-05  0.172E-03    1.82       6.8  T
  11   -100.7914989 -0.139928E-06  0.766E-04    1.82      15.4  T
  12   -100.7914989 -0.773143E-08  0.318E-04    1.82      37.0  T

   *** convergence criteria satisfied after 12 iterations ***

         #    Occupation            Energy/Eh            Energy/eV
      -------------------------------------------------------------
         1        2.0000           -0.8078051             -21.9815
       ...           ...                  ...                  ...
        84        1.9966           -0.5157491             -14.0342
        85        1.9959           -0.5128261             -13.9547
        86        1.9840           -0.4911498             -13.3649
        87        1.9795           -0.4872543             -13.2589
        88        1.9640           -0.4782114             -13.0128
        89        1.8920           -0.4602041             -12.5228
        90        1.8557           -0.4553147             -12.3897 (HOMO)
        91        0.3166           -0.3884132             -10.5693 (LUMO)
        92        0.0218           -0.3434697              -9.3463
        93        0.0041           -0.3169887              -8.6257
        94        0.0034           -0.3139726              -8.5436
        95        0.0029           -0.3112618              -8.4699
       ...           ...                  ...                  ...
       171                          0.5822580              15.8440
      -------------------------------------------------------------
                  HL-Gap            0.0669015 Eh            1.8205 eV
             Fermi-level           -0.4148687 Eh          -11.2892 eV

 SCC (total)                   0 d,  0 h,  0 min,  0.190 sec
 SCC setup                      ...        0 min,  0.001 sec (  0.698%)
 Dispersion                     ...        0 min,  0.002 sec (  1.050%)
 classical contributions        ...        0 min,  0.001 sec (  0.311%)
 integral evaluation            ...        0 min,  0.018 sec (  9.601%)
 iterations                     ...        0 min,  0.098 sec ( 51.672%)
 molecular gradient             ...        0 min,  0.069 sec ( 36.326%)
 printout                       ...        0 min,  0.001 sec (  0.333%)

         :::::::::::::::::::::::::::::::::::::::::::::::::::::
         ::                     SUMMARY                     ::
         :::::::::::::::::::::::::::::::::::::::::::::::::::::
         :: total energy            -106.256729532033 Eh    ::
         :: gradient norm              1.655516720058 Eh/a0 ::
         :: HOMO-LUMO gap              1.820481192090 eV    ::
         ::.................................................::
         :: SCC energy              -100.791498925389 Eh    ::
         :: -> isotropic ES            0.109302908418 Eh    ::
         :: -> anisotropic ES          0.005415138735 Eh    ::
         :: -> anisotropic XC          0.042392697176 Eh    ::
         :: -> dispersion             -0.075527661009 Eh    ::
         :: repulsion energy           1.386151658689 Eh    ::
         :: add. restraining          -6.852598617838 Eh    ::
         :: total charge               1.000000000108 e     ::
         :::::::::::::::::::::::::::::::::::::::::::::::::::::

      ----------------------------------------------------------- 
     |                   =====================                   |
     |                        A N C O P T                        |
     |                   =====================                   |
     |               Approximate Normal Coordinate               |
     |                Rational Function Optimizer                |
      ----------------------------------------------------------- 

          ...................................................
          :                      SETUP                      :
          :.................................................:
          :   optimization level             loose          :
          :   max. optcycles                   200          :
          :   ANC micro-cycles                  20          :
          :   degrees of freedom               210          :
          :.................................................:
          :   RF solver                   davidson          :
          :   write xtbopt.log                true          :
          :   linear?                        false          :
          :   energy convergence         0.5000000E-04 Eh   :
          :   grad. convergence          0.4000000E-02 Eh/α :
          :   maxmium RF displ.          1.0000000          :
          :   Hlow (freq-cutoff)         0.1000000E-01      :
          :   Hmax (freq-cutoff)         5.0000000          :
          :   S6 in model hess.         20.0000000          :
          ...................................................

generating ANC from model Hessian ...
Using Lindh-Hessian (1995)
 Shifting diagonal of input Hessian by   0.10461475442617568     
 Lowest  eigenvalues of input Hessian
    0.010000    0.000000    0.000000    0.000000    0.000000    0.000000
    0.000000    0.104693    0.104780    0.104826    0.104972    0.105075
    0.105421    0.105739    0.106028    0.106285    0.107124    0.107447
 Highest eigenvalues
    2.130606    2.146196    2.202621    2.276556    2.279113    2.301026


........................................................................
.............................. CYCLE    1 ..............................
........................................................................

 iter      E             dE          RMSdq      gap      omega  full diag
   1   -100.7914989 -0.100791E+03  0.114E-04    1.82       0.0  T
   2   -100.7914989 -0.678995E-10  0.713E-05    1.82     165.2  T
   3   -100.7914989  0.665210E-10  0.496E-05    1.82     237.5  T
     SCC iter.                  ...        0 min,  0.026 sec
     gradient                   ...        0 min,  0.069 sec
 * total energy  :  -106.2567295 Eh     change       -0.4035485E-08 Eh
   gradient norm :     1.6555169 Eh/α   predicted     0.0000000E+00 (-100.00%)
   displ. norm   :     0.9754935 α      lambda       -0.1601477E+01
   maximum displ.:     0.8825716 α      in ANC's #1, #86, #65, ...

........................................................................
.............................. CYCLE    2 ..............................
........................................................................

 iter      E             dE          RMSdq      gap      omega  full diag
   1   -100.6849747 -0.100685E+03  0.623E-01    1.73       0.0  T
   2   -100.6861363 -0.116155E-02  0.387E-01    1.93       1.0  T
   3   -100.6849789  0.115743E-02  0.283E-01    1.67       1.0  T
   4   -100.6883284 -0.334956E-02  0.104E-01    1.94       1.0  T
   5   -100.6893487 -0.102032E-02  0.172E-02    1.82       1.0  T
   6   -100.6893534 -0.465595E-05  0.888E-03    1.83       1.3  T
   7   -100.6893565 -0.310234E-05  0.300E-03    1.83       3.9  T
   8   -100.6893569 -0.436970E-06  0.126E-03    1.83       9.3  T
   9   -100.6893569 -0.200160E-07  0.644E-04    1.83      18.3  T
  10   -100.6893570 -0.228694E-07  0.227E-04    1.83      51.9  T
     SCC iter.                  ...        0 min,  0.081 sec
     gradient                   ...        0 min,  0.069 sec
 * total energy  :  -107.8996537 Eh     change       -0.1642924E+01 Eh
   gradient norm :     1.7565814 Eh/α   predicted    -0.1562711E+01 (  -4.88%)
   displ. norm   :     0.9780094 α      lambda       -0.1705275E+01
   maximum displ.:     0.8942256 α      in ANC's #1, #86, #65, ...

........................................................................
.............................. CYCLE    3 ..............................
........................................................................

 iter      E             dE          RMSdq      gap      omega  full diag
   1   -100.5454961 -0.100545E+03  0.820E-01    1.28       0.0  T
   2   -100.5066062  0.388899E-01  0.904E-01    0.93       1.0  T
   3   -100.5620830 -0.554768E-01  0.391E-01    1.30       1.0  T
   4   -100.5525932  0.948974E-02  0.361E-01    1.07       1.0  T
   5   -100.5666806 -0.140873E-01  0.569E-02    1.20       1.0  T
   6   -100.5669552 -0.274626E-03  0.237E-02    1.19       1.0  T
   7   -100.5669666 -0.114221E-04  0.146E-02    1.20       1.0  T
   8   -100.5669782 -0.115742E-04  0.562E-03    1.20       2.1  T
   9   -100.5669799 -0.167150E-05  0.153E-03    1.20       7.7  T
  10   -100.5669799 -0.511710E-07  0.728E-04    1.20      16.2  T
  11   -100.5669799 -0.162931E-07  0.295E-04    1.20      39.9  T
     SCC iter.                  ...        0 min,  0.089 sec
     gradient                   ...        0 min,  0.071 sec
 * total energy  :  -109.6875158 Eh     change       -0.1787862E+01 Eh
   gradient norm :     1.8847100 Eh/α   predicted    -0.1668191E+01 (  -6.69%)
   displ. norm   :     0.9739255 α      lambda       -0.1818087E+01
   maximum displ.:     0.8839437 α      in ANC's #1, #86, #129, ...

........................................................................
.............................. CYCLE    4 ..............................
........................................................................

 iter      E             dE          RMSdq      gap      omega  full diag
   1   -100.4490184 -0.100449E+03  0.545E-01    0.67       0.0  T
   2   -100.4274068  0.216116E-01  0.531E-01    1.11       1.0  T
   3   -100.4390270 -0.116202E-01  0.418E-01    0.61       1.0  T
   4   -100.4503807 -0.113537E-01  0.194E-01    0.86       1.0  T
   5   -100.4547290 -0.434825E-02  0.450E-02    0.79       1.0  T
   6   -100.4548848 -0.155791E-03  0.136E-02    0.79       1.0  T
   7   -100.4548879 -0.316679E-05  0.938E-03    0.79       1.3  T
   8   -100.4548924 -0.444858E-05  0.399E-03    0.79       3.0  T
   9   -100.4548932 -0.811536E-06  0.906E-04    0.79      13.0  T
  10   -100.4548932 -0.289208E-07  0.633E-04    0.79      18.6  T
     SCC iter.                  ...        0 min,  0.080 sec
     gradient                   ...        0 min,  0.069 sec
 * total energy  :  -108.7387854 Eh     change        0.9487304E+00 Eh
   gradient norm :    12.6877743 Eh/α   predicted    -0.1771311E+01 (-286.70%)
   displ. norm   :     0.5687671 α      lambda       -0.7213570E+01
   maximum displ.:     0.4848468 α      in ANC's #1, #86, #65, ...

........................................................................
.............................. CYCLE    5 ..............................
........................................................................

 iter      E             dE          RMSdq      gap      omega  full diag
   1   -100.5336088 -0.100534E+03  0.338E-01    1.05       0.0  T
   2   -100.5145269  0.190820E-01  0.470E-01    0.67       1.0  T
   3   -100.5367958 -0.222689E-01  0.178E-01    0.99       1.0  T
   4   -100.5380644 -0.126864E-02  0.105E-01    0.88       1.0  T
   5   -100.5388590 -0.794564E-03  0.468E-02    0.91       1.0  T
   6   -100.5390187 -0.159773E-03  0.141E-02    0.91       1.0  T
   7   -100.5390205 -0.179489E-05  0.109E-02    0.91       1.1  T
   8   -100.5390297 -0.916406E-05  0.224E-03    0.91       5.3  T
   9   -100.5390299 -0.178553E-06  0.113E-03    0.91      10.5  T
  10   -100.5390300 -0.104404E-06  0.348E-04    0.91      33.9  T
  11   -100.5390300 -0.190076E-08  0.216E-04    0.91      54.5  T
     SCC iter.                  ...        0 min,  0.089 sec
     gradient                   ...        0 min,  0.069 sec
 * total energy  :  -110.3479100 Eh     change       -0.1609125E+01 Eh
   gradient norm :     1.1746862 Eh/α   predicted    -0.4773564E+01 ( 196.66%)
   displ. norm   :     0.4211990 α      lambda       -0.1355022E+00
   maximum displ.:     0.1136917 α      in ANC's #174, #65, #129, ...

........................................................................
.............................. CYCLE    6 ..............................
........................................................................

 iter      E             dE          RMSdq      gap      omega  full diag
   1   -100.6214519 -0.100621E+03  0.274E-01    0.95       0.0  T
   2   -100.6206473  0.804626E-03  0.197E-01    0.83       1.0  T
   3   -100.6197175  0.929856E-03  0.179E-01    1.02       1.0  T
   4   -100.6209237 -0.120626E-02  0.114E-01    0.83       1.0  T
   5   -100.6222848 -0.136112E-02  0.329E-02    0.90       1.0  T
   6   -100.6223740 -0.891893E-04  0.863E-03    0.90       1.4  T
   7   -100.6223742 -0.186830E-06  0.636E-03    0.90       1.9  T
   8   -100.6223775 -0.326157E-05  0.197E-03    0.90       6.0  T
   9   -100.6223777 -0.247334E-06  0.745E-04    0.90      15.8  T
  10   -100.6223777 -0.288631E-07  0.356E-04    0.90      33.1  T
     SCC iter.                  ...        0 min,  0.081 sec
     gradient                   ...        0 min,  0.069 sec
 * total energy  :  -110.4648745 Eh     change       -0.1169646E+00 Eh
   gradient norm :     0.9669883 Eh/α   predicted    -0.7977134E-01 ( -31.80%)
   displ. norm   :     0.5257449 α      lambda       -0.1741007E+00
   maximum displ.:     0.1683061 α      in ANC's #174, #168, #65, ...

........................................................................
.............................. CYCLE    7 ..............................
........................................................................

 iter      E             dE          RMSdq      gap      omega  full diag
   1   -100.6919951 -0.100692E+03  0.406E-01    0.87       0.0  T
   2   -100.6843615  0.763361E-02  0.417E-01    1.03       1.0  T
   3   -100.6941325 -0.977102E-02  0.221E-01    0.81       1.0  T
   4   -100.6939714  0.161155E-03  0.160E-01    1.05       1.0  T
   5   -100.6964195 -0.244817E-02  0.401E-02    0.87       1.0  T
   6   -100.6965632 -0.143639E-03  0.109E-02    0.90       1.1  T
   7   -100.6965616  0.153630E-05  0.685E-03    0.90       1.7  T
   8   -100.6965666 -0.497198E-05  0.223E-03    0.90       5.3  T
   9   -100.6965670 -0.405433E-06  0.898E-04    0.90      13.1  T
  10   -100.6965670 -0.279419E-07  0.439E-04    0.90      26.9  T
     SCC iter.                  ...        0 min,  0.081 sec
     gradient                   ...        0 min,  0.069 sec
 * total energy  :  -110.5706793 Eh     change       -0.1058048E+00 Eh
   gradient norm :     0.1799140 Eh/α   predicted    -0.1111117E+00 (   5.02%)
   displ. norm   :     0.2750588 α      lambda       -0.1714233E-01
   maximum displ.:     0.0722581 α      in ANC's #174, #49, #168, ...

........................................................................
.............................. CYCLE    8 ..............................
........................................................................

 iter      E             dE          RMSdq      gap      omega  full diag
   1   -100.7058018 -0.100706E+03  0.220E-01    0.82       0.0  T
   2   -100.7000267  0.577501E-02  0.303E-01    1.05       1.0  T
   3   -100.7076737 -0.764700E-02  0.958E-02    0.83       1.0  T
   4   -100.7075884  0.853354E-04  0.667E-02    0.94       1.0  T
   5   -100.7080519 -0.463541E-03  0.129E-02    0.87       1.0  T
   6   -100.7080668 -0.148548E-04  0.453E-03    0.88       2.6  T
   7   -100.7080679 -0.110005E-05  0.204E-03    0.88       5.8  T
   8   -100.7080680 -0.123006E-06  0.757E-04    0.88      15.6  T
   9   -100.7080680 -0.195974E-07  0.344E-04    0.88      34.2  T
     SCC iter.                  ...        0 min,  0.073 sec
     gradient                   ...        0 min,  0.069 sec
 * total energy  :  -110.5810283 Eh     change       -0.1034897E-01 Eh
   gradient norm :     0.1408558 Eh/α   predicted    -0.9219636E-02 ( -10.91%)
   displ. norm   :     0.2471278 α      lambda       -0.7067226E-02
   maximum displ.:     0.0617576 α      in ANC's #35, #37, #56, ...

........................................................................
.............................. CYCLE    9 ..............................
........................................................................

 iter      E             dE          RMSdq      gap      omega  full diag
   1   -100.7126177 -0.100713E+03  0.166E-01    0.85       0.0  T
   2   -100.7099041  0.271357E-02  0.215E-01    0.99       1.0  T
   3   -100.7135229 -0.361873E-02  0.763E-02    0.85       1.0  T
   4   -100.7134439  0.789736E-04  0.532E-02    0.94       1.0  T
   5   -100.7137466 -0.302677E-03  0.916E-03    0.88       1.3  T
   6   -100.7137544 -0.785418E-05  0.306E-03    0.89       3.9  T
   7   -100.7137549 -0.494750E-06  0.131E-03    0.89       9.0  T
   8   -100.7137550 -0.350964E-07  0.603E-04    0.89      19.5  T
   9   -100.7137550 -0.125815E-07  0.283E-04    0.89      41.6  T
     SCC iter.                  ...        0 min,  0.073 sec
     gradient                   ...        0 min,  0.069 sec
 * total energy  :  -110.5868147 Eh     change       -0.5786371E-02 Eh
   gradient norm :     0.1287143 Eh/α   predicted    -0.3749416E-02 ( -35.20%)
   displ. norm   :     0.4273290 α      lambda       -0.9864766E-02
   maximum displ.:     0.1190771 α      in ANC's #37, #56, #35, ...

........................................................................
.............................. CYCLE   10 ..............................
........................................................................

 iter      E             dE          RMSdq      gap      omega  full diag
   1   -100.7176323 -0.100718E+03  0.257E-01    0.88       0.0  T
   2   -100.7129741  0.465822E-02  0.305E-01    1.02       1.0  T
   3   -100.7196649 -0.669080E-02  0.114E-01    0.87       1.0  T
   4   -100.7194314  0.233492E-03  0.780E-02    1.00       1.0  T
   5   -100.7200765 -0.645166E-03  0.124E-02    0.91       1.0  T
   6   -100.7200917 -0.151479E-04  0.371E-03    0.92       3.2  T
   7   -100.7200922 -0.557072E-06  0.181E-03    0.92       6.5  T
   8   -100.7200923 -0.941056E-07  0.791E-04    0.92      14.9  T
   9   -100.7200923 -0.229971E-07  0.350E-04    0.92      33.7  T
     SCC iter.                  ...        0 min,  0.072 sec
     gradient                   ...        0 min,  0.069 sec
 * total energy  :  -110.5931980 Eh     change       -0.6383367E-02 Eh
   gradient norm :     0.0404283 Eh/α   predicted    -0.5833091E-02 (  -8.62%)
   displ. norm   :     0.2353821 α      lambda       -0.3018880E-02
   maximum displ.:     0.0766349 α      in ANC's #37, #35, #56, ...

........................................................................
.............................. CYCLE   11 ..............................
........................................................................

 iter      E             dE          RMSdq      gap      omega  full diag
   1   -100.7242815 -0.100724E+03  0.110E-01    0.93       0.0  T
   2   -100.7236820  0.599554E-03  0.119E-01    0.96       1.0  T
   3   -100.7245746 -0.892647E-03  0.502E-02    0.92       1.0  T
   4   -100.7245550  0.196572E-04  0.292E-02    0.97       1.0  T
   5   -100.7246430 -0.879838E-04  0.610E-03    0.93       1.9  T
   6   -100.7246466 -0.368172E-05  0.178E-03    0.94       6.6  T
   7   -100.7246467 -0.826784E-07  0.994E-04    0.94      11.9  T
   8   -100.7246468 -0.477703E-07  0.325E-04    0.94      36.2  T
     SCC iter.                  ...        0 min,  0.065 sec
     gradient                   ...        0 min,  0.075 sec
 * total energy  :  -110.5955322 Eh     change       -0.2334162E-02 Eh
   gradient norm :     0.0322164 Eh/α   predicted    -0.1593094E-02 ( -31.75%)
   displ. norm   :     0.3109922 α      lambda       -0.3894855E-02
   maximum displ.:     0.1094763 α      in ANC's #37, #35, #36, ...

........................................................................
.............................. CYCLE   12 ..............................
........................................................................

 iter      E             dE          RMSdq      gap      omega  full diag
   1   -100.7310861 -0.100731E+03  0.124E-01    0.96       0.0  T
   2   -100.7307471  0.338972E-03  0.107E-01    0.96       1.0  T
   3   -100.7311556 -0.408517E-03  0.677E-02    0.95       1.0  T
   4   -100.7312940 -0.138375E-03  0.192E-02    0.98       1.0  T
   5   -100.7313269 -0.329055E-04  0.678E-03    0.95       1.7  T
   6   -100.7313314 -0.451663E-05  0.228E-03    0.96       5.2  T
   7   -100.7313315 -0.127526E-06  0.124E-03    0.96       9.5  T
   8   -100.7313316 -0.861033E-07  0.357E-04    0.96      33.0  T
   9   -100.7313316 -0.705518E-08  0.143E-04    0.96      82.3  T
     SCC iter.                  ...        0 min,  0.073 sec
     gradient                   ...        0 min,  0.069 sec
 * total energy  :  -110.5984026 Eh     change       -0.2870405E-02 Eh
   gradient norm :     0.0398812 Eh/α   predicted    -0.2135786E-02 ( -25.59%)
   displ. norm   :     0.3221497 α      lambda       -0.3017066E-02
   maximum displ.:     0.1171019 α      in ANC's #37, #17, #35, ...

........................................................................
.............................. CYCLE   13 ..............................
........................................................................

 iter      E             dE          RMSdq      gap      omega  full diag
   1   -100.7345394 -0.100735E+03  0.133E-01    0.97       0.0  T
   2   -100.7343118  0.227561E-03  0.977E-02    0.98       1.0  T
   3   -100.7343558 -0.440284E-04  0.857E-02    0.96       1.0  T
   4   -100.7346853 -0.329442E-03  0.143E-02    0.98       1.0  T
   5   -100.7347025 -0.171862E-04  0.659E-03    0.96       1.8  T
   6   -100.7347070 -0.451919E-05  0.152E-03    0.97       7.8  T
   7   -100.7347070 -0.448997E-07  0.929E-04    0.97      12.7  T
   8   -100.7347071 -0.410995E-07  0.263E-04    0.97      44.9  T
     SCC iter.                  ...        0 min,  0.066 sec
     gradient                   ...        0 min,  0.069 sec
 * total energy  :  -110.6006692 Eh     change       -0.2266637E-02 Eh
   gradient norm :     0.0467720 Eh/α   predicted    -0.1665096E-02 ( -26.54%)
   displ. norm   :     0.3086156 α      lambda       -0.2584561E-02
   maximum displ.:     0.1127687 α      in ANC's #37, #17, #31, ...

........................................................................
.............................. CYCLE   14 ..............................
........................................................................

 iter      E             dE          RMSdq      gap      omega  full diag
   1   -100.7375647 -0.100738E+03  0.130E-01    0.97       0.0  T
   2   -100.7374933  0.714062E-04  0.820E-02    0.98       1.0  T
   3   -100.7370934  0.399896E-03  0.938E-02    0.95       1.0  T
   4   -100.7376205 -0.527165E-03  0.826E-03    0.98       1.4  T
   5   -100.7376238 -0.324140E-05  0.568E-03    0.97       2.1  T
   6   -100.7376272 -0.339513E-05  0.112E-03    0.97      10.5  T
   7   -100.7376272 -0.143571E-07  0.588E-04    0.97      20.0  T
   8   -100.7376272 -0.166091E-07  0.176E-04    0.97      66.8  T
     SCC iter.                  ...        0 min,  0.065 sec
     gradient                   ...        0 min,  0.069 sec
 * total energy  :  -110.6025143 Eh     change       -0.1845018E-02 Eh
   gradient norm :     0.0425931 Eh/α   predicted    -0.1415362E-02 ( -23.29%)
   displ. norm   :     0.2645761 α      lambda       -0.1652447E-02
   maximum displ.:     0.0982359 α      in ANC's #37, #17, #31, ...

........................................................................
.............................. CYCLE   15 ..............................
........................................................................

 iter      E             dE          RMSdq      gap      omega  full diag
   1   -100.7388743 -0.100739E+03  0.109E-01    0.97       0.0  T
   2   -100.7388196  0.546952E-04  0.673E-02    0.98       1.0  T
   3   -100.7385515  0.268173E-03  0.797E-02    0.95       1.0  T
   4   -100.7389140 -0.362533E-03  0.737E-03    0.98       1.6  T
   5   -100.7389175 -0.345707E-05  0.469E-03    0.97       2.5  T
   6   -100.7389197 -0.229311E-05  0.106E-03    0.97      11.1  T
   7   -100.7389198 -0.253224E-07  0.601E-04    0.97      19.6  T
   8   -100.7389198 -0.140772E-07  0.199E-04    0.97      59.2  T
     SCC iter.                  ...        0 min,  0.065 sec
     gradient                   ...        0 min,  0.069 sec
 * total energy  :  -110.6036973 Eh     change       -0.1182990E-02 Eh
   gradient norm :     0.0209621 Eh/α   predicted    -0.8840701E-03 ( -25.27%)
   displ. norm   :     0.2467394 α      lambda       -0.1541477E-02
   maximum displ.:     0.0815296 α      in ANC's #37, #31, #17, ...

........................................................................
.............................. CYCLE   16 ..............................
........................................................................

 iter      E             dE          RMSdq      gap      omega  full diag
   1   -100.7435071 -0.100744E+03  0.885E-02    0.97       0.0  T
   2   -100.7435078 -0.720875E-06  0.533E-02    0.96       1.0  T
   3   -100.7433691  0.138698E-03  0.383E-02    1.01       1.0  T
   4   -100.7435086 -0.139491E-03  0.953E-03    0.96       1.2  T
   5   -100.7435179 -0.930648E-05  0.215E-03    0.97       5.5  T
   6   -100.7435181 -0.184119E-06  0.919E-04    0.97      12.8  T
   7   -100.7435181 -0.121316E-07  0.655E-04    0.97      18.0  T
     SCC iter.                  ...        0 min,  0.057 sec
     gradient                   ...        0 min,  0.071 sec
 * total energy  :  -110.6045993 Eh     change       -0.9020788E-03 Eh
   gradient norm :     0.0202666 Eh/α   predicted    -0.8176644E-03 (  -9.36%)
   displ. norm   :     0.3390280 α      lambda       -0.1503815E-02
   maximum displ.:     0.1327704 α      in ANC's #37, #31, #17, ...

........................................................................
.............................. CYCLE   17 ..............................
........................................................................

 iter      E             dE          RMSdq      gap      omega  full diag
   1   -100.7408187 -0.100741E+03  0.122E-01    0.96       0.0  T
   2   -100.7407586  0.600299E-04  0.719E-02    0.98       1.0  T
   3   -100.7404179  0.340679E-03  0.910E-02    0.95       1.0  T
   4   -100.7408639 -0.445929E-03  0.822E-03    0.98       1.4  T
   5   -100.7408697 -0.583721E-05  0.495E-03    0.96       2.4  T
   6   -100.7408717 -0.203082E-05  0.201E-03    0.97       5.9  T
   7   -100.7408720 -0.216228E-06  0.844E-04    0.97      14.0  T
   8   -100.7408720 -0.225870E-07  0.271E-04    0.97      43.5  T
     SCC iter.                  ...        0 min,  0.065 sec
     gradient                   ...        0 min,  0.069 sec
 * total energy  :  -110.6053026 Eh     change       -0.7032961E-03 Eh
   gradient norm :     0.0222517 Eh/α   predicted    -0.8383346E-03 (  19.20%)
   displ. norm   :     0.1149827 α      lambda       -0.1081099E-02
   maximum displ.:     0.0332009 α      in ANC's #31, #64, #40, ...

........................................................................
.............................. CYCLE   18 ..............................
........................................................................

 iter      E             dE          RMSdq      gap      omega  full diag
   1   -100.7436772 -0.100744E+03  0.419E-02    0.97       0.0  T
   2   -100.7436770  0.110394E-06  0.254E-02    0.96       1.0  T
   3   -100.7436319  0.451442E-04  0.277E-02    0.98       1.0  T
   4   -100.7436823 -0.504492E-04  0.329E-03    0.97       3.6  T
   5   -100.7436827 -0.318602E-06  0.264E-03    0.97       4.5  T
   6   -100.7436832 -0.571200E-06  0.868E-04    0.97      13.6  T
   7   -100.7436832  0.173212E-08  0.652E-04    0.97      18.1  T
     SCC iter.                  ...        0 min,  0.058 sec
     gradient                   ...        0 min,  0.069 sec
 * total energy  :  -110.6060342 Eh     change       -0.7315885E-03 Eh
   gradient norm :     0.0326437 Eh/α   predicted    -0.5477230E-03 ( -25.13%)
   displ. norm   :     0.2091066 α      lambda       -0.1050855E-02
   maximum displ.:     0.0762288 α      in ANC's #31, #37, #12, ...

........................................................................
.............................. CYCLE   19 ..............................
........................................................................

 iter      E             dE          RMSdq      gap      omega  full diag
   1   -100.7441706 -0.100744E+03  0.578E-02    0.97       0.0  T
   2   -100.7441662  0.442561E-05  0.365E-02    0.97       1.0  T
   3   -100.7440816  0.845614E-04  0.390E-02    0.97       1.0  T
   4   -100.7441801 -0.985094E-04  0.380E-03    0.97       3.1  T
   5   -100.7441806 -0.415373E-06  0.290E-03    0.97       4.1  T
   6   -100.7441812 -0.653275E-06  0.116E-03    0.97      10.2  T
   7   -100.7441813 -0.386766E-07  0.845E-04    0.97      13.9  T
   8   -100.7441813 -0.463135E-07  0.223E-04    0.97      52.8  T
     SCC iter.                  ...        0 min,  0.065 sec
     gradient                   ...        0 min,  0.069 sec
 * total energy  :  -110.6065629 Eh     change       -0.5286364E-03 Eh
   gradient norm :     0.0279610 Eh/α   predicted    -0.5484123E-03 (   3.74%)
   displ. norm   :     0.1128805 α      lambda       -0.3943421E-03
   maximum displ.:     0.0468363 α      in ANC's #37, #31, #17, ...

........................................................................
.............................. CYCLE   20 ..............................
........................................................................

 iter      E             dE          RMSdq      gap      omega  full diag
   1   -100.7423393 -0.100742E+03  0.327E-02    0.96       0.0  T
   2   -100.7423327  0.661849E-05  0.206E-02    0.98       1.0  T
   3   -100.7423027  0.299196E-04  0.251E-02    0.95       1.0  T
   4   -100.7423431 -0.403623E-04  0.328E-03    0.97       3.6  T
   5   -100.7423441 -0.978249E-06  0.120E-03    0.97       9.8  T
   6   -100.7423442 -0.843688E-07  0.667E-04    0.97      17.7  T
   7   -100.7423442 -0.154853E-07  0.287E-04    0.97      41.1  T
     SCC iter.                  ...        0 min,  0.061 sec
     gradient                   ...        0 min,  0.069 sec
 * total energy  :  -110.6068501 Eh     change       -0.2872049E-03 Eh
   gradient norm :     0.0097285 Eh/α   predicted    -0.1996996E-03 ( -30.47%)
   displ. norm   :     0.1646985 α      lambda       -0.4626914E-03
   maximum displ.:     0.0671542 α      in ANC's #37, #12, #17, ...
 * RMSD in coord.:     0.4741837 α      energy gain  -0.4350121E+01 Eh

generating ANC from model Hessian ...
Using Lindh-Hessian (1995)
 Shifting diagonal of input Hessian by    9.9258507089951976E-003
 Lowest  eigenvalues of input Hessian
    0.000000    0.000000    0.000000    0.000000    0.000000    0.000000
    0.010000    0.010045    0.010093    0.010237    0.010381    0.010542
    0.010619    0.010818    0.011022    0.011475    0.011809    0.012390
 Highest eigenvalues
    2.155344    2.180968    2.190407    2.651661    4.114873    4.148452


........................................................................
.............................. CYCLE   21 ..............................
........................................................................

 iter      E             dE          RMSdq      gap      omega  full diag
   1   -100.7407559 -0.100741E+03  0.450E-02    0.97       0.0  T
   2   -100.7407526  0.325438E-05  0.270E-02    0.98       1.0  T
   3   -100.7406953  0.573520E-04  0.319E-02    0.95       1.0  T
   4   -100.7407599 -0.645994E-04  0.406E-03    0.97       2.9  T
   5   -100.7407612 -0.130961E-05  0.199E-03    0.97       5.9  T
   6   -100.7407615 -0.312465E-06  0.882E-04    0.97      13.4  T
   7   -100.7407615 -0.314226E-07  0.410E-04    0.97      28.7  T
     SCC iter.                  ...        0 min,  0.057 sec
     gradient                   ...        0 min,  0.070 sec
 * total energy  :  -110.6071865 Eh     change       -0.3364930E-03 Eh
   gradient norm :     0.0080807 Eh/α   predicted     0.0000000E+00 (-100.00%)
   displ. norm   :     0.1410133 α      lambda       -0.4835180E-03
   maximum displ.:     0.0567273 α      in ANC's #27, #10, #41, ...

........................................................................
.............................. CYCLE   22 ..............................
........................................................................

 iter      E             dE          RMSdq      gap      omega  full diag
   1   -100.7420424 -0.100742E+03  0.412E-02    0.98       0.0  T
   2   -100.7420404  0.208326E-05  0.255E-02    0.97       1.0  T
   3   -100.7419835  0.568592E-04  0.256E-02    0.99       1.0  T
   4   -100.7420441 -0.605687E-04  0.512E-03    0.97       2.3  T
   5   -100.7420466 -0.254045E-05  0.113E-03    0.97      10.5  T
   6   -100.7420467 -0.966300E-07  0.421E-04    0.97      28.0  T
   7   -100.7420467 -0.148361E-09  0.258E-04    0.97      45.6  T
     SCC iter.                  ...        0 min,  0.057 sec
     gradient                   ...        0 min,  0.069 sec
 * total energy  :  -110.6075603 Eh     change       -0.3737800E-03 Eh
   gradient norm :     0.0082457 Eh/α   predicted    -0.2465736E-03 ( -34.03%)
   displ. norm   :     0.2696303 α      lambda       -0.5760283E-03
   maximum displ.:     0.1088028 α      in ANC's #27, #7, #17, ...

........................................................................
.............................. CYCLE   23 ..............................
........................................................................

 iter      E             dE          RMSdq      gap      omega  full diag
   1   -100.7427660 -0.100743E+03  0.698E-02    0.98       0.0  T
   2   -100.7427643  0.166937E-05  0.423E-02    0.97       1.0  T
   3   -100.7426578  0.106510E-03  0.332E-02    1.00       1.0  T
   4   -100.7427680 -0.110140E-03  0.712E-03    0.97       1.7  T
   5   -100.7427730 -0.499172E-05  0.157E-03    0.97       7.5  T
   6   -100.7427731 -0.138332E-06  0.746E-04    0.97      15.8  T
   7   -100.7427731 -0.420860E-08  0.420E-04    0.97      28.0  T
     SCC iter.                  ...        0 min,  0.057 sec
     gradient                   ...        0 min,  0.069 sec
 * total energy  :  -110.6077856 Eh     change       -0.2253003E-03 Eh
   gradient norm :     0.0475483 Eh/α   predicted    -0.3089787E-03 (  37.14%)
   displ. norm   :     0.2625078 α      lambda       -0.6371554E-03
   maximum displ.:     0.1032005 α      in ANC's #27, #7, #28, ...

........................................................................
.............................. CYCLE   24 ..............................
........................................................................

 iter      E             dE          RMSdq      gap      omega  full diag
   1   -100.7424714 -0.100742E+03  0.640E-02    0.98       0.0  T
   2   -100.7424716 -0.161921E-06  0.383E-02    0.97       1.0  T
   3   -100.7424064  0.652045E-04  0.260E-02    0.99       1.0  T
   4   -100.7424736 -0.672473E-04  0.509E-03    0.97       2.3  T
   5   -100.7424761 -0.243279E-05  0.198E-03    0.98       5.9  T
   6   -100.7424763 -0.286065E-06  0.767E-04    0.97      15.4  T
   7   -100.7424763  0.140538E-08  0.573E-04    0.97      20.6  T
     SCC iter.                  ...        0 min,  0.058 sec
     gradient                   ...        0 min,  0.075 sec
 * total energy  :  -110.6078371 Eh     change       -0.5150530E-04 Eh
   gradient norm :     0.0508536 Eh/α   predicted    -0.3405315E-03 ( 561.16%)
   displ. norm   :     0.0844085 α      lambda       -0.3860449E-03
   maximum displ.:     0.0291816 α      in ANC's #27, #37, #41, ...

........................................................................
.............................. CYCLE   25 ..............................
........................................................................

 iter      E             dE          RMSdq      gap      omega  full diag
   1   -100.7432332 -0.100743E+03  0.300E-02    0.97       0.0  T
   2   -100.7432313  0.187311E-05  0.188E-02    0.98       1.0  T
   3   -100.7432022  0.291175E-04  0.202E-02    0.96       1.0  T
   4   -100.7432345 -0.323637E-04  0.425E-03    0.98       2.8  T
   5   -100.7432363 -0.178229E-05  0.978E-04    0.97      12.1  T
   6   -100.7432364 -0.802101E-07  0.352E-04    0.97      33.5  T
   7   -100.7432364 -0.110768E-08  0.268E-04    0.97      44.0  T
     SCC iter.                  ...        0 min,  0.058 sec
     gradient                   ...        0 min,  0.069 sec
 * total energy  :  -110.6080823 Eh     change       -0.2451222E-03 Eh
   gradient norm :     0.0117088 Eh/α   predicted    -0.1944193E-03 ( -20.68%)
   displ. norm   :     0.0970390 α      lambda       -0.1445843E-03
   maximum displ.:     0.0442604 α      in ANC's #7, #28, #27, ...

........................................................................
.............................. CYCLE   26 ..............................
........................................................................

 iter      E             dE          RMSdq      gap      omega  full diag
   1   -100.7431911 -0.100743E+03  0.235E-02    0.97       0.0  T
   2   -100.7431890  0.202897E-05  0.147E-02    0.98       1.0  T
   3   -100.7431693  0.197753E-04  0.178E-02    0.96       1.0  T
   4   -100.7431922 -0.229758E-04  0.176E-03    0.98       6.7  T
   5   -100.7431925 -0.273792E-06  0.750E-04    0.97      15.7  T
   6   -100.7431925 -0.399624E-07  0.307E-04    0.97      38.4  T
     SCC iter.                  ...        0 min,  0.049 sec
     gradient                   ...        0 min,  0.069 sec
 * total energy  :  -110.6081984 Eh     change       -0.1160928E-03 Eh
   gradient norm :     0.0100480 Eh/α   predicted    -0.7299353E-04 ( -37.12%)
   displ. norm   :     0.2690741 α      lambda       -0.2610155E-03
   maximum displ.:     0.1251893 α      in ANC's #7, #27, #28, ...

........................................................................
.............................. CYCLE   27 ..............................
........................................................................

 iter      E             dE          RMSdq      gap      omega  full diag
   1   -100.7425893 -0.100743E+03  0.582E-02    0.97       0.0  T
   2   -100.7425795  0.980783E-05  0.356E-02    0.98       1.0  T
   3   -100.7424530  0.126551E-03  0.438E-02    0.94       1.0  T
   4   -100.7425948 -0.141781E-03  0.341E-03    0.98       3.5  T
   5   -100.7425957 -0.947484E-06  0.148E-03    0.97       7.9  T
   6   -100.7425958 -0.129661E-06  0.605E-04    0.97      19.5  T
   7   -100.7425959 -0.591609E-08  0.231E-04    0.97      51.0  T
     SCC iter.                  ...        0 min,  0.057 sec
     gradient                   ...        0 min,  0.070 sec
 * total energy  :  -110.6083910 Eh     change       -0.1926366E-03 Eh
   gradient norm :     0.0175011 Eh/α   predicted    -0.1399728E-03 ( -27.34%)
   displ. norm   :     0.3197097 α      lambda       -0.2266679E-03
   maximum displ.:     0.1534480 α      in ANC's #7, #27, #28, ...

........................................................................
.............................. CYCLE   28 ..............................
........................................................................

 iter      E             dE          RMSdq      gap      omega  full diag
   1   -100.7417625 -0.100742E+03  0.636E-02    0.97       0.0  T
   2   -100.7417547  0.779705E-05  0.382E-02    0.98       1.0  T
   3   -100.7416171  0.137626E-03  0.453E-02    0.94       1.0  T
   4   -100.7417672 -0.150152E-03  0.393E-03    0.98       3.0  T
   5   -100.7417686 -0.135806E-05  0.156E-03    0.97       7.6  T
   6   -100.7417687 -0.114894E-06  0.833E-04    0.97      14.1  T
   7   -100.7417687 -0.205732E-07  0.437E-04    0.97      27.0  T
     SCC iter.                  ...        0 min,  0.057 sec
     gradient                   ...        0 min,  0.069 sec
 * total energy  :  -110.6085629 Eh     change       -0.1719473E-03 Eh
   gradient norm :     0.0140577 Eh/α   predicted    -0.1249326E-03 ( -27.34%)
   displ. norm   :     0.3447491 α      lambda       -0.2383571E-03
   maximum displ.:     0.1719990 α      in ANC's #7, #27, #28, ...

........................................................................
.............................. CYCLE   29 ..............................
........................................................................

 iter      E             dE          RMSdq      gap      omega  full diag
   1   -100.7417318 -0.100742E+03  0.624E-02    0.97       0.0  T
   2   -100.7417279  0.384500E-05  0.371E-02    0.98       1.0  T
   3   -100.7416258  0.102153E-03  0.393E-02    0.95       1.0  T
   4   -100.7417354 -0.109645E-03  0.465E-03    0.98       2.5  T
   5   -100.7417374 -0.197024E-05  0.170E-03    0.97       6.9  T
   6   -100.7417375 -0.155422E-06  0.945E-04    0.97      12.5  T
   7   -100.7417376 -0.282885E-07  0.562E-04    0.97      21.0  T
     SCC iter.                  ...        0 min,  0.057 sec
     gradient                   ...        0 min,  0.069 sec
 * total energy  :  -110.6087396 Eh     change       -0.1766832E-03 Eh
   gradient norm :     0.0139485 Eh/α   predicted    -0.1333498E-03 ( -24.53%)
   displ. norm   :     0.2848229 α      lambda       -0.2480785E-03
   maximum displ.:     0.1444556 α      in ANC's #7, #11, #3, ...

........................................................................
.............................. CYCLE   30 ..............................
........................................................................

 iter      E             dE          RMSdq      gap      omega  full diag
   1   -100.7434460 -0.100743E+03  0.447E-02    0.97       0.0  T
   2   -100.7434455  0.430255E-06  0.269E-02    0.97       1.0  T
   3   -100.7434060  0.395500E-04  0.223E-02    0.98       1.0  T
   4   -100.7434493 -0.432938E-04  0.330E-03    0.97       3.6  T
   5   -100.7434501 -0.793206E-06  0.148E-03    0.97       8.0  T
   6   -100.7434502 -0.159648E-06  0.624E-04    0.97      18.9  T
   7   -100.7434502  0.729916E-08  0.548E-04    0.97      21.5  T
     SCC iter.                  ...        0 min,  0.058 sec
     gradient                   ...        0 min,  0.069 sec
 * total energy  :  -110.6089226 Eh     change       -0.1829757E-03 Eh
   gradient norm :     0.0248449 Eh/α   predicted    -0.1341055E-03 ( -26.71%)
   displ. norm   :     0.2189122 α      lambda       -0.2670035E-03
   maximum displ.:     0.0951206 α      in ANC's #7, #11, #3, ...

........................................................................
.............................. CYCLE   31 ..............................
........................................................................

 iter      E             dE          RMSdq      gap      omega  full diag
   1   -100.7461143 -0.100746E+03  0.347E-02    0.98       0.0  T
   2   -100.7461111  0.312898E-05  0.222E-02    0.97       1.0  T
   3   -100.7460625  0.486069E-04  0.237E-02    1.00       1.0  T
   4   -100.7461167 -0.541707E-04  0.492E-03    0.97       2.4  T
   5   -100.7461189 -0.225568E-05  0.126E-03    0.97       9.4  T
   6   -100.7461190 -0.961044E-07  0.536E-04    0.97      22.0  T
   7   -100.7461190  0.218253E-08  0.376E-04    0.97      31.4  T
     SCC iter.                  ...        0 min,  0.057 sec
     gradient                   ...        0 min,  0.071 sec
 * total energy  :  -110.6091117 Eh     change       -0.1891424E-03 Eh
   gradient norm :     0.0256238 Eh/α   predicted    -0.1399286E-03 ( -26.02%)
   displ. norm   :     0.2057966 α      lambda       -0.2074069E-03
   maximum displ.:     0.0755810 α      in ANC's #7, #11, #3, ...

........................................................................
.............................. CYCLE   32 ..............................
........................................................................

 iter      E             dE          RMSdq      gap      omega  full diag
   1   -100.7460924 -0.100746E+03  0.326E-02    0.97       0.0  T
   2   -100.7460922  0.143935E-06  0.194E-02    0.97       1.0  T
   3   -100.7460642  0.279959E-04  0.162E-02    0.99       1.0  T
   4   -100.7460934 -0.291671E-04  0.326E-03    0.97       3.6  T
   5   -100.7460942 -0.850382E-06  0.114E-03    0.97      10.4  T
   6   -100.7460943 -0.772783E-07  0.485E-04    0.97      24.3  T
   7   -100.7460943 -0.356181E-08  0.239E-04    0.97      49.3  T
     SCC iter.                  ...        0 min,  0.057 sec
     gradient                   ...        0 min,  0.069 sec
 * total energy  :  -110.6092676 Eh     change       -0.1558611E-03 Eh
   gradient norm :     0.0205162 Eh/α   predicted    -0.1081034E-03 ( -30.64%)
   displ. norm   :     0.2096136 α      lambda       -0.2017403E-03
   maximum displ.:     0.0668750 α      in ANC's #11, #3, #8, ...

........................................................................
.............................. CYCLE   33 ..............................
........................................................................

 iter      E             dE          RMSdq      gap      omega  full diag
   1   -100.7451193 -0.100745E+03  0.388E-02    0.97       0.0  T
   2   -100.7451199 -0.596156E-06  0.227E-02    0.97       1.0  T
   3   -100.7451092  0.107071E-04  0.933E-03    0.98       1.3  T
   4   -100.7451204 -0.111442E-04  0.239E-03    0.97       4.9  T
   5   -100.7451207 -0.302875E-06  0.139E-03    0.97       8.5  T
   6   -100.7451208 -0.108175E-06  0.594E-04    0.97      19.8  T
   7   -100.7451208 -0.147224E-07  0.284E-04    0.97      41.5  T
     SCC iter.                  ...        0 min,  0.057 sec
     gradient                   ...        0 min,  0.069 sec
 * total energy  :  -110.6094098 Eh     change       -0.1422227E-03 Eh
   gradient norm :     0.0088765 Eh/α   predicted    -0.1053053E-03 ( -25.96%)
   displ. norm   :     0.2265722 α      lambda       -0.1278151E-03
   maximum displ.:     0.0796924 α      in ANC's #7, #8, #3, ...

........................................................................
.............................. CYCLE   34 ..............................
........................................................................

 iter      E             dE          RMSdq      gap      omega  full diag
   1   -100.7435266 -0.100744E+03  0.377E-02    0.97       0.0  T
   2   -100.7435266  0.643730E-07  0.225E-02    0.97       1.0  T
   3   -100.7434979  0.286940E-04  0.195E-02    0.96       1.0  T
   4   -100.7435281 -0.302107E-04  0.257E-03    0.97       4.6  T
   5   -100.7435285 -0.406283E-06  0.139E-03    0.97       8.5  T
   6   -100.7435286 -0.136236E-06  0.723E-04    0.97      16.3  T
   7   -100.7435287 -0.178312E-07  0.387E-04    0.97      30.4  T
     SCC iter.                  ...        0 min,  0.057 sec
     gradient                   ...        0 min,  0.069 sec
 * total energy  :  -110.6094935 Eh     change       -0.8372726E-04 Eh
   gradient norm :     0.0144708 Eh/α   predicted    -0.6719941E-04 ( -19.74%)
   displ. norm   :     0.1737136 α      lambda       -0.1546338E-03
   maximum displ.:     0.0537104 α      in ANC's #8, #10, #6, ...

........................................................................
.............................. CYCLE   35 ..............................
........................................................................

 iter      E             dE          RMSdq      gap      omega  full diag
   1   -100.7445827 -0.100745E+03  0.484E-02    0.97       0.0  T
   2   -100.7445832 -0.555334E-06  0.285E-02    0.97       1.0  T
   3   -100.7445626  0.205848E-04  0.146E-02    0.99       1.0  T
   4   -100.7445839 -0.213252E-04  0.274E-03    0.97       4.3  T
   5   -100.7445844 -0.447746E-06  0.140E-03    0.97       8.4  T
   6   -100.7445844 -0.447918E-07  0.920E-04    0.97      12.8  T
   7   -100.7445845 -0.441338E-07  0.383E-04    0.97      30.7  T
     SCC iter.                  ...        0 min,  0.058 sec
     gradient                   ...        0 min,  0.069 sec
 * total energy  :  -110.6095294 Eh     change       -0.3584245E-04 Eh
   gradient norm :     0.0223759 Eh/α   predicted    -0.7965718E-04 ( 122.24%)
   displ. norm   :     0.1640196 α      lambda       -0.1110817E-03
   maximum displ.:     0.0655231 α      in ANC's #7, #8, #3, ...

........................................................................
.............................. CYCLE   36 ..............................
........................................................................

 iter      E             dE          RMSdq      gap      omega  full diag
   1   -100.7439701 -0.100744E+03  0.294E-02    0.97       0.0  T
   2   -100.7439696  0.492366E-06  0.175E-02    0.97       1.0  T
   3   -100.7439481  0.214463E-04  0.181E-02    0.96       1.0  T
   4   -100.7439714 -0.232503E-04  0.235E-03    0.97       5.0  T
   5   -100.7439717 -0.330110E-06  0.117E-03    0.97      10.1  T
   6   -100.7439718 -0.844637E-07  0.586E-04    0.97      20.1  T
   7   -100.7439718 -0.133964E-07  0.343E-04    0.97      34.4  T
     SCC iter.                  ...        0 min,  0.058 sec
     gradient                   ...        0 min,  0.069 sec
 * total energy  :  -110.6095984 Eh     change       -0.6904723E-04 Eh
   gradient norm :     0.0049012 Eh/α   predicted    -0.5704529E-04 ( -17.38%)
   displ. norm   :     0.0769265 α      lambda       -0.5481547E-04
   maximum displ.:     0.0228211 α      in ANC's #27, #14, #8, ...

........................................................................
.............................. CYCLE   37 ..............................
........................................................................

 iter      E             dE          RMSdq      gap      omega  full diag
   1   -100.7446109 -0.100745E+03  0.175E-02    0.97       0.0  T
   2   -100.7446107  0.134283E-06  0.104E-02    0.97       1.1  T
   3   -100.7446046  0.610174E-05  0.978E-03    0.97       1.2  T
   4   -100.7446113 -0.667537E-05  0.104E-03    0.97      11.3  T
   5   -100.7446114 -0.685523E-07  0.435E-04    0.97      27.1  T
   6   -100.7446114 -0.680589E-08  0.202E-04    0.97      58.4  T
     SCC iter.                  ...        0 min,  0.049 sec
     gradient                   ...        0 min,  0.069 sec
 * total energy  :  -110.6096409 Eh     change       -0.4241910E-04 Eh
   gradient norm :     0.0086543 Eh/α   predicted    -0.2758548E-04 ( -34.97%)
   displ. norm   :     0.1536286 α      lambda       -0.7252496E-04
   maximum displ.:     0.0528189 α      in ANC's #8, #14, #3, ...

........................................................................
.............................. CYCLE   38 ..............................
........................................................................

 iter      E             dE          RMSdq      gap      omega  full diag
   1   -100.7452854 -0.100745E+03  0.346E-02    0.97       0.0  T
   2   -100.7452853  0.233510E-07  0.202E-02    0.97       1.0  T
   3   -100.7452652  0.201494E-04  0.173E-02    0.97       1.0  T
   4   -100.7452870 -0.218108E-04  0.186E-03    0.97       6.3  T
   5   -100.7452872 -0.149097E-06  0.990E-04    0.97      11.9  T
   6   -100.7452872 -0.294043E-07  0.435E-04    0.97      27.1  T
     SCC iter.                  ...        0 min,  0.049 sec
     gradient                   ...        0 min,  0.069 sec
 * total energy  :  -110.6096896 Eh     change       -0.4869607E-04 Eh
   gradient norm :     0.0080511 Eh/α   predicted    -0.3713033E-04 ( -23.75%)
   displ. norm   :     0.1373146 α      lambda       -0.3616741E-04
   maximum displ.:     0.0522729 α      in ANC's #8, #3, #6, ...

........................................................................
.............................. CYCLE   39 ..............................
........................................................................

 iter      E             dE          RMSdq      gap      omega  full diag
   1   -100.7451774 -0.100745E+03  0.312E-02    0.97       0.0  T
   2   -100.7451779 -0.478105E-06  0.179E-02    0.97       1.0  T
   3   -100.7451699  0.802845E-05  0.106E-02    0.97       1.1  T
   4   -100.7451786 -0.866650E-05  0.161E-03    0.97       7.3  T
   5   -100.7451786 -0.716690E-07  0.961E-04    0.97      12.3  T
   6   -100.7451787 -0.344125E-07  0.400E-04    0.97      29.4  T
     SCC iter.                  ...        0 min,  0.049 sec
     gradient                   ...        0 min,  0.071 sec
 * total energy  :  -110.6097167 Eh     change       -0.2712667E-04 Eh
   gradient norm :     0.0061414 Eh/α   predicted    -0.1842835E-04 ( -32.07%)
   displ. norm   :     0.1599744 α      lambda       -0.3914500E-04
   maximum displ.:     0.0584852 α      in ANC's #8, #6, #4, ...

........................................................................
.............................. CYCLE   40 ..............................
........................................................................

 iter      E             dE          RMSdq      gap      omega  full diag
   1   -100.7449344 -0.100745E+03  0.380E-02    0.97       0.0  T
   2   -100.7449354 -0.103077E-05  0.217E-02    0.97       1.0  T
   3   -100.7449308  0.467316E-05  0.767E-03    0.97       1.5  T
   4   -100.7449360 -0.521476E-05  0.184E-03    0.97       6.4  T
   5   -100.7449360 -0.939369E-08  0.141E-03    0.97       8.3  T
   6   -100.7449361 -0.123352E-06  0.597E-04    0.97      19.7  T
   7   -100.7449361 -0.276749E-07  0.230E-04    0.97      51.2  T
     SCC iter.                  ...        0 min,  0.057 sec
     gradient                   ...        0 min,  0.069 sec
 * total energy  :  -110.6097449 Eh     change       -0.2821921E-04 Eh
   gradient norm :     0.0021765 Eh/α   predicted    -0.2008003E-04 ( -28.84%)
   displ. norm   :     0.1769084 α      lambda       -0.3290230E-04
   maximum displ.:     0.0666075 α      in ANC's #8, #3, #6, ...

   *** GEOMETRY OPTIMIZATION CONVERGED AFTER 40 ITERATIONS ***

------------------------------------------------------------------------
 total energy gain   :        -4.3530154 Eh    -2731.5584 kcal/mol
 total RMSD          :         0.6352842 a0        0.3362 Å
 total power (kW/mol):      -285.7210069 (step)-1803.2424 (real)
------------------------------------------------------------------------

 ANCopt (total)                0 d,  0 h,  0 min,  6.338 sec
 optimizer setup                ...        0 min,  0.000 sec (  0.004%)
 model hessian                  ...        0 min,  0.113 sec (  1.791%)
 ANC generation                 ...        0 min,  0.013 sec (  0.205%)
 coordinate transformation      ...        0 min,  0.003 sec (  0.045%)
 single point calculation       ...        0 min,  6.157 sec ( 97.143%)
 optimization log               ...        0 min,  0.010 sec (  0.161%)
 hessian update                 ...        0 min,  0.003 sec (  0.042%)
 rational function              ...        0 min,  0.020 sec (  0.308%)

================
 final structure:
================
72
 xtb: 6.6.1 (8d0f1dd)
N           -1.80993183557098        2.61988600217702        2.22876018077959
C           -1.71350142439725        2.05204090787508        1.11785073400383
C           -2.86889357748964        1.86722813044269        0.16609858521015
C           -3.37807601030363        0.44444155893104        0.26567968990189
C           -4.35441419848496       -0.01477847180389       -0.57057487942310
C           -4.87955721937876       -1.31223488507649       -0.48614645971303
O           -5.85424365914478       -1.80307831387249       -1.25367278849306
C           -6.47726688925270       -0.98569837043600       -2.21910922166260
C           -4.35343216075157       -2.22740990466522        0.49637039394145
O           -4.91303777287959       -3.45382848194043        0.45780683196328
C           -4.51846082615976       -4.41188950177384        1.41286119740141
C           -3.37978430008924       -1.81564528492868        1.34266013686633
C           -2.79040104171548       -0.42459249488750        1.35319762756854
C           -2.33124142241372        2.14719974791171       -1.26407469603604
C           -1.45133917728865        1.03659528520480       -1.86616435243385
C           -0.08914533689306        0.96542097561095       -1.27193105341119
N            0.51044781822494       -0.13544514840192       -0.83079065210058
C            1.89245061113604        0.01395055798794       -0.38057520217633
C            2.88220791813905       -0.22745497658399       -1.52956646302079
C            4.28903633802497       -0.04042988623868       -1.03124222136112
C            4.94339361085099        1.17005273410730       -1.18595697511240
C            6.22536929598103        1.35322636757101       -0.68943082314654
C            6.87539953646718        0.32828164157741       -0.01774322823769
O            8.11050900543438        0.39458052204675        0.51265609246771
C            8.84139566241008        1.59432526053738        0.40716765393384
C            6.21150917375938       -0.91956136575501        0.14583120057760
O            6.91522896739035       -1.85966120543693        0.80744673421408
C            6.34877522091291       -3.13270145964457        1.00636928304360
C            4.93258436262663       -1.07949678690796       -0.36228255215678
C           -0.00073429570002       -1.35705444846688       -0.77002325432185
C           -4.05882167522730        2.83722236337696        0.46822846974353
C           -4.75668501585299        2.49572477543341        1.78307481179658
C           -3.63843671205132        4.30391058675805        0.47770111122701
H           -4.74924393868177        0.64478218689681       -1.32693920843663
H           -6.94776564756796       -0.11212607773933       -1.75874115442024
H           -7.24346939256340       -1.60809031052379       -2.67737765575314
H           -5.76880806577498       -0.66118968302800       -2.98708678994834
H           -4.70232222830403       -4.05867077550488        2.43190057885663
H           -5.13242534317287       -5.28855171477959        1.21689703988888
H           -3.46206693654559       -4.67591477212685        1.30168165952436
H           -2.97033459449014       -2.48470485237592        2.08201162080945
H           -3.18099680357718        0.03612657681566        2.29998677901612
H           -3.18122065065919        2.29847746876808       -1.92910168477689
H           -1.76029795474373        3.07596362058000       -1.24494646808074
H           -1.96828647569794        0.08223109476126       -1.78679912440153
H           -1.34544133516451        1.26555304723791       -2.93357247853058
H           -0.77234232636850        1.63920819754534        0.71813877147369
H            0.50951554613320        1.86086496943120       -1.30635763453685
H            2.08428417728692       -0.70111290928356        0.42086633939722
H            2.03978101884974        1.02107280777353        0.01467419504724
H            2.67543147540819        0.47677250962860       -2.33660023241758
H            2.74649034324132       -1.23975633486307       -1.91350810653466
H            4.46105680554240        1.98310753067184       -1.70687156146801
H            6.71243056784262        2.30348121588112       -0.83454109432636
H            8.31760671685103        2.42657875773168        0.88735659532074
H            9.04871367453369        1.84654753836524       -0.63695653993932
H            9.77966305050814        1.41085335736681        0.92685337841864
H            7.10209401950509       -3.70685039937388        1.54245290763314
H            5.43874340454210       -3.07651568582520        1.61272781456945
H            6.12625013404601       -3.62670048390752        0.05551709144526
H            4.42372776729341       -2.02435702055342       -0.25254183746939
H           -0.98533583906526       -1.56735124574339       -1.13167300670592
H           -2.15096904513740       -0.43601602032027        1.35336783578904
H            0.59405252653992       -2.15313238797739       -0.37338194394585
H           -4.78309798742438        2.69939896365199       -0.34203762339030
H           -4.06390354413282        2.60366983879747        2.61145090751538
H           -5.15247622918207        1.48263203416557        1.77091208674175
H           -5.58735240853133        3.17929734134485        1.93844213345798
H           -2.92122488113395        4.48798035536780        1.27157841829539
H           -3.20806539301350        4.60866270703113       -0.47215791609195
H           -4.51266572381393        4.92314777306866        0.66116023185964
H           -0.96411585669285        2.70564387282010        2.78400460688538

 Bond Distances (Angstroems)
 ---------------------------
N1-C2=1.2513         N1-H72=1.0154        C2-N1=1.2513         C2-C3=1.5083         C2-H47=1.1027        C3-C2=1.5083         
C3-C4=1.5144         C3-C14=1.5533        C3-C31=1.5646        C4-C3=1.5144         C4-C5=1.3651         C4-C13=1.5111        
C5-C4=1.3651         C5-C6=1.4022         C5-H34=1.0784        C6-C5=1.4022         C6-O7=1.3342         C6-C9=1.4421         
O7-C6=1.3342         O7-C8=1.4101         C8-O7=1.4101         C8-H35=1.0938        C8-H36=1.0883        C8-H37=1.0941        
C9-C6=1.4421         C9-O10=1.3486        C9-C12=1.3542        O10-C9=1.3486        O10-C11=1.4091       C11-O10=1.4091       
C11-H38=1.0941       C11-H39=1.0881       C11-H40=1.0945       C12-C9=1.3542        C12-C13=1.5108       C12-H41=1.0779       
C13-C4=1.5111        C13-C12=1.5108       C13-H42=1.1230       C13-H63=0.6395       C14-C3=1.5533        C14-C15=1.5395       
C14-H43=1.0898       C14-H44=1.0904       C15-C14=1.5395       C15-C16=1.4879       C15-H45=1.0883       C15-H46=1.0968       
C16-C15=1.4879       C16-N17=1.3289       C16-H48=1.0777       N17-C16=1.3289       N17-C18=1.4611       N17-C30=1.3256       
C18-N17=1.4611       C18-C19=1.5356       C18-H49=1.0911       C18-H50=1.0919       C19-C18=1.5356       C19-C20=1.5042       
C19-H51=1.0909       C19-H52=1.0911       C20-C19=1.5042       C20-C21=1.3847       C20-C29=1.3933       C21-C20=1.3847       
C21-C22=1.3869       C21-H53=1.0794       C22-C21=1.3869       C22-C23=1.3872       C22-H54=1.0776       C23-C22=1.3872       
C23-O24=1.3458       C23-C26=1.4229       O24-C23=1.3458       O24-C25=1.4088       C25-O24=1.4088       C25-H55=1.0943       
C25-H56=1.0940       C25-H57=1.0882       C26-C23=1.4229       C26-O27=1.3479       C26-C29=1.3854       O27-C26=1.3479       
O27-C28=1.4075       C28-O27=1.4075       C28-H58=1.0884       C28-H59=1.0950       C28-H60=1.0944       C29-C20=1.3933       
C29-C26=1.3854       C29-H61=1.0788       C30-N17=1.3256       C30-H62=1.0698       C30-H64=1.0700       C31-C3=1.5646        
C31-C32=1.5272       C31-C33=1.5258       C31-H65=1.0955       C32-C31=1.5272       C32-H66=1.0853       C32-H67=1.0877       
C32-H68=1.0869       C33-C31=1.5258       C33-H69=1.0856       C33-H70=1.0864       C33-H71=1.0869       H34-C5=1.0784        
H35-C8=1.0938        H36-C8=1.0883        H37-C8=1.0941        H38-C11=1.0941       H39-C11=1.0881       H40-C11=1.0945       
H41-C12=1.0779       H42-C13=1.1230       H43-C14=1.0898       H44-C14=1.0904       H45-C15=1.0883       H46-C15=1.0968       
H47-C2=1.1027        H48-C16=1.0777       H49-C18=1.0911       H50-C18=1.0919       H51-C19=1.0909       H52-C19=1.0911       
H53-C21=1.0794       H54-C22=1.0776       H55-C25=1.0943       H56-C25=1.0940       H57-C25=1.0882       H58-C28=1.0884       
H59-C28=1.0950       H60-C28=1.0944       H61-C29=1.0788       H62-C30=1.0698       H63-C13=0.6395       H64-C30=1.0700       
H65-C31=1.0955       H66-C32=1.0853       H67-C32=1.0877       H68-C32=1.0869       H69-C33=1.0856       H70-C33=1.0864       
H71-C33=1.0869       H72-N1=1.0154        
 C  H  Rav=1.0770 sigma=0.0725  Rmin=0.6395  Rmax=1.1230    38
 C  C  Rav=1.4639 sigma=0.0691  Rmin=1.3542  Rmax=1.5646    22
 N  H  Rav=1.0154 sigma=0.0000  Rmin=1.0154  Rmax=1.0154     1
 N  C  Rav=1.3418 sigma=0.0756  Rmin=1.2513  Rmax=1.4611     4
 O  C  Rav=1.3765 sigma=0.0327  Rmin=1.3342  Rmax=1.4101     8

 selected bond angles (degree)
 --------------------
H72-N1-C2=117.36               C3-C2-N1=123.83                H47-C2-N1=123.88               H47-C2-C3=112.28               
C4-C3-C2=109.34                C14-C3-C2=107.08               C14-C3-C4=110.26               C31-C3-C2=112.63               
C31-C3-C4=108.30               C31-C3-C14=109.23              C5-C4-C3=121.08                C13-C4-C3=117.19               
C13-C4-C5=121.71               C6-C5-C4=122.84                H34-C5-C4=119.06               H34-C5-C6=118.10               
O7-C6-C5=125.41                C9-C6-C5=119.44                C9-C6-O7=115.15                C8-O7-C6=120.23                
H35-C8-O7=111.40               H36-C8-O7=105.54               H36-C8-H35=109.34              H37-C8-O7=111.50               
H37-C8-H35=109.70              H37-C8-H36=109.26              O10-C9-C6=113.97               C12-C9-C6=119.68               
C12-C9-O10=126.35              C11-O10-C9=118.86              

 selected dihedral angles (degree)
 ---------------------------------
C3-C2-N1-H72=181.10           H47-C2-N1-H72=  0.42          C4-C3-C2-N1=258.40            C4-C3-C2-H47= 79.01           
C14-C3-C2-N1=138.94           C14-C3-C2-H47=319.55          C31-C3-C2-N1= 18.85           C31-C3-C2-H47=199.46          
C5-C4-C3-C2=185.27            C5-C4-C3-C14=302.74           C5-C4-C3-C31= 62.20           C13-C4-C3-C2=  7.09           
C13-C4-C3-C14=124.57          C13-C4-C3-C31=244.03          C6-C5-C4-C3=181.86            C6-C5-C4-C13=359.95           
H34-C5-C4-C3=  1.41           H34-C5-C4-C13=179.50          O7-C6-C5-C4=178.29            O7-C6-C5-H34=358.74           
C9-C6-C5-C4=358.27            C9-C6-C5-H34=178.72           C8-O7-C6-C5=357.81            C8-O7-C6-C9=177.83            
H35-C8-O7-C6=300.26           H36-C8-O7-C6=181.70           H37-C8-O7-C6= 63.17           O10-C9-C6-C5=181.64           
O10-C9-C6-O7=  1.62           C12-C9-C6-C5=  1.36           C12-C9-C6-O7=181.34           C11-O10-C9-C6=182.84          
C11-O10-C9-C12=  3.14         
           -------------------------------------------------
          |                Final Singlepoint                |
           -------------------------------------------------

          ...................................................
          :                      SETUP                      :
          :.................................................:
          :  # basis functions                 171          :
          :  # atomic orbitals                 171          :
          :  # shells                          105          :
          :  # electrons                       180          :
          :  max. iterations                   250          :
          :  Hamiltonian                  GFN2-xTB          :
          :  restarted?                      false          :
          :  GBSA solvation                  false          :
          :  PC potential                    false          :
          :  electronic temp.         5000.0000000     K    :
          :  accuracy                    1.0000000          :
          :  -> integral cutoff          0.2500000E+02      :
          :  -> integral neglect         0.1000000E-07      :
          :  -> SCF convergence          0.1000000E-05 Eh   :
          :  -> wf. convergence          0.1000000E-03 e    :
          :  Broyden damping             0.4000000          :
          ...................................................

 iter      E             dE          RMSdq      gap      omega  full diag
   1   -100.7449362 -0.100745E+03  0.996E-05    0.97       0.0  T
   2   -100.7449362  0.730282E-09  0.124E-04    0.97      94.8  T
   3   -100.7449362 -0.123387E-08  0.363E-05    0.97     325.0  T

   *** convergence criteria satisfied after 3 iterations ***

         #    Occupation            Energy/Eh            Energy/eV
      -------------------------------------------------------------
         1        2.0000           -0.8258135             -22.4715
       ...           ...                  ...                  ...
        84        1.9960           -0.5139947             -13.9865
        85        1.9956           -0.5123902             -13.9428
        86        1.9768           -0.4859149             -13.2224
        87        1.9739           -0.4840179             -13.1708
        88        1.9543           -0.4749880             -12.9251
        89        1.8368           -0.4538541             -12.3500
        90        1.6212           -0.4385392             -11.9333 (HOMO)
        91        0.6217           -0.4029137             -10.9638 (LUMO)
        92        0.0193           -0.3421640              -9.3108
        93        0.0144           -0.3375472              -9.1851
        94        0.0051           -0.3209675              -8.7340
        95        0.0025           -0.3096852              -8.4270
       ...           ...                  ...                  ...
       171                          2.5618779              69.7122
      -------------------------------------------------------------
                  HL-Gap            0.0356255 Eh            0.9694 eV
             Fermi-level           -0.4155182 Eh          -11.3068 eV

 SCC (total)                   0 d,  0 h,  0 min,  0.117 sec
 SCC setup                      ...        0 min,  0.001 sec (  0.845%)
 Dispersion                     ...        0 min,  0.002 sec (  1.330%)
 classical contributions        ...        0 min,  0.000 sec (  0.371%)
 integral evaluation            ...        0 min,  0.018 sec ( 15.130%)
 iterations                     ...        0 min,  0.026 sec ( 22.384%)
 molecular gradient             ...        0 min,  0.070 sec ( 59.379%)
 printout                       ...        0 min,  0.001 sec (  0.549%)

         :::::::::::::::::::::::::::::::::::::::::::::::::::::
         ::                     SUMMARY                     ::
         :::::::::::::::::::::::::::::::::::::::::::::::::::::
         :: total energy            -110.609744900735 Eh    ::
         :: gradient norm              0.002175785541 Eh/a0 ::
         :: HOMO-LUMO gap              0.969419940974 eV    ::
         ::.................................................::
         :: SCC energy              -100.744936153214 Eh    ::
         :: -> isotropic ES            0.104906499749 Eh    ::
         :: -> anisotropic ES          0.004976493778 Eh    ::
         :: -> anisotropic XC          0.044167887538 Eh    ::
         :: -> dispersion             -0.075009383234 Eh    ::
         :: repulsion energy           1.773112341555 Eh    ::
         :: add. restraining         -11.639201575665 Eh    ::
         :: total charge               1.000000000035 e     ::
         :::::::::::::::::::::::::::::::::::::::::::::::::::::

           -------------------------------------------------
          |                Property Printout                |
           -------------------------------------------------

    * Orbital Energies and Occupations

         #    Occupation            Energy/Eh            Energy/eV
      -------------------------------------------------------------
         1        2.0000           -0.8258135             -22.4715
       ...           ...                  ...                  ...
        78        1.9987           -0.5317844             -14.4706
        79        1.9986           -0.5309775             -14.4486
        80        1.9982           -0.5265196             -14.3273
        81        1.9981           -0.5258256             -14.3084
        82        1.9969           -0.5180673             -14.0973
        83        1.9968           -0.5175163             -14.0823
        84        1.9960           -0.5139947             -13.9865
        85        1.9956           -0.5123902             -13.9428
        86        1.9768           -0.4859149             -13.2224
        87        1.9739           -0.4840179             -13.1708
        88        1.9543           -0.4749880             -12.9251
        89        1.8368           -0.4538541             -12.3500
        90        1.6212           -0.4385392             -11.9333 (HOMO)
        91        0.6217           -0.4029137             -10.9638 (LUMO)
        92        0.0193           -0.3421640              -9.3108
        93        0.0144           -0.3375472              -9.1851
        94        0.0051           -0.3209675              -8.7340
        95        0.0025           -0.3096852              -8.4270
        96        0.0021           -0.3068858              -8.3508
        97        0.0000           -0.2318653              -6.3094
        98        0.0000           -0.1847762              -5.0280
        99                         -0.1153162              -3.1379
       100                         -0.0803560              -2.1866
       101                         -0.0732692              -1.9938
       ...                                ...                  ...
       171                          2.5618779              69.7122
      -------------------------------------------------------------
                  HL-Gap            0.0356255 Eh            0.9694 eV
             Fermi-level           -0.4155182 Eh          -11.3068 eV

     #   Z          covCN         q      C6AA      α(0)
     1   7 N        1.774    -0.277    28.014     7.838
     2   6 C        2.825     0.095    25.879     8.336
     3   6 C        3.906     0.006    20.428     6.424
     4   6 C        2.962     0.008    27.837     8.654
     5   6 C        2.901    -0.074    29.833     8.956
     6   6 C        2.861     0.135    25.040     8.202
     7   8 O        1.706    -0.198    17.297     5.615
     8   6 C        3.644     0.021    20.563     6.518
     9   6 C        2.848     0.132    25.100     8.211
    10   8 O        1.706    -0.236    17.908     5.714
    11   6 C        3.646     0.025    20.492     6.506
    12   6 C        2.901    -0.089    30.231     9.015
    13   6 C        3.808    -0.113    22.651     6.775
    14   6 C        3.809    -0.066    21.753     6.639
    15   6 C        3.801    -0.064    21.720     6.635
    16   6 C        2.862    -0.045    29.109     8.844
    17   7 N        2.730     0.087    19.742     6.599
    18   6 C        3.783    -0.019    20.924     6.516
    19   6 C        3.808    -0.068    21.800     6.646
    20   6 C        2.970     0.001    28.006     8.681
    21   6 C        2.922    -0.048    29.190     8.860
    22   6 C        2.914    -0.067    29.678     8.933
    23   6 C        2.865     0.133    25.081     8.209
    24   8 O        1.706    -0.222    17.681     5.677
    25   6 C        3.645     0.025    20.487     6.505
    26   6 C        2.863     0.133    25.088     8.210
    27   8 O        1.706    -0.225    17.728     5.685
    28   6 C        3.645     0.027    20.451     6.500
    29   6 C        2.920    -0.080    29.988     8.980
    30   6 C        2.810    -0.110    30.763     9.087
    31   6 C        3.852    -0.008    20.679     6.468
    32   6 C        3.755    -0.121    22.883     6.821
    33   6 C        3.755    -0.118    22.806     6.809
    34   1 H        0.926     0.060     2.195     2.317
    35   1 H        0.924     0.062     2.174     2.306
    36   1 H        0.925     0.088     1.894     2.152
    37   1 H        0.924     0.058     2.220     2.330
    38   1 H        0.924     0.053     2.283     2.363
    39   1 H        0.925     0.083     1.951     2.184
    40   1 H        0.924     0.049     2.327     2.386
    41   1 H        0.926     0.057     2.238     2.339
    42   1 H        0.919     0.097     1.818     2.109
    43   1 H        0.925     0.053     2.279     2.361
    44   1 H        0.924     0.053     2.278     2.360
    45   1 H        0.925     0.052     2.293     2.368
    46   1 H        0.924     0.064     2.157     2.297
    47   1 H        0.923     0.010     2.897     2.662
    48   1 H        0.926     0.050     2.326     2.385
    49   1 H        0.924     0.071     2.079     2.255
    50   1 H        0.924     0.065     2.139     2.287
    51   1 H        0.924     0.057     2.239     2.340
    52   1 H        0.924     0.059     2.214     2.327
    53   1 H        0.926     0.047     2.355     2.400
    54   1 H        0.926     0.059     2.214     2.327
    55   1 H        0.924     0.054     2.272     2.357
    56   1 H        0.924     0.056     2.242     2.341
    57   1 H        0.925     0.082     1.958     2.188
    58   1 H        0.925     0.081     1.964     2.191
    59   1 H        0.924     0.048     2.343     2.394
    60   1 H        0.924     0.053     2.282     2.363
    61   1 H        0.926     0.048     2.346     2.395
    62   1 H        0.927     0.054     2.267     2.355
    63   1 H        0.932     0.142     1.444     1.879
    64   1 H        0.927     0.055     2.260     2.351
    65   1 H        0.924     0.036     2.501     2.473
    66   1 H        0.925     0.070     2.082     2.256
    67   1 H        0.925     0.031     2.565     2.505
    68   1 H        0.925     0.053     2.284     2.363
    69   1 H        0.925     0.059     2.207     2.323
    70   1 H        0.925     0.037     2.492     2.469
    71   1 H        0.925     0.055     2.264     2.353
    72   1 H        0.860     0.155     1.369     1.833

 Mol. C6AA /au·bohr⁶  :      47430.670873
 Mol. C8AA /au·bohr⁸  :    1082348.114200
 Mol. α(0) /au        :        334.310225


Wiberg/Mayer (AO) data.
largest (>0.10) Wiberg bond orders for each atom

 ---------------------------------------------------------------------------
     #   Z sym  total        # sym  WBO       # sym  WBO       # sym  WBO
 ---------------------------------------------------------------------------
     1   7 N    3.018 --     2 C    1.956    72 H    0.943
     2   6 C    3.929 --     1 N    1.956     3 C    0.993    47 H    0.914
     3   6 C    3.977 --     2 C    0.993     4 C    0.986    14 C    0.954
                            31 C    0.930
     4   6 C    3.734 --     5 C    1.556    13 C    1.029     3 C    0.986
     5   6 C    3.977 --     4 C    1.556     6 C    1.289    34 H    0.953
     6   6 C    3.687 --     5 C    1.289     7 O    1.152     9 C    1.130
     7   8 O    2.271 --     6 C    1.152     8 C    0.970
     8   6 C    3.925 --    36 H    0.976    35 H    0.972    37 H    0.972
                             7 O    0.970
     9   6 C    3.936 --    12 C    1.585     6 C    1.130    10 O    1.093
    10   8 O    2.261 --     9 C    1.093    11 C    0.976    12 C    0.108
    11   6 C    3.932 --    39 H    0.977    10 O    0.976    40 H    0.975
                            38 H    0.974
    12   6 C    3.800 --     9 C    1.585    13 C    1.032    41 H    0.963
                            10 O    0.108
    13   6 C    3.962 --    12 C    1.032     4 C    1.029    63 H    0.937
                            42 H    0.885
    14   6 C    3.968 --    15 C    0.985    44 H    0.972    43 H    0.970
                             3 C    0.954
    15   6 C    3.987 --    16 C    1.044    14 C    0.985    45 H    0.962
                            46 H    0.943
    16   6 C    3.687 --    17 N    1.345    15 C    1.044    48 H    0.962
                            30 C    0.240
    17   7 N    3.737 --    30 C    1.364    16 C    1.345    18 C    0.966
    18   6 C    3.955 --    19 C    0.977    50 H    0.969    49 H    0.968
                            17 N    0.966
    19   6 C    3.987 --    20 C    1.006    18 C    0.977    51 H    0.972
                            52 H    0.970
    20   6 C    3.943 --    21 C    1.412    29 C    1.379    19 C    1.006
    21   6 C    3.949 --    22 C    1.414    20 C    1.412    53 H    0.968
    22   6 C    3.958 --    21 C    1.414    23 C    1.385    54 H    0.963
    23   6 C    3.894 --    22 C    1.385    26 C    1.218    24 O    1.110
    24   8 O    2.254 --    23 C    1.110    25 C    0.976
    25   6 C    3.928 --    57 H    0.977    24 O    0.976    55 H    0.973
                            56 H    0.972
    26   6 C    3.897 --    29 C    1.397    23 C    1.218    27 O    1.103
    27   8 O    2.253 --    26 C    1.103    28 C    0.979
    28   6 C    3.932 --    27 O    0.979    58 H    0.977    59 H    0.973
                            60 H    0.973
    29   6 C    3.959 --    26 C    1.397    20 C    1.379    61 H    0.962
    30   6 C    3.621 --    17 N    1.364    64 H    0.976    62 H    0.969
                            16 C    0.240
    31   6 C    3.966 --    33 C    1.010    32 C    1.009    65 H    0.961
                             3 C    0.930
    32   6 C    3.982 --    31 C    1.009    67 H    0.983    68 H    0.981
                            66 H    0.974
    33   6 C    3.984 --    31 C    1.010    70 H    0.983    71 H    0.980
                            69 H    0.978
    34   1 H    0.995 --     5 C    0.953
    35   1 H    0.990 --     8 C    0.972
    36   1 H    0.992 --     8 C    0.976
    37   1 H    0.990 --     8 C    0.972
    38   1 H    0.995 --    11 C    0.974
    39   1 H    0.993 --    11 C    0.977
    40   1 H    0.996 --    11 C    0.975
    41   1 H    0.995 --    12 C    0.963
    42   1 H    0.942 --    13 C    0.885
    43   1 H    0.996 --    14 C    0.970
    44   1 H    0.996 --    14 C    0.972
    45   1 H    0.997 --    15 C    0.962
    46   1 H    0.978 --    15 C    0.943
    47   1 H    0.986 --     2 C    0.914
    48   1 H    0.997 --    16 C    0.962
    49   1 H    0.994 --    18 C    0.968
    50   1 H    0.996 --    18 C    0.969
    51   1 H    0.996 --    19 C    0.972
    52   1 H    0.995 --    19 C    0.970
    53   1 H    0.997 --    21 C    0.968
    54   1 H    0.995 --    22 C    0.963
    55   1 H    0.992 --    25 C    0.973
    56   1 H    0.991 --    25 C    0.972
    57   1 H    0.993 --    25 C    0.977
    58   1 H    0.993 --    28 C    0.977
    59   1 H    0.993 --    28 C    0.973
    60   1 H    0.993 --    28 C    0.973
    61   1 H    0.996 --    29 C    0.962
    62   1 H    0.997 --    30 C    0.969
    63   1 H    0.970 --    13 C    0.937
    64   1 H    0.997 --    30 C    0.976
    65   1 H    0.994 --    31 C    0.961
    66   1 H    0.992 --    32 C    0.974
    67   1 H    0.998 --    32 C    0.983
    68   1 H    0.995 --    32 C    0.981
    69   1 H    0.994 --    33 C    0.978
    70   1 H    0.997 --    33 C    0.983
    71   1 H    0.994 --    33 C    0.980
    72   1 H    0.971 --     1 N    0.943
 ---------------------------------------------------------------------------

Topologies differ in total number of bonds
Writing topology from bond orders to xtbtopo.mol

molecular dipole:
                 x           y           z       tot (Debye)
 q only:       -0.263      -0.090      -0.346
   full:        0.012      -0.126      -0.558       1.455
molecular quadrupole (traceless):
                xx          xy          yy          xz          yz          zz
 q only:       60.881       7.287     -20.989       7.154      -9.857     -39.892
  q+dip:       55.715      10.588     -19.071       9.800     -12.786     -36.644
   full:       54.999      10.091     -19.346       7.387     -12.705     -35.654

           -------------------------------------------------
          |                Geometry Summary                 |
           -------------------------------------------------

      molecular mass/u    :      455.6105846
   center of mass at/Å    :        0.0332744      -0.0110564      -0.0231257
  moments of inertia/u·Å² :        0.2432075E+04   0.1085470E+05   0.1209937E+05
rotational constants/cm⁻¹ :        0.6931378E-02   0.1553026E-02   0.1393266E-02

 * 63 selected distances

     #   Z          #   Z                                           value/Å
     1   7 N        2   6 C                                       1.2513461
     4   6 C        5   6 C                                       1.3650792
     5   6 C        6   6 C                                       1.4022471
     6   6 C        7   8 O                                       1.3341806
     7   8 O        8   6 C                                       1.4100836
     9   6 C       10   8 O                                       1.3486098
    10   8 O       11   6 C                                       1.4091491
     9   6 C       12   6 C                                       1.3541591
    14   6 C       15   6 C                                       1.5395397 (max)
    16   6 C       17   7 N                                       1.3289181
    17   7 N       18   6 C                                       1.4611451
    18   6 C       19   6 C                                       1.5356033
    20   6 C       21   6 C                                       1.3846980
    21   6 C       22   6 C                                       1.3869221
    22   6 C       23   6 C                                       1.3871610
    23   6 C       24   8 O                                       1.3458138
    24   8 O       25   6 C                                       1.4087977
    23   6 C       26   6 C                                       1.4228913
    26   6 C       27   8 O                                       1.3478667
    27   8 O       28   6 C                                       1.4075056
    20   6 C       29   6 C                                       1.3933131
    26   6 C       29   6 C                                       1.3854270
    17   7 N       30   6 C                                       1.3256430
    31   6 C       32   6 C                                       1.5272378
    31   6 C       33   6 C                                       1.5257746
     5   6 C       34   1 H                                       1.0784239
     8   6 C       35   1 H                                       1.0938174
     8   6 C       36   1 H                                       1.0883236
     8   6 C       37   1 H                                       1.0940793
    11   6 C       38   1 H                                       1.0940795
    11   6 C       39   1 H                                       1.0880677
    11   6 C       40   1 H                                       1.0945495
    12   6 C       41   1 H                                       1.0779288
    13   6 C       42   1 H                                       1.1230481
    14   6 C       43   1 H                                       1.0897756
    14   6 C       44   1 H                                       1.0903875
    15   6 C       45   1 H                                       1.0882760
    15   6 C       46   1 H                                       1.0968119
     2   6 C       47   1 H                                       1.1027154
    16   6 C       48   1 H                                       1.0776828
    18   6 C       49   1 H                                       1.0910658
    18   6 C       50   1 H                                       1.0918900
    19   6 C       51   1 H                                       1.0908696
    19   6 C       52   1 H                                       1.0911392
    21   6 C       53   1 H                                       1.0793790
    22   6 C       54   1 H                                       1.0776225
    25   6 C       55   1 H                                       1.0943411
    25   6 C       56   1 H                                       1.0939801
    25   6 C       57   1 H                                       1.0881549
    28   6 C       58   1 H                                       1.0883575
    28   6 C       59   1 H                                       1.0949820
    28   6 C       60   1 H                                       1.0943823
    29   6 C       61   1 H                                       1.0787674
    30   6 C       62   1 H                                       1.0697924
    13   6 C       63   1 H                                       0.6395341 (min)
    30   6 C       64   1 H                                       1.0699701
    31   6 C       65   1 H                                       1.0954920
    32   6 C       66   1 H                                       1.0852675
    32   6 C       67   1 H                                       1.0877296
    32   6 C       68   1 H                                       1.0869310
    33   6 C       69   1 H                                       1.0855947
    33   6 C       70   1 H                                       1.0864280
    33   6 C       71   1 H                                       1.0869170

 * 4 distinct bonds (by element types)

   Z      Z             #   av. dist./Å        max./Å        min./Å
   1 H    6 C          38     1.0770146     1.1230481     0.6395341
   6 C    6 C          13     1.4315426     1.5395397     1.3541591
   6 C    7 N           4     1.3417631     1.4611451     1.2513461
   6 C    8 O           8     1.3765009     1.4100836     1.3341806


optimized geometry written to: xtbopt.xyz


           -------------------------------------------------
          | TOTAL ENERGY             -110.609744900735 Eh   |
          | GRADIENT NORM               0.002175785541 Eh/α |
          | HOMO-LUMO GAP               0.969419940974 eV   |
           -------------------------------------------------

------------------------------------------------------------------------
 * finished run on 2024/04/06 at 11:16:31.194     
------------------------------------------------------------------------
 total:
 * wall-time:     0 d,  0 h,  0 min,  6.694 sec
 *  cpu-time:     0 d,  0 h,  0 min,  6.663 sec
 * ratio c/w:     0.995 speedup
 SCF:
 * wall-time:     0 d,  0 h,  0 min,  0.191 sec
 *  cpu-time:     0 d,  0 h,  0 min,  0.191 sec
 * ratio c/w:     0.999 speedup
 ANC optimizer:
 * wall-time:     0 d,  0 h,  0 min,  6.461 sec
 *  cpu-time:     0 d,  0 h,  0 min,  6.447 sec
 * ratio c/w:     0.998 speedup

