      -----------------------------------------------------------      
     |                   =====================                   |     
     |                           x T B                           |     
     |                   =====================                   |     
     |                         S. Grimme                         |     
     |          Mulliken Center for Theoretical Chemistry        |     
     |                    University of Bonn                     |     
      -----------------------------------------------------------      

   * xtb version 6.6.1 (8d0f1dd) compiled by 'conda@1efc2f54142f' on 2023-08-01

   xtb is free software: you can redistribute it and/or modify it under
   the terms of the GNU Lesser General Public License as published by
   the Free Software Foundation, either version 3 of the License, or
   (at your option) any later version.
   
   xtb is distributed in the hope that it will be useful,
   but WITHOUT ANY WARRANTY; without even the implied warranty of
   MERCHANTABILITY or FITNESS FOR A PARTICULAR PURPOSE.  See the
   GNU Lesser General Public License for more details.
   
   Cite this work as:
   * C. Bannwarth, E. Caldeweyher, S. Ehlert, A. Hansen, P. Pracht,
     J. Seibert, S. Spicher, S. Grimme, WIREs Comput. Mol. Sci., 2020, 11,
     e01493. DOI: 10.1002/wcms.1493
   
   for GFN2-xTB:
   * C. Bannwarth, S. Ehlert and S. Grimme., J. Chem. Theory Comput., 2019,
     15, 1652-1671. DOI: 10.1021/acs.jctc.8b01176
   for GFN1-xTB:
   * S. Grimme, C. Bannwarth, P. Shushkov, J. Chem. Theory Comput., 2017,
     13, 1989-2009. DOI: 10.1021/acs.jctc.7b00118
   for GFN0-xTB:
   * P. Pracht, E. Caldeweyher, S. Ehlert, S. Grimme, ChemRxiv, 2019, preprint.
     DOI: 10.26434/chemrxiv.8326202.v1
   for GFN-FF:
   * S. Spicher and S. Grimme, Angew. Chem. Int. Ed., 2020, 59, 15665-15673.
     DOI: 10.1002/anie.202004239
   
   for ALPB and GBSA implicit solvation:
   * S. Ehlert, M. Stahn, S. Spicher, S. Grimme, J. Chem. Theory Comput.,
     2021, 17, 4250-4261. DOI: 10.1021/acs.jctc.1c00471
   
   for DFT-D4:
   * E. Caldeweyher, C. Bannwarth and S. Grimme, J. Chem. Phys., 2017,
     147, 034112. DOI: 10.1063/1.4993215
   * E. Caldeweyher, S. Ehlert, A. Hansen, H. Neugebauer, S. Spicher,
     C. Bannwarth and S. Grimme, J. Chem. Phys., 2019, 150, 154122.
     DOI: 10.1063/1.5090222
   * E. Caldeweyher, J.-M. Mewes, S. Ehlert and S. Grimme, Phys. Chem. Chem. Phys.
     2020, 22, 8499-8512. DOI: 10.1039/D0CP00502A
   
   for sTDA-xTB:
   * S. Grimme and C. Bannwarth, J. Chem. Phys., 2016, 145, 054103.
     DOI: 10.1063/1.4959605
   
   in the mass-spec context:
   * V. Asgeirsson, C. Bauer and S. Grimme, Chem. Sci., 2017, 8, 4879.
     DOI: 10.1039/c7sc00601b
   * J. Koopman and S. Grimme, ACS Omega 2019, 4, 12, 15120-15133.
     DOI: 10.1021/acsomega.9b02011
   
   for metadynamics refer to:
   * S. Grimme, J. Chem. Theory Comput., 2019, 155, 2847-2862
     DOI: 10.1021/acs.jctc.9b00143
   
   for SPH calculations refer to:
   * S. Spicher and S. Grimme, J. Chem. Theory Comput., 2021, 17, 1701-1714
     DOI: 10.1021/acs.jctc.0c01306
   
   with help from (in alphabetical order)
   P. Atkinson, C. Bannwarth, F. Bohle, G. Brandenburg, E. Caldeweyher
   M. Checinski, S. Dohm, S. Ehlert, S. Ehrlich, I. Gerasimov, C. Hölzer
   A. Katbashev, J. Koopman, C. Lavigne, S. Lehtola, F. März, M. Müller,
   F. Musil, H. Neugebauer, J. Pisarek, C. Plett, P. Pracht, F. Pultar,
   J. Seibert, P. Shushkov, S. Spicher, M. Stahn, M. Steiner, T. Strunk,
   J. Stückrath, T. Rose, and J. Unsleber
   
 * started run on 2024/04/06 at 11:16:31.211     

           -------------------------------------------------
          |                Calculation Setup                |
           -------------------------------------------------

          program call               : xtb xtbopt.xyz --opt crude --input .xc2 --gfn2
          hostname                   : n-62-30-23
          coordinate file            : xtbopt.xyz
          omp threads                :                     1

   ID    Z sym.   atoms
    1    7 N      1, 17
    2    6 C      2-6, 8, 9, 11-16, 18-23, 25, 26, 28-33
    3    8 O      7, 10, 24, 27
    4    1 H      34-72
########################################################################
[WARNING] Please study the warnings concerning your input carefully
-1- readin_getIntValue: could not parse ''
########################################################################

           -------------------------------------------------
          |                 G F N 2 - x T B                 |
           -------------------------------------------------

        Reference                      10.1021/acs.jctc.8b01176
      * Hamiltonian:
        H0-scaling (s, p, d)           1.850000    2.230000    2.230000
        zeta-weighting                 0.500000
      * Dispersion:
        s8                             2.700000
        a1                             0.520000
        a2                             5.000000
        s9                             5.000000
      * Repulsion:
        kExp                           1.500000    1.000000
        rExp                           1.000000
      * Coulomb:
        alpha                          2.000000
        third order                    shell-resolved
        anisotropic                    true
        a3                             3.000000
        a5                             4.000000
        cn-shift                       1.200000
        cn-exp                         4.000000
        max-rad                        5.000000

q/qsh data taken from xtbrestart
CAMM data taken from xtbrestart

          ...................................................
          :                      SETUP                      :
          :.................................................:
          :  # basis functions                 171          :
          :  # atomic orbitals                 171          :
          :  # shells                          105          :
          :  # electrons                       180          :
          :  max. iterations                   250          :
          :  Hamiltonian                  GFN2-xTB          :
          :  restarted?                       true          :
          :  GBSA solvation                  false          :
          :  PC potential                    false          :
          :  electronic temp.         5000.0000000     K    :
          :  accuracy                    1.0000000          :
          :  -> integral cutoff          0.2500000E+02      :
          :  -> integral neglect         0.1000000E-07      :
          :  -> SCF convergence          0.1000000E-05 Eh   :
          :  -> wf. convergence          0.1000000E-03 e    :
          :  Broyden damping             0.4000000          :
          ...................................................

 iter      E             dE          RMSdq      gap      omega  full diag
   1   -100.7449362 -0.100745E+03  0.266E-05    0.97       0.0  T
   2   -100.7449362  0.602256E-10  0.346E-05    0.97     340.3  T
   3   -100.7449362 -0.118888E-09  0.841E-06    0.97    1400.5  T

   *** convergence criteria satisfied after 3 iterations ***

         #    Occupation            Energy/Eh            Energy/eV
      -------------------------------------------------------------
         1        2.0000           -0.8258132             -22.4715
       ...           ...                  ...                  ...
        84        1.9960           -0.5139946             -13.9865
        85        1.9956           -0.5123900             -13.9428
        86        1.9768           -0.4859149             -13.2224
        87        1.9739           -0.4840176             -13.1708
        88        1.9543           -0.4749881             -12.9251
        89        1.8368           -0.4538542             -12.3500
        90        1.6212           -0.4385397             -11.9333 (HOMO)
        91        0.6217           -0.4029133             -10.9638 (LUMO)
        92        0.0193           -0.3421640              -9.3108
        93        0.0144           -0.3375476              -9.1851
        94        0.0051           -0.3209671              -8.7340
        95        0.0025           -0.3096852              -8.4270
       ...           ...                  ...                  ...
       171                          2.5618780              69.7122
      -------------------------------------------------------------
                  HL-Gap            0.0356264 Eh            0.9694 eV
             Fermi-level           -0.4155182 Eh          -11.3068 eV

 SCC (total)                   0 d,  0 h,  0 min,  0.120 sec
 SCC setup                      ...        0 min,  0.001 sec (  1.096%)
 Dispersion                     ...        0 min,  0.002 sec (  1.853%)
 classical contributions        ...        0 min,  0.001 sec (  0.498%)
 integral evaluation            ...        0 min,  0.018 sec ( 15.158%)
 iterations                     ...        0 min,  0.027 sec ( 22.901%)
 molecular gradient             ...        0 min,  0.069 sec ( 57.937%)
 printout                       ...        0 min,  0.001 sec (  0.543%)

         :::::::::::::::::::::::::::::::::::::::::::::::::::::
         ::                     SUMMARY                     ::
         :::::::::::::::::::::::::::::::::::::::::::::::::::::
         :: total energy             -98.970543325102 Eh    ::
         :: gradient norm              2.157579575758 Eh/a0 ::
         :: HOMO-LUMO gap              0.969443984914 eV    ::
         ::.................................................::
         :: SCC energy              -100.744936153246 Eh    ::
         :: -> isotropic ES            0.104906703292 Eh    ::
         :: -> anisotropic ES          0.004976515943 Eh    ::
         :: -> anisotropic XC          0.044167884901 Eh    ::
         :: -> dispersion             -0.075009377452 Eh    ::
         :: repulsion energy           1.773112341555 Eh    ::
         :: add. restraining           0.000000000000 Eh    ::
         :: total charge               1.000000000035 e     ::
         :::::::::::::::::::::::::::::::::::::::::::::::::::::

      ----------------------------------------------------------- 
     |                   =====================                   |
     |                        A N C O P T                        |
     |                   =====================                   |
     |               Approximate Normal Coordinate               |
     |                Rational Function Optimizer                |
      ----------------------------------------------------------- 

          ...................................................
          :                      SETUP                      :
          :.................................................:
          :   optimization level             crude          :
          :   max. optcycles                   200          :
          :   ANC micro-cycles                  20          :
          :   degrees of freedom               210          :
          :.................................................:
          :   RF solver                   davidson          :
          :   write xtbopt.log                true          :
          :   linear?                        false          :
          :   energy convergence         0.5000000E-03 Eh   :
          :   grad. convergence          0.1000000E-01 Eh/α :
          :   maxmium RF displ.          1.0000000          :
          :   Hlow (freq-cutoff)         0.1000000E-01      :
          :   Hmax (freq-cutoff)         5.0000000          :
          :   S6 in model hess.         20.0000000          :
          ...................................................

generating ANC from model Hessian ...
Using Lindh-Hessian (1995)
 Shifting diagonal of input Hessian by    9.9626966709546756E-003
 Lowest  eigenvalues of input Hessian
    0.000000    0.000000    0.000000    0.000000    0.000000    0.000000
    0.010000    0.010009    0.010118    0.010218    0.010290    0.010573
    0.010638    0.010909    0.010934    0.011568    0.011740    0.012559
 Highest eigenvalues
    2.048140    2.092988    2.168521    2.184540    2.192025    2.877099


........................................................................
.............................. CYCLE    1 ..............................
........................................................................

 iter      E             dE          RMSdq      gap      omega  full diag
   1   -100.7449362 -0.100745E+03  0.672E-06    0.97       0.0  T
   2   -100.7449362  0.332534E-11  0.817E-06    0.97    1442.5  T
   3   -100.7449362 -0.628120E-11  0.288E-06    0.97    4092.8  T
     SCC iter.                  ...        0 min,  0.026 sec
     gradient                   ...        0 min,  0.069 sec
 * total energy  :   -98.9705433 Eh     change       -0.2160050E-11 Eh
   gradient norm :     2.1575795 Eh/α   predicted     0.0000000E+00 (-100.00%)
   displ. norm   :     0.5555865 α      lambda       -0.1179918E+01
   maximum displ.:     0.5221623 α      in ANC's #210, #142, #198, ...

........................................................................
.............................. CYCLE    2 ..............................
........................................................................

 iter      E             dE          RMSdq      gap      omega  full diag
   1   -100.7350345 -0.100735E+03  0.374E-01    1.11       0.0  T
   2   -100.7339855  0.104902E-02  0.267E-01    0.80       1.0  T
   3   -100.7327782  0.120733E-02  0.244E-01    1.24       1.0  T
   4   -100.7372082 -0.443002E-02  0.612E-02    0.98       1.0  T
   5   -100.7372756 -0.674210E-04  0.334E-02    1.02       1.0  T
   6   -100.7373608 -0.851680E-04  0.107E-02    1.00       1.1  T
   7   -100.7373605  0.300199E-06  0.841E-03    0.99       1.4  T
   8   -100.7373648 -0.436674E-05  0.198E-03    1.00       5.9  T
   9   -100.7373650 -0.166412E-06  0.904E-04    1.00      13.0  T
  10   -100.7373650 -0.282266E-07  0.386E-04    1.00      30.5  T
     SCC iter.                  ...        0 min,  0.080 sec
     gradient                   ...        0 min,  0.070 sec
 * total energy  :   -99.3453201 Eh     change       -0.3747767E+00 Eh
   gradient norm :     0.0474770 Eh/α   predicted    -0.7722356E+00 ( 106.05%)
   displ. norm   :     0.1891557 α      lambda       -0.8998337E-02
   maximum displ.:     0.0618430 α      in ANC's #49, #53, #85, ...

........................................................................
.............................. CYCLE    3 ..............................
........................................................................

 iter      E             dE          RMSdq      gap      omega  full diag
   1   -100.7274409 -0.100727E+03  0.105E-01    0.95       0.0  T
   2   -100.7273415  0.994629E-04  0.768E-02    1.03       1.0  T
   3   -100.7270804  0.261067E-03  0.711E-02    0.91       1.0  T
   4   -100.7275025 -0.422073E-03  0.165E-02    0.99       1.0  T
   5   -100.7275273 -0.247933E-04  0.433E-03    0.98       2.7  T
   6   -100.7275280 -0.739568E-06  0.241E-03    0.98       4.9  T
   7   -100.7275281 -0.979769E-07  0.145E-03    0.98       8.2  T
   8   -100.7275283 -0.151550E-06  0.381E-04    0.98      30.9  T
   9   -100.7275283 -0.418305E-08  0.223E-04    0.98      52.8  T
     SCC iter.                  ...        0 min,  0.073 sec
     gradient                   ...        0 min,  0.069 sec
 * total energy  :   -99.3490548 Eh     change       -0.3734782E-02 Eh
   gradient norm :     0.0332191 Eh/α   predicted    -0.2895315E-02 ( -22.48%)
   displ. norm   :     0.1512901 α      lambda       -0.4816833E-02
   maximum displ.:     0.0533186 α      in ANC's #39, #31, #49, ...

........................................................................
.............................. CYCLE    4 ..............................
........................................................................

 iter      E             dE          RMSdq      gap      omega  full diag
   1   -100.7222898 -0.100722E+03  0.677E-02    0.96       0.0  T
   2   -100.7222666  0.231482E-04  0.450E-02    1.00       1.0  T
   3   -100.7220577  0.208914E-03  0.499E-02    0.92       1.0  T
   4   -100.7223048 -0.247028E-03  0.761E-03    0.98       1.5  T
   5   -100.7223094 -0.466611E-05  0.265E-03    0.98       4.4  T
   6   -100.7223097 -0.274578E-06  0.150E-03    0.98       7.9  T
   7   -100.7223098 -0.716221E-07  0.702E-04    0.98      16.8  T
   8   -100.7223098 -0.332620E-07  0.224E-04    0.97      52.6  T
     SCC iter.                  ...        0 min,  0.065 sec
     gradient                   ...        0 min,  0.070 sec
 * total energy  :   -99.3502090 Eh     change       -0.1154155E-02 Eh
   gradient norm :     0.0264109 Eh/α   predicted    -0.9600501E-03 ( -16.82%)
   displ. norm   :     0.0937008 α      lambda       -0.1570795E-02
   maximum displ.:     0.0460791 α      in ANC's #39, #31, #43, ...

........................................................................
.............................. CYCLE    5 ..............................
........................................................................

 iter      E             dE          RMSdq      gap      omega  full diag
   1   -100.7214608 -0.100721E+03  0.364E-02    0.97       0.0  T
   2   -100.7214619 -0.107781E-05  0.212E-02    0.97       1.0  T
   3   -100.7214541  0.780269E-05  0.907E-03    0.97       1.3  T
   4   -100.7214618 -0.766948E-05  0.296E-03    0.98       4.0  T
   5   -100.7214625 -0.706416E-06  0.127E-03    0.97       9.3  T
   6   -100.7214625 -0.785952E-07  0.729E-04    0.97      16.2  T
   7   -100.7214626 -0.238567E-07  0.291E-04    0.97      40.5  T
     SCC iter.                  ...        0 min,  0.057 sec
     gradient                   ...        0 min,  0.072 sec
 * total energy  :   -99.3505394 Eh     change       -0.3304253E-03 Eh
   gradient norm :     0.0200647 Eh/α   predicted    -0.2269897E-03 ( -31.30%)
   displ. norm   :     0.1173864 α      lambda       -0.1767743E-02
   maximum displ.:     0.0531698 α      in ANC's #39, #8, #31, ...

........................................................................
.............................. CYCLE    6 ..............................
........................................................................

 iter      E             dE          RMSdq      gap      omega  full diag
   1   -100.7214650 -0.100721E+03  0.425E-02    0.98       0.0  T
   2   -100.7214639  0.107142E-05  0.255E-02    0.97       1.0  T
   3   -100.7213969  0.669528E-04  0.272E-02    1.00       1.0  T
   4   -100.7214685 -0.716072E-04  0.297E-03    0.97       4.0  T
   5   -100.7214690 -0.487374E-06  0.159E-03    0.98       7.4  T
   6   -100.7214692 -0.149386E-06  0.631E-04    0.97      18.7  T
   7   -100.7214692 -0.884346E-08  0.228E-04    0.97      51.6  T
     SCC iter.                  ...        0 min,  0.057 sec
     gradient                   ...        0 min,  0.071 sec
 * total energy  :   -99.3508009 Eh     change       -0.2615192E-03 Eh
   gradient norm :     0.0102861 Eh/α   predicted    -0.2010874E-03 ( -23.11%)
   displ. norm   :     0.0863121 α      lambda       -0.8540645E-03
   maximum displ.:     0.0353906 α      in ANC's #8, #2, #31, ...

........................................................................
.............................. CYCLE    7 ..............................
........................................................................

 iter      E             dE          RMSdq      gap      omega  full diag
   1   -100.7213653 -0.100721E+03  0.306E-02    0.98       0.0  T
   2   -100.7213629  0.238877E-05  0.188E-02    0.97       1.0  T
   3   -100.7213217  0.412286E-04  0.223E-02    1.00       1.0  T
   4   -100.7213684 -0.467684E-04  0.248E-03    0.98       4.8  T
   5   -100.7213688 -0.349608E-06  0.131E-03    0.98       9.0  T
   6   -100.7213689 -0.927014E-07  0.525E-04    0.98      22.5  T
   7   -100.7213689  0.100218E-08  0.326E-04    0.98      36.1  T
     SCC iter.                  ...        0 min,  0.057 sec
     gradient                   ...        0 min,  0.070 sec
 * total energy  :   -99.3509113 Eh     change       -0.1103251E-03 Eh
   gradient norm :     0.0044084 Eh/α   predicted    -0.7996367E-04 ( -27.52%)
   displ. norm   :     0.1094948 α      lambda       -0.5147836E-03
   maximum displ.:     0.0509104 α      in ANC's #8, #2, #31, ...

   *** GEOMETRY OPTIMIZATION CONVERGED AFTER 7 ITERATIONS ***

------------------------------------------------------------------------
 total energy gain   :        -0.3803679 Eh     -238.6845 kcal/mol
 total RMSD          :         0.0977864 a0        0.0517 Å
 total power (kW/mol):      -142.6651247 (step) -881.3214 (real)
------------------------------------------------------------------------

 ANCopt (total)                0 d,  0 h,  0 min,  1.133 sec
 optimizer setup                ...        0 min,  0.000 sec (  0.019%)
 model hessian                  ...        0 min,  0.057 sec (  5.029%)
 ANC generation                 ...        0 min,  0.006 sec (  0.559%)
 coordinate transformation      ...        0 min,  0.000 sec (  0.039%)
 single point calculation       ...        0 min,  1.059 sec ( 93.444%)
 optimization log               ...        0 min,  0.003 sec (  0.307%)
 hessian update                 ...        0 min,  0.002 sec (  0.149%)
 rational function              ...        0 min,  0.002 sec (  0.169%)

================
 final structure:
================
72
 xtb: 6.6.1 (8d0f1dd)
N           -1.82952044514874        2.59406930617692        2.25010372796874
C           -1.72412548347647        2.06232532337063        1.12233668262162
C           -2.87736923717616        1.86649372607408        0.17187462006127
C           -3.38970679195359        0.44485029201194        0.27532758740863
C           -4.35189189351586       -0.01730680796597       -0.57686653995312
C           -4.87669453570224       -1.31532395505261       -0.49905919029837
O           -5.84164931352150       -1.80839228203736       -1.27900335127191
C           -6.47158153327665       -0.98889993288689       -2.23832754715281
C           -4.36608500052036       -2.22944480835771        0.49209950466600
O           -4.92018432231419       -3.45810540642903        0.44270376702635
C           -4.53101840727447       -4.41724880065586        1.39913765884781
C           -3.41716772197070       -1.81153870945642        1.36390241373577
C           -2.86727945256086       -0.43078111771288        1.35983677302312
C           -2.34080547721763        2.14217796941983       -1.25965672275590
C           -1.45850352947971        1.03140531108779       -1.85829507547732
C           -0.09461438891761        0.96747169862708       -1.26778594420876
N            0.50659981676202       -0.12818430018285       -0.81607416454606
C            1.89022820106988        0.02420179353551       -0.37249072467444
C            2.87660385168665       -0.23189331246021       -1.52182251299783
C            4.28458400446320       -0.04423890420473       -1.02720034324439
C            4.93757149770179        1.16715651395242       -1.18289342527910
C            6.21920051852855        1.35206773962370       -0.68675699223178
C            6.87201863091975        0.32753580618106       -0.01671142507527
O            8.10777885133112        0.39606714749201        0.51211524033366
C            8.84044199519943        1.59412411354871        0.39633204451630
C            6.21055042084960       -0.92156121820171        0.14564802229668
O            6.91709727421854       -1.86289595119977        0.80277107487880
C            6.35310025934595       -3.13779643449174        0.99645072985276
C            4.93025662610489       -1.08250966693002       -0.35950814057116
C           -0.00691109960311       -1.34850915944629       -0.73655390261752
C           -4.06713231343783        2.84057674092898        0.46769735526865
C           -4.76866831401179        2.50678126174924        1.78217553771558
C           -3.64237584629410        4.30624453278514        0.47271427026150
H           -4.73648632473407        0.63964922551600       -1.34052596673681
H           -6.93699599984483       -0.11501399046273       -1.77361679798462
H           -7.24276778217026       -1.61006670443226       -2.69018046663233
H           -5.77007720289588       -0.66515355565181       -3.01292994911391
H           -4.73477740550799       -4.07178286103964        2.41658718270317
H           -5.13161446098231       -5.29982887237937        1.18922194833722
H           -3.47003669090202       -4.66823868333399        1.30264415350387
H           -3.03054070295805       -2.47082899070530        2.12392140891586
H           -3.09943789221825        0.04480748529358        2.32673434941374
H           -3.18983795638799        2.29097792808969       -1.92623523621427
H           -1.77083862402677        3.07161901006767       -1.24320114769067
H           -1.97250026388345        0.07622441231197       -1.77128615859116
H           -1.35584919884714        1.25558344016330       -2.92711403586391
H           -0.77037084020897        1.70005412094773        0.70173472283633
H            0.50568524267211        1.86150562245862       -1.31600284256473
H            2.08421353069294       -0.68245007382350        0.43636978636201
H            2.04079478334153        1.03550644432458        0.01119977003269
H            2.67012313157297        0.46507089189009       -2.33547674617137
H            2.73672312334037       -1.24775141732215       -1.89543416632226
H            4.45387966954016        1.97926818547903       -1.70394493500323
H            6.70427869460666        2.30357140863915       -0.83011354340613
H            8.32649790034242        2.42696283191496        0.88591863106579
H            9.03174944395790        1.84690399118507       -0.65083805378394
H            9.78643545087255        1.40739871673264        0.90101784196768
H            7.10730403558059       -3.71297010010233        1.52995956779651
H            5.44301352711525       -3.08593248114186        1.60289731084267
H            6.13144935789524       -3.62805070272448        0.04345199001916
H            4.42269627626362       -2.02799472160386       -0.24909700716598
H           -0.99000145860636       -1.56433551051550       -1.09967057133400
H           -1.76917553320534       -0.46963970887271        1.33175641553768
H            0.59024195963271       -2.14080744114122       -0.33548754198112
H           -4.78936550266548        2.70162747834222       -0.34425117317478
H           -4.07502561121262        2.60951224421876        2.61041098600927
H           -5.17134954992353        1.49667238117074        1.77136958334287
H           -5.59302355073779        3.19823568256850        1.93618730123513
H           -2.92826809434460        4.49217939142541        1.26902599500158
H           -3.20686627522912        4.60692437119653       -0.47612871604667
H           -4.51529928808749        4.92913353803338        0.64989983958556
H           -0.98081116165590        2.69667802689685        2.79827010574865

 Bond Distances (Angstroems)
 ---------------------------
N1-C2=1.2513         N1-H72=1.0155        C2-N1=1.2513         C2-C3=1.5072         C2-H47=1.1035        C3-C2=1.5072         
C3-C4=1.5147         C3-C14=1.5534        C3-C31=1.5658        C4-C3=1.5147         C4-C5=1.3659         C4-C13=1.4886        
C5-C4=1.3659         C5-C6=1.4023         C5-H34=1.0783        C6-C5=1.4023         C6-O7=1.3351         C6-C9=1.4418         
O7-C6=1.3351         O7-C8=1.4102         C8-O7=1.4102         C8-H35=1.0937        C8-H36=1.0885        C8-H37=1.0940        
C9-C6=1.4418         C9-O10=1.3487        C9-C12=1.3547        O10-C9=1.3487        O10-C11=1.4093       C11-O10=1.4093       
C11-H38=1.0936       C11-H39=1.0880       C11-H40=1.0945       C12-C9=1.3547        C12-C13=1.4862       C12-H41=1.0779       
C13-C4=1.4886        C13-C12=1.4862       C13-H42=1.1023       C13-H63=1.0992       C14-C3=1.5534        C14-C15=1.5397       
C14-H43=1.0896       C14-H44=1.0904       C15-C14=1.5397       C15-C16=1.4876       C15-H45=1.0882       C15-H46=1.0969       
C16-C15=1.4876       C16-N17=1.3289       C16-H48=1.0780       N17-C16=1.3289       N17-C18=1.4610       N17-C30=1.3264       
C18-N17=1.4610       C18-C19=1.5361       C18-H49=1.0914       C18-H50=1.0921       C19-C18=1.5361       C19-C20=1.5041       
C19-H51=1.0911       C19-H52=1.0914       C20-C19=1.5041       C20-C21=1.3850       C20-C29=1.3931       C21-C20=1.3850       
C21-C22=1.3867       C21-H53=1.0793       C22-C21=1.3867       C22-C23=1.3874       C22-H54=1.0776       C23-C22=1.3874       
C23-O24=1.3459       C23-C26=1.4227       O24-C23=1.3459       O24-C25=1.4091       C25-O24=1.4091       C25-H55=1.0943       
C25-H56=1.0941       C25-H57=1.0883       C26-C23=1.4227       C26-O27=1.3480       C26-C29=1.3857       O27-C26=1.3480       
O27-C28=1.4075       C28-O27=1.4075       C28-H58=1.0882       C28-H59=1.0949       C28-H60=1.0944       C29-C20=1.3931       
C29-C26=1.3857       C29-H61=1.0788       C30-N17=1.3264       C30-H62=1.0700       C30-H64=1.0701       C31-C3=1.5658        
C31-C32=1.5269       C31-C33=1.5260       C31-H65=1.0955       C32-C31=1.5269       C32-H66=1.0852       C32-H67=1.0875       
C32-H68=1.0869       C33-C31=1.5260       C33-H69=1.0856       C33-H70=1.0865       C33-H71=1.0869       H34-C5=1.0783        
H35-C8=1.0937        H36-C8=1.0885        H37-C8=1.0940        H38-C11=1.0936       H39-C11=1.0880       H40-C11=1.0945       
H41-C12=1.0779       H42-C13=1.1023       H43-C14=1.0896       H44-C14=1.0904       H45-C15=1.0882       H46-C15=1.0969       
H47-C2=1.1035        H48-C16=1.0780       H49-C18=1.0914       H50-C18=1.0921       H51-C19=1.0911       H52-C19=1.0914       
H53-C21=1.0793       H54-C22=1.0776       H55-C25=1.0943       H56-C25=1.0941       H57-C25=1.0883       H58-C28=1.0882       
H59-C28=1.0949       H60-C28=1.0944       H61-C29=1.0788       H62-C30=1.0700       H63-C13=1.0992       H64-C30=1.0701       
H65-C31=1.0955       H66-C32=1.0852       H67-C32=1.0875       H68-C32=1.0869       H69-C33=1.0856       H70-C33=1.0865       
H71-C33=1.0869       H72-N1=1.0155        
 C  H  Rav=1.0886 sigma=0.0078  Rmin=1.0700  Rmax=1.1035    38
 C  C  Rav=1.4619 sigma=0.0679  Rmin=1.3547  Rmax=1.5658    22
 N  H  Rav=1.0155 sigma=0.0000  Rmin=1.0155  Rmax=1.0155     1
 N  C  Rav=1.3419 sigma=0.0755  Rmin=1.2513  Rmax=1.4610     4
 O  C  Rav=1.3767 sigma=0.0325  Rmin=1.3351  Rmax=1.4102     8

 selected bond angles (degree)
 --------------------
H72-N1-C2=117.33               C3-C2-N1=124.00                H47-C2-N1=123.77               H47-C2-C3=112.23               
C4-C3-C2=109.74                C14-C3-C2=107.08               C14-C3-C4=110.26               C31-C3-C2=112.42               
C31-C3-C4=108.30               C31-C3-C14=109.03              C5-C4-C3=120.88                C13-C4-C3=118.89               
C13-C4-C5=120.18               C6-C5-C4=122.84                H34-C5-C4=119.14               H34-C5-C6=118.02               
O7-C6-C5=125.45                C9-C6-C5=119.50                C9-C6-O7=115.05                C8-O7-C6=120.37                
H35-C8-O7=111.43               H36-C8-O7=105.50               H36-C8-H35=109.32              H37-C8-O7=111.54               
H37-C8-H35=109.71              H37-C8-H36=109.22              O10-C9-C6=114.01               C12-C9-C6=119.66               
C12-C9-O10=126.33              C11-O10-C9=118.80              

 selected dihedral angles (degree)
 ---------------------------------
C3-C2-N1-H72=181.53           H47-C2-N1-H72=  0.31          C4-C3-C2-N1=261.15            C4-C3-C2-H47= 82.25           
C14-C3-C2-N1=141.47           C14-C3-C2-H47=322.57          C31-C3-C2-N1= 21.74           C31-C3-C2-H47=202.84          
C5-C4-C3-C2=186.20            C5-C4-C3-C14=303.92           C5-C4-C3-C31= 63.15           C13-C4-C3-C2=  8.66           
C13-C4-C3-C14=126.38          C13-C4-C3-C31=245.61          C6-C5-C4-C3=181.45            C6-C5-C4-C13=358.96           
H34-C5-C4-C3=  0.93           H34-C5-C4-C13=178.44          O7-C6-C5-C4=178.04            O7-C6-C5-H34=358.56           
C9-C6-C5-C4=358.21            C9-C6-C5-H34=178.73           C8-O7-C6-C5=356.74            C8-O7-C6-C9=176.58            
H35-C8-O7-C6=301.57           H36-C8-O7-C6=183.03           H37-C8-O7-C6= 64.56           O10-C9-C6-C5=181.87           
O10-C9-C6-O7=  2.03           C12-C9-C6-C5=  2.12           C12-C9-C6-O7=182.27           C11-O10-C9-C6=182.36          
C11-O10-C9-C12=  2.09         
           -------------------------------------------------
          |                Final Singlepoint                |
           -------------------------------------------------

          ...................................................
          :                      SETUP                      :
          :.................................................:
          :  # basis functions                 171          :
          :  # atomic orbitals                 171          :
          :  # shells                          105          :
          :  # electrons                       180          :
          :  max. iterations                   250          :
          :  Hamiltonian                  GFN2-xTB          :
          :  restarted?                      false          :
          :  GBSA solvation                  false          :
          :  PC potential                    false          :
          :  electronic temp.         5000.0000000     K    :
          :  accuracy                    1.0000000          :
          :  -> integral cutoff          0.2500000E+02      :
          :  -> integral neglect         0.1000000E-07      :
          :  -> SCF convergence          0.1000000E-05 Eh   :
          :  -> wf. convergence          0.1000000E-03 e    :
          :  Broyden damping             0.4000000          :
          ...................................................

 iter      E             dE          RMSdq      gap      omega  full diag
   1   -100.7213689 -0.100721E+03  0.656E-05    0.98       0.0  T
   2   -100.7213689  0.115406E-09  0.640E-05    0.98     184.3  T
   3   -100.7213689 -0.256520E-09  0.291E-05    0.98     405.0  T

   *** convergence criteria satisfied after 3 iterations ***

         #    Occupation            Energy/Eh            Energy/eV
      -------------------------------------------------------------
         1        2.0000           -0.8255715             -22.4649
       ...           ...                  ...                  ...
        84        1.9960           -0.5141853             -13.9917
        85        1.9955           -0.5120820             -13.9345
        86        1.9768           -0.4861412             -13.2286
        87        1.9724           -0.4833209             -13.1518
        88        1.9544           -0.4752219             -12.9314
        89        1.8365           -0.4540338             -12.3549
        90        1.6255           -0.4389787             -11.9452 (HOMO)
        91        0.6200           -0.4030668             -10.9680 (LUMO)
        92        0.0188           -0.3420035              -9.3064
        93        0.0148           -0.3382060              -9.2031
        94        0.0048           -0.3201538              -8.7118
        95        0.0025           -0.3099037              -8.4329
       ...           ...                  ...                  ...
       171                          0.5791842              15.7604
      -------------------------------------------------------------
                  HL-Gap            0.0359119 Eh            0.9772 eV
             Fermi-level           -0.4157351 Eh          -11.3127 eV

 SCC (total)                   0 d,  0 h,  0 min,  0.117 sec
 SCC setup                      ...        0 min,  0.001 sec (  0.749%)
 Dispersion                     ...        0 min,  0.002 sec (  1.356%)
 classical contributions        ...        0 min,  0.000 sec (  0.375%)
 integral evaluation            ...        0 min,  0.018 sec ( 15.468%)
 iterations                     ...        0 min,  0.026 sec ( 22.365%)
 molecular gradient             ...        0 min,  0.069 sec ( 59.201%)
 printout                       ...        0 min,  0.001 sec (  0.473%)

         :::::::::::::::::::::::::::::::::::::::::::::::::::::
         ::                     SUMMARY                     ::
         :::::::::::::::::::::::::::::::::::::::::::::::::::::
         :: total energy             -99.350911268137 Eh    ::
         :: gradient norm              0.004409035183 Eh/a0 ::
         :: HOMO-LUMO gap              0.977211249396 eV    ::
         ::.................................................::
         :: SCC energy              -100.721368890831 Eh    ::
         :: -> isotropic ES            0.104558876368 Eh    ::
         :: -> anisotropic ES          0.005737965414 Eh    ::
         :: -> anisotropic XC          0.045169423361 Eh    ::
         :: -> dispersion             -0.075057256912 Eh    ::
         :: repulsion energy           1.369171563627 Eh    ::
         :: add. restraining           0.000000000000 Eh    ::
         :: total charge               1.000000000042 e     ::
         :::::::::::::::::::::::::::::::::::::::::::::::::::::

           -------------------------------------------------
          |                Property Printout                |
           -------------------------------------------------

    * Orbital Energies and Occupations

         #    Occupation            Energy/Eh            Energy/eV
      -------------------------------------------------------------
         1        2.0000           -0.8255715             -22.4649
       ...           ...                  ...                  ...
        78        1.9987           -0.5316689             -14.4674
        79        1.9986           -0.5308065             -14.4440
        80        1.9982           -0.5266763             -14.3316
        81        1.9981           -0.5257788             -14.3072
        82        1.9969           -0.5180568             -14.0970
        83        1.9968           -0.5177104             -14.0876
        84        1.9960           -0.5141853             -13.9917
        85        1.9955           -0.5120820             -13.9345
        86        1.9768           -0.4861412             -13.2286
        87        1.9724           -0.4833209             -13.1518
        88        1.9544           -0.4752219             -12.9314
        89        1.8365           -0.4540338             -12.3549
        90        1.6255           -0.4389787             -11.9452 (HOMO)
        91        0.6200           -0.4030668             -10.9680 (LUMO)
        92        0.0188           -0.3420035              -9.3064
        93        0.0148           -0.3382060              -9.2031
        94        0.0048           -0.3201538              -8.7118
        95        0.0025           -0.3099037              -8.4329
        96        0.0021           -0.3071345              -8.3576
        97        0.0000           -0.2326926              -6.3319
        98        0.0000           -0.1850278              -5.0349
        99                         -0.1155816              -3.1451
       100                         -0.0772173              -2.1012
       101                         -0.0715725              -1.9476
       ...                                ...                  ...
       171                          0.5791842              15.7604
      -------------------------------------------------------------
                  HL-Gap            0.0359119 Eh            0.9772 eV
             Fermi-level           -0.4157351 Eh          -11.3127 eV

     #   Z          covCN         q      C6AA      α(0)
     1   7 N        1.774    -0.278    28.026     7.839
     2   6 C        2.824     0.097    25.845     8.330
     3   6 C        3.906     0.006    20.428     6.424
     4   6 C        2.962     0.015    27.680     8.630
     5   6 C        2.904    -0.073    29.809     8.952
     6   6 C        2.860     0.136    25.029     8.200
     7   8 O        1.706    -0.198    17.307     5.617
     8   6 C        3.644     0.021    20.564     6.519
     9   6 C        2.850     0.133    25.079     8.208
    10   8 O        1.706    -0.235    17.897     5.712
    11   6 C        3.646     0.024    20.494     6.506
    12   6 C        2.901    -0.082    30.050     8.988
    13   6 C        3.812    -0.064    21.724     6.634
    14   6 C        3.809    -0.066    21.761     6.640
    15   6 C        3.801    -0.064    21.723     6.636
    16   6 C        2.862    -0.045    29.101     8.842
    17   7 N        2.730     0.085    19.765     6.603
    18   6 C        3.783    -0.018    20.914     6.514
    19   6 C        3.808    -0.068    21.799     6.646
    20   6 C        2.970     0.001    28.006     8.681
    21   6 C        2.922    -0.048    29.191     8.860
    22   6 C        2.914    -0.067    29.676     8.933
    23   6 C        2.865     0.133    25.081     8.209
    24   8 O        1.706    -0.222    17.681     5.677
    25   6 C        3.645     0.025    20.489     6.506
    26   6 C        2.863     0.133    25.089     8.210
    27   8 O        1.706    -0.225    17.727     5.685
    28   6 C        3.645     0.027    20.451     6.500
    29   6 C        2.920    -0.079    29.986     8.980
    30   6 C        2.810    -0.110    30.759     9.087
    31   6 C        3.852    -0.007    20.670     6.466
    32   6 C        3.755    -0.121    22.881     6.820
    33   6 C        3.755    -0.117    22.796     6.808
    34   1 H        0.926     0.061     2.189     2.314
    35   1 H        0.924     0.062     2.178     2.308
    36   1 H        0.925     0.089     1.893     2.152
    37   1 H        0.924     0.058     2.219     2.330
    38   1 H        0.924     0.053     2.279     2.361
    39   1 H        0.925     0.083     1.948     2.182
    40   1 H        0.924     0.049     2.327     2.386
    41   1 H        0.926     0.059     2.212     2.326
    42   1 H        0.923     0.096     1.818     2.109
    43   1 H        0.925     0.053     2.278     2.360
    44   1 H        0.924     0.054     2.274     2.358
    45   1 H        0.925     0.052     2.294     2.369
    46   1 H        0.924     0.064     2.151     2.294
    47   1 H        0.923     0.010     2.895     2.661
    48   1 H        0.926     0.050     2.324     2.384
    49   1 H        0.924     0.070     2.083     2.257
    50   1 H        0.924     0.065     2.141     2.288
    51   1 H        0.924     0.057     2.238     2.340
    52   1 H        0.924     0.059     2.215     2.327
    53   1 H        0.926     0.047     2.355     2.400
    54   1 H        0.926     0.059     2.213     2.327
    55   1 H        0.924     0.054     2.270     2.356
    56   1 H        0.924     0.056     2.242     2.342
    57   1 H        0.925     0.082     1.957     2.188
    58   1 H        0.925     0.082     1.963     2.191
    59   1 H        0.924     0.048     2.342     2.393
    60   1 H        0.924     0.053     2.282     2.362
    61   1 H        0.926     0.048     2.345     2.394
    62   1 H        0.927     0.054     2.270     2.356
    63   1 H        0.923     0.071     2.077     2.254
    64   1 H        0.927     0.055     2.263     2.353
    65   1 H        0.924     0.036     2.497     2.471
    66   1 H        0.925     0.071     2.073     2.251
    67   1 H        0.925     0.032     2.554     2.499
    68   1 H        0.925     0.053     2.283     2.363
    69   1 H        0.925     0.058     2.227     2.334
    70   1 H        0.925     0.037     2.490     2.468
    71   1 H        0.925     0.055     2.260     2.351
    72   1 H        0.860     0.155     1.365     1.830

 Mol. C6AA /au·bohr⁶  :      47465.912108
 Mol. C8AA /au·bohr⁸  :    1082381.398908
 Mol. α(0) /au        :        334.447967


Wiberg/Mayer (AO) data.
largest (>0.10) Wiberg bond orders for each atom

 ---------------------------------------------------------------------------
     #   Z sym  total        # sym  WBO       # sym  WBO       # sym  WBO
 ---------------------------------------------------------------------------
     1   7 N    3.018 --     2 C    1.955    72 H    0.943
     2   6 C    3.928 --     1 N    1.955     3 C    0.994    47 H    0.912
     3   6 C    3.977 --     2 C    0.994     4 C    0.986    14 C    0.956
                            31 C    0.928
     4   6 C    3.738 --     5 C    1.549    13 C    1.043     3 C    0.986
     5   6 C    3.976 --     4 C    1.549     6 C    1.291    34 H    0.954
     6   6 C    3.691 --     5 C    1.291     7 O    1.151     9 C    1.131
     7   8 O    2.270 --     6 C    1.151     8 C    0.970
     8   6 C    3.925 --    36 H    0.976    35 H    0.972    37 H    0.971
                             7 O    0.970
     9   6 C    3.936 --    12 C    1.579     6 C    1.131    10 O    1.094
    10   8 O    2.260 --     9 C    1.094    11 C    0.976    12 C    0.107
    11   6 C    3.931 --    39 H    0.977    10 O    0.976    40 H    0.975
                            38 H    0.974
    12   6 C    3.804 --     9 C    1.579    13 C    1.047    41 H    0.963
                            10 O    0.107
    13   6 C    3.984 --    12 C    1.047     4 C    1.043    63 H    0.918
                            42 H    0.904
    14   6 C    3.968 --    15 C    0.985    44 H    0.972    43 H    0.970
                             3 C    0.956
    15   6 C    3.987 --    16 C    1.044    14 C    0.985    45 H    0.962
                            46 H    0.943
    16   6 C    3.689 --    17 N    1.345    15 C    1.044    48 H    0.962
                            30 C    0.240
    17   7 N    3.736 --    30 C    1.362    16 C    1.345    18 C    0.966
    18   6 C    3.955 --    19 C    0.977    50 H    0.969    49 H    0.968
                            17 N    0.966
    19   6 C    3.987 --    20 C    1.007    18 C    0.977    51 H    0.972
                            52 H    0.970
    20   6 C    3.943 --    21 C    1.412    29 C    1.379    19 C    1.007
    21   6 C    3.949 --    22 C    1.415    20 C    1.412    53 H    0.968
    22   6 C    3.958 --    21 C    1.415    23 C    1.384    54 H    0.963
    23   6 C    3.894 --    22 C    1.384    26 C    1.218    24 O    1.110
    24   8 O    2.254 --    23 C    1.110    25 C    0.976
    25   6 C    3.928 --    57 H    0.977    24 O    0.976    55 H    0.973
                            56 H    0.972
    26   6 C    3.897 --    29 C    1.396    23 C    1.218    27 O    1.103
    27   8 O    2.253 --    26 C    1.103    28 C    0.979
    28   6 C    3.932 --    27 O    0.979    58 H    0.977    59 H    0.973
                            60 H    0.973
    29   6 C    3.959 --    26 C    1.396    20 C    1.379    61 H    0.962
    30   6 C    3.623 --    17 N    1.362    64 H    0.976    62 H    0.969
                            16 C    0.240
    31   6 C    3.966 --    33 C    1.010    32 C    1.009    65 H    0.961
                             3 C    0.928
    32   6 C    3.981 --    31 C    1.009    67 H    0.983    68 H    0.981
                            66 H    0.973
    33   6 C    3.985 --    31 C    1.010    70 H    0.983    71 H    0.980
                            69 H    0.979
    34   1 H    0.995 --     5 C    0.954
    35   1 H    0.990 --     8 C    0.972
    36   1 H    0.992 --     8 C    0.976
    37   1 H    0.990 --     8 C    0.971
    38   1 H    0.995 --    11 C    0.974
    39   1 H    0.992 --    11 C    0.977
    40   1 H    0.995 --    11 C    0.975
    41   1 H    0.995 --    12 C    0.963
    42   1 H    0.950 --    13 C    0.904
    43   1 H    0.996 --    14 C    0.970
    44   1 H    0.996 --    14 C    0.972
    45   1 H    0.997 --    15 C    0.962
    46   1 H    0.978 --    15 C    0.943
    47   1 H    0.986 --     2 C    0.912
    48   1 H    0.997 --    16 C    0.962
    49   1 H    0.994 --    18 C    0.968
    50   1 H    0.996 --    18 C    0.969
    51   1 H    0.996 --    19 C    0.972
    52   1 H    0.995 --    19 C    0.970
    53   1 H    0.997 --    21 C    0.968
    54   1 H    0.995 --    22 C    0.963
    55   1 H    0.992 --    25 C    0.973
    56   1 H    0.991 --    25 C    0.972
    57   1 H    0.992 --    25 C    0.977
    58   1 H    0.993 --    28 C    0.977
    59   1 H    0.993 --    28 C    0.973
    60   1 H    0.993 --    28 C    0.973
    61   1 H    0.996 --    29 C    0.962
    62   1 H    0.997 --    30 C    0.969
    63   1 H    0.963 --    13 C    0.918
    64   1 H    0.997 --    30 C    0.976
    65   1 H    0.994 --    31 C    0.961
    66   1 H    0.992 --    32 C    0.973
    67   1 H    0.998 --    32 C    0.983
    68   1 H    0.994 --    32 C    0.981
    69   1 H    0.995 --    33 C    0.979
    70   1 H    0.997 --    33 C    0.983
    71   1 H    0.994 --    33 C    0.980
    72   1 H    0.971 --     1 N    0.943
 ---------------------------------------------------------------------------

Topologies differ in total number of bonds
Writing topology from bond orders to xtbtopo.mol

molecular dipole:
                 x           y           z       tot (Debye)
 q only:       -0.308      -0.083      -0.375
   full:        0.027      -0.099      -0.578       1.493
molecular quadrupole (traceless):
                xx          xy          yy          xz          yz          zz
 q only:       61.517       7.424     -20.952       7.132      -9.929     -40.566
  q+dip:       56.073      10.566     -18.937       9.851     -12.836     -37.136
   full:       55.202      10.003     -19.074       7.462     -12.713     -36.128

           -------------------------------------------------
          |                Geometry Summary                 |
           -------------------------------------------------

      molecular mass/u    :      455.6105846
   center of mass at/Å    :        0.0269776      -0.0120631      -0.0225525
  moments of inertia/u·Å² :        0.2435212E+04   0.1086636E+05   0.1211129E+05
rotational constants/cm⁻¹ :        0.6922449E-02   0.1551359E-02   0.1391894E-02

 * 64 selected distances

     #   Z          #   Z                                           value/Å
     1   7 N        2   6 C                                       1.2512868
     4   6 C        5   6 C                                       1.3658787
     5   6 C        6   6 C                                       1.4022556
     6   6 C        7   8 O                                       1.3351282
     7   8 O        8   6 C                                       1.4102076
     9   6 C       10   8 O                                       1.3487302
    10   8 O       11   6 C                                       1.4093163
     9   6 C       12   6 C                                       1.3546698
    12   6 C       13   6 C                                       1.4862320
    14   6 C       15   6 C                                       1.5396886 (max)
    15   6 C       16   6 C                                       1.4876097
    16   6 C       17   7 N                                       1.3288960
    17   7 N       18   6 C                                       1.4609640
    18   6 C       19   6 C                                       1.5360617
    20   6 C       21   6 C                                       1.3849593
    21   6 C       22   6 C                                       1.3866928
    22   6 C       23   6 C                                       1.3873711
    23   6 C       24   8 O                                       1.3459041
    24   8 O       25   6 C                                       1.4090926
    23   6 C       26   6 C                                       1.4227243
    26   6 C       27   8 O                                       1.3480099
    27   8 O       28   6 C                                       1.4074715
    20   6 C       29   6 C                                       1.3930946
    26   6 C       29   6 C                                       1.3857271
    17   7 N       30   6 C                                       1.3263521
    31   6 C       32   6 C                                       1.5269006
    31   6 C       33   6 C                                       1.5259835
     5   6 C       34   1 H                                       1.0782764
     8   6 C       35   1 H                                       1.0937292
     8   6 C       36   1 H                                       1.0884611
     8   6 C       37   1 H                                       1.0940426
    11   6 C       38   1 H                                       1.0936490
    11   6 C       39   1 H                                       1.0879927
    11   6 C       40   1 H                                       1.0945270
    12   6 C       41   1 H                                       1.0778558
    13   6 C       42   1 H                                       1.1022582
    14   6 C       43   1 H                                       1.0896443
    14   6 C       44   1 H                                       1.0904100
    15   6 C       45   1 H                                       1.0881792
    15   6 C       46   1 H                                       1.0968901
    16   6 C       48   1 H                                       1.0779524
    18   6 C       49   1 H                                       1.0914407
    18   6 C       50   1 H                                       1.0920742
    19   6 C       51   1 H                                       1.0910668
    19   6 C       52   1 H                                       1.0913845
    21   6 C       53   1 H                                       1.0793415
    22   6 C       54   1 H                                       1.0775952
    25   6 C       55   1 H                                       1.0942825
    25   6 C       56   1 H                                       1.0941031
    25   6 C       57   1 H                                       1.0883372
    28   6 C       58   1 H                                       1.0882463
    28   6 C       59   1 H                                       1.0948632
    28   6 C       60   1 H                                       1.0943880
    29   6 C       61   1 H                                       1.0787726
    30   6 C       62   1 H                                       1.0700007 (min)
    13   6 C       63   1 H                                       1.0991501
    30   6 C       64   1 H                                       1.0701321
    31   6 C       65   1 H                                       1.0955311
    32   6 C       66   1 H                                       1.0852041
    32   6 C       67   1 H                                       1.0874691
    32   6 C       68   1 H                                       1.0869179
    33   6 C       69   1 H                                       1.0856492
    33   6 C       70   1 H                                       1.0864530
    33   6 C       71   1 H                                       1.0869135

 * 4 distinct bonds (by element types)

   Z      Z             #   av. dist./Å        max./Å        min./Å
   1 H    6 C          37     1.0881942     1.1022582     1.0700007
   6 C    6 C          15     1.4390566     1.5396886     1.3546698
   6 C    7 N           4     1.3418747     1.4609640     1.2512868
   6 C    8 O           8     1.3767325     1.4102076     1.3351282


optimized geometry written to: xtbopt.xyz


           -------------------------------------------------
          | TOTAL ENERGY              -99.350911268137 Eh   |
          | GRADIENT NORM               0.004409035183 Eh/α |
          | HOMO-LUMO GAP               0.977211249396 eV   |
           -------------------------------------------------

------------------------------------------------------------------------
 * finished run on 2024/04/06 at 11:16:32.633     
------------------------------------------------------------------------
 total:
 * wall-time:     0 d,  0 h,  0 min,  1.422 sec
 *  cpu-time:     0 d,  0 h,  0 min,  1.394 sec
 * ratio c/w:     0.981 speedup
 SCF:
 * wall-time:     0 d,  0 h,  0 min,  0.120 sec
 *  cpu-time:     0 d,  0 h,  0 min,  0.120 sec
 * ratio c/w:     0.999 speedup
 ANC optimizer:
 * wall-time:     0 d,  0 h,  0 min,  1.257 sec
 *  cpu-time:     0 d,  0 h,  0 min,  1.250 sec
 * ratio c/w:     0.994 speedup

