25
 energy: -42.483145979215 xtb: 6.6.1 (8d0f1dd)
C            3.22478804212807        1.05252034225028        0.18343534092602
N            2.30979493461076        0.07642997863265        0.07799715658267
C            2.56756861790417       -1.27953885031549        0.13143452143157
N            1.35888406190501       -1.98043931055365        0.23188157187472
C            0.36606611858390       -1.09168812652576        0.06591100091577
C            0.89539455540575        0.19631442402239        0.06520415065928
C            0.04852266362287        1.35641165423020        0.03373326808889
O            0.39011685951644        2.51664505128994       -0.00403668533175
N           -1.35722987505369        1.03379114155289       -0.05173726133736
C           -2.31386414654845        2.13917036079482       -0.08329824901442
C           -1.88096537517049       -0.22412665686037       -0.05612959281389
O           -3.07048497170066       -0.45916290193036       -0.07014244441029
N           -0.97520103934585       -1.31861965479434       -0.02474661810244
C           -1.53989092958911       -2.65193496922202       -0.09925353698417
H            4.24769045553930        0.72992072303170        0.37385264871225
H            4.78407662742126        2.18452783564112       -1.26507472818325
H            2.92844897164863        2.03204109525722        0.51848690304978
H            3.51195868115619       -1.72587134694183        0.33592902915218
H           -1.73024489838620        3.05416467422472       -0.06477796612453
H           -2.90756620061198        2.08394141750248       -0.99796017517965
H           -2.98874004396295        2.07819968415337        0.76983149655671
H           -1.28479537484541       -3.22622278155213        0.79226811442288
H           -1.21066171623940       -3.18345096680205       -0.99704551041248
H           -2.62570065280446       -2.54005246676715       -0.13848029280873
H            1.24684211672216       -2.97031705753320        0.09689592098321
