      -----------------------------------------------------------      
     |                   =====================                   |     
     |                           x T B                           |     
     |                   =====================                   |     
     |                         S. Grimme                         |     
     |          Mulliken Center for Theoretical Chemistry        |     
     |                    University of Bonn                     |     
      -----------------------------------------------------------      

   * xtb version 6.6.1 (8d0f1dd) compiled by 'conda@1efc2f54142f' on 2023-08-01

   xtb is free software: you can redistribute it and/or modify it under
   the terms of the GNU Lesser General Public License as published by
   the Free Software Foundation, either version 3 of the License, or
   (at your option) any later version.
   
   xtb is distributed in the hope that it will be useful,
   but WITHOUT ANY WARRANTY; without even the implied warranty of
   MERCHANTABILITY or FITNESS FOR A PARTICULAR PURPOSE.  See the
   GNU Lesser General Public License for more details.
   
   Cite this work as:
   * C. Bannwarth, E. Caldeweyher, S. Ehlert, A. Hansen, P. Pracht,
     J. Seibert, S. Spicher, S. Grimme, WIREs Comput. Mol. Sci., 2020, 11,
     e01493. DOI: 10.1002/wcms.1493
   
   for GFN2-xTB:
   * C. Bannwarth, S. Ehlert and S. Grimme., J. Chem. Theory Comput., 2019,
     15, 1652-1671. DOI: 10.1021/acs.jctc.8b01176
   for GFN1-xTB:
   * S. Grimme, C. Bannwarth, P. Shushkov, J. Chem. Theory Comput., 2017,
     13, 1989-2009. DOI: 10.1021/acs.jctc.7b00118
   for GFN0-xTB:
   * P. Pracht, E. Caldeweyher, S. Ehlert, S. Grimme, ChemRxiv, 2019, preprint.
     DOI: 10.26434/chemrxiv.8326202.v1
   for GFN-FF:
   * S. Spicher and S. Grimme, Angew. Chem. Int. Ed., 2020, 59, 15665-15673.
     DOI: 10.1002/anie.202004239
   
   for ALPB and GBSA implicit solvation:
   * S. Ehlert, M. Stahn, S. Spicher, S. Grimme, J. Chem. Theory Comput.,
     2021, 17, 4250-4261. DOI: 10.1021/acs.jctc.1c00471
   
   for DFT-D4:
   * E. Caldeweyher, C. Bannwarth and S. Grimme, J. Chem. Phys., 2017,
     147, 034112. DOI: 10.1063/1.4993215
   * E. Caldeweyher, S. Ehlert, A. Hansen, H. Neugebauer, S. Spicher,
     C. Bannwarth and S. Grimme, J. Chem. Phys., 2019, 150, 154122.
     DOI: 10.1063/1.5090222
   * E. Caldeweyher, J.-M. Mewes, S. Ehlert and S. Grimme, Phys. Chem. Chem. Phys.
     2020, 22, 8499-8512. DOI: 10.1039/D0CP00502A
   
   for sTDA-xTB:
   * S. Grimme and C. Bannwarth, J. Chem. Phys., 2016, 145, 054103.
     DOI: 10.1063/1.4959605
   
   in the mass-spec context:
   * V. Asgeirsson, C. Bauer and S. Grimme, Chem. Sci., 2017, 8, 4879.
     DOI: 10.1039/c7sc00601b
   * J. Koopman and S. Grimme, ACS Omega 2019, 4, 12, 15120-15133.
     DOI: 10.1021/acsomega.9b02011
   
   for metadynamics refer to:
   * S. Grimme, J. Chem. Theory Comput., 2019, 155, 2847-2862
     DOI: 10.1021/acs.jctc.9b00143
   
   for SPH calculations refer to:
   * S. Spicher and S. Grimme, J. Chem. Theory Comput., 2021, 17, 1701-1714
     DOI: 10.1021/acs.jctc.0c01306
   
   with help from (in alphabetical order)
   P. Atkinson, C. Bannwarth, F. Bohle, G. Brandenburg, E. Caldeweyher
   M. Checinski, S. Dohm, S. Ehlert, S. Ehrlich, I. Gerasimov, C. Hölzer
   A. Katbashev, J. Koopman, C. Lavigne, S. Lehtola, F. März, M. Müller,
   F. Musil, H. Neugebauer, J. Pisarek, C. Plett, P. Pracht, F. Pultar,
   J. Seibert, P. Shushkov, S. Spicher, M. Stahn, M. Steiner, T. Strunk,
   J. Stückrath, T. Rose, and J. Unsleber
   
 * started run on 2024/06/05 at 19:58:49.032     

           -------------------------------------------------
          |                Calculation Setup                |
           -------------------------------------------------

          program call               : xtb struc.xyz --opt loose --input .xc1 --gfn2
          hostname                   : n-62-29-9
          coordinate file            : struc.xyz
          omp threads                :                     1

   ID    Z sym.   atoms
    1    6 C      1, 3, 5-7, 10, 11, 14
    2    7 N      2, 4, 9, 13
    3    8 O      8, 12
    4    1 H      15-25
constraining bond 7 20 to    5.1400000 Å, actual value:    3.1456537 Å

           -------------------------------------------------
          |                 G F N 2 - x T B                 |
           -------------------------------------------------

        Reference                      10.1021/acs.jctc.8b01176
      * Hamiltonian:
        H0-scaling (s, p, d)           1.850000    2.230000    2.230000
        zeta-weighting                 0.500000
      * Dispersion:
        s8                             2.700000
        a1                             0.520000
        a2                             5.000000
        s9                             5.000000
      * Repulsion:
        kExp                           1.500000    1.000000
        rExp                           1.000000
      * Coulomb:
        alpha                          2.000000
        third order                    shell-resolved
        anisotropic                    true
        a3                             3.000000
        a5                             4.000000
        cn-shift                       1.200000
        cn-exp                         4.000000
        max-rad                        5.000000


          ...................................................
          :                      SETUP                      :
          :.................................................:
          :  # basis functions                  67          :
          :  # atomic orbitals                  67          :
          :  # shells                           39          :
          :  # electrons                        74          :
          :  max. iterations                   250          :
          :  Hamiltonian                  GFN2-xTB          :
          :  restarted?                      false          :
          :  GBSA solvation                  false          :
          :  PC potential                    false          :
          :  electronic temp.         7500.0000000     K    :
          :  accuracy                    1.0000000          :
          :  -> integral cutoff          0.2500000E+02      :
          :  -> integral neglect         0.1000000E-07      :
          :  -> SCF convergence          0.1000000E-05 Eh   :
          :  -> wf. convergence          0.1000000E-03 e    :
          :  Broyden damping             0.4000000          :
          ...................................................

 iter      E             dE          RMSdq      gap      omega  full diag
   1    -42.5960780 -0.425961E+02  0.440E+00    3.52       0.0  T
   2    -42.7780033 -0.181925E+00  0.248E+00    3.37       1.0  T
   3    -42.7871777 -0.917437E-02  0.149E+00    3.50       1.0  T
   4    -42.7817164  0.546128E-02  0.642E-01    3.42       1.0  T
   5    -42.7911189 -0.940247E-02  0.115E-01    3.49       1.0  T
   6    -42.7912109 -0.920486E-04  0.685E-02    3.46       1.0  T
   7    -42.7912647 -0.537856E-04  0.265E-02    3.48       1.0  T
   8    -42.7912686 -0.385526E-05  0.113E-02    3.47       1.8  T
   9    -42.7912697 -0.111307E-05  0.441E-03    3.47       4.5  T
  10    -42.7912698 -0.733569E-07  0.139E-03    3.47      14.4  T
  11    -42.7912698 -0.243437E-08  0.602E-04    3.47      33.2  T
  12    -42.7912698 -0.222032E-08  0.181E-04    3.47     110.6  T

   *** convergence criteria satisfied after 12 iterations ***

         #    Occupation            Energy/Eh            Energy/eV
      -------------------------------------------------------------
         1        2.0000           -0.9116047             -24.8060
       ...           ...                  ...                  ...
        31        1.9942           -0.6212459             -16.9050
        32        1.9930           -0.6166804             -16.7807
        33        1.9876           -0.6031136             -16.4116
        34        1.9710           -0.5827317             -15.8569
        35        1.9403           -0.5651917             -15.3796
        36        1.9387           -0.5645672             -15.3627
        37        1.9155           -0.5566412             -15.1470 (HOMO)
        38        0.1907           -0.4290919             -11.6762 (LUMO)
        39        0.0640           -0.4015676             -10.9272
        40        0.0206           -0.3740689             -10.1789
        41        0.0006           -0.2879107              -7.8344
        42        0.0000           -0.2065811              -5.6214
       ...           ...                  ...                  ...
        67                          0.5613577              15.2753
      -------------------------------------------------------------
                  HL-Gap            0.1275493 Eh            3.4708 eV
             Fermi-level           -0.4825284 Eh          -13.1303 eV

 SCC (total)                   0 d,  0 h,  0 min,  0.036 sec
 SCC setup                      ...        0 min,  0.000 sec (  0.954%)
 Dispersion                     ...        0 min,  0.000 sec (  1.187%)
 classical contributions        ...        0 min,  0.000 sec (  0.317%)
 integral evaluation            ...        0 min,  0.005 sec ( 14.474%)
 iterations                     ...        0 min,  0.018 sec ( 50.367%)
 molecular gradient             ...        0 min,  0.011 sec ( 32.268%)
 printout                       ...        0 min,  0.000 sec (  0.396%)

         :::::::::::::::::::::::::::::::::::::::::::::::::::::
         ::                     SUMMARY                     ::
         :::::::::::::::::::::::::::::::::::::::::::::::::::::
         :: total energy             -35.158244247567 Eh    ::
         :: gradient norm              5.337291326496 Eh/a0 ::
         :: HOMO-LUMO gap              3.470793873671 eV    ::
         ::.................................................::
         :: SCC energy               -42.791269777655 Eh    ::
         :: -> isotropic ES            0.136760385929 Eh    ::
         :: -> anisotropic ES         -0.005341405309 Eh    ::
         :: -> anisotropic XC          0.011501049227 Eh    ::
         :: -> dispersion             -0.022650340738 Eh    ::
         :: repulsion energy           0.531105277918 Eh    ::
         :: add. restraining           7.101806093162 Eh    ::
         :: total charge               1.000000000010 e     ::
         :::::::::::::::::::::::::::::::::::::::::::::::::::::

      ----------------------------------------------------------- 
     |                   =====================                   |
     |                        A N C O P T                        |
     |                   =====================                   |
     |               Approximate Normal Coordinate               |
     |                Rational Function Optimizer                |
      ----------------------------------------------------------- 

          ...................................................
          :                      SETUP                      :
          :.................................................:
          :   optimization level             loose          :
          :   max. optcycles                   200          :
          :   ANC micro-cycles                  20          :
          :   degrees of freedom                69          :
          :.................................................:
          :   RF solver                   davidson          :
          :   write xtbopt.log                true          :
          :   linear?                        false          :
          :   energy convergence         0.5000000E-04 Eh   :
          :   grad. convergence          0.4000000E-02 Eh/α :
          :   maxmium RF displ.          1.0000000          :
          :   Hlow (freq-cutoff)         0.1000000E-01      :
          :   Hmax (freq-cutoff)         5.0000000          :
          :   S6 in model hess.         20.0000000          :
          ...................................................

generating ANC from model Hessian ...
Using Lindh-Hessian (1995)
 Shifting diagonal of input Hessian by    1.0588985732656635     
 Lowest  eigenvalues of input Hessian
    0.010000    0.194960    0.000000    0.000000    0.000000    0.000000
    0.000000    0.000000    1.061758    1.065332    1.067998    1.069003
    1.070524    1.072158    1.077426    1.078551    1.083504    1.097057
 Highest eigenvalues
    3.175741    3.272598    3.310913    3.361564    3.539290    4.077318


........................................................................
.............................. CYCLE    1 ..............................
........................................................................

 iter      E             dE          RMSdq      gap      omega  full diag
   1    -42.7912698 -0.427913E+02  0.838E-05    3.47       0.0  T
   2    -42.7912698 -0.247127E-10  0.452E-05    3.47     442.9  T
   3    -42.7912698 -0.149214E-11  0.279E-05    3.47     715.8  T
     SCC iter.                  ...        0 min,  0.005 sec
     gradient                   ...        0 min,  0.011 sec
 * total energy  :   -35.1582442 Eh     change       -0.2401990E-09 Eh
   gradient norm :     5.3372915 Eh/α   predicted     0.0000000E+00 (-100.00%)
   displ. norm   :     0.7192395 α      lambda       -0.3811928E+01
   maximum displ.:     0.5984402 α      in ANC's #69, #60, #58, ...

........................................................................
.............................. CYCLE    2 ..............................
........................................................................

 iter      E             dE          RMSdq      gap      omega  full diag
   1    -42.7396726 -0.427397E+02  0.880E-01    3.02       0.0  T
   2    -42.7437263 -0.405374E-02  0.541E-01    2.72       1.0  T
   3    -42.7443351 -0.608846E-03  0.286E-01    2.90       1.0  T
   4    -42.7443128  0.223914E-04  0.124E-01    2.76       1.0  T
   5    -42.7447216 -0.408880E-03  0.198E-02    2.82       1.0  T
   6    -42.7447249 -0.326316E-05  0.914E-03    2.82       2.2  T
   7    -42.7447250 -0.106145E-06  0.237E-03    2.82       8.4  T
   8    -42.7447251 -0.895935E-07  0.845E-04    2.82      23.7  T
   9    -42.7447251 -0.361080E-08  0.463E-04    2.82      43.2  T
     SCC iter.                  ...        0 min,  0.013 sec
     gradient                   ...        0 min,  0.012 sec
 * total energy  :   -38.4043580 Eh     change       -0.3246114E+01 Eh
   gradient norm :     3.7524472 Eh/α   predicted    -0.2893154E+01 ( -10.87%)
   displ. norm   :     0.7511465 α      lambda       -0.2808707E+01
   maximum displ.:     0.6318835 α      in ANC's #69, #60, #58, ...

........................................................................
.............................. CYCLE    3 ..............................
........................................................................

 iter      E             dE          RMSdq      gap      omega  full diag
   1    -42.6492684 -0.426493E+02  0.109E+00    2.07       0.0  T
   2    -42.6531556 -0.388719E-02  0.625E-01    1.92       1.0  T
   3    -42.6540369 -0.881280E-03  0.374E-01    2.08       1.0  T
   4    -42.6545133 -0.476451E-03  0.132E-01    1.95       1.0  T
   5    -42.6550326 -0.519297E-03  0.219E-02    2.02       1.0  T
   6    -42.6550416 -0.900541E-05  0.127E-02    2.01       1.6  T
   7    -42.6550428 -0.113925E-05  0.513E-03    2.01       3.9  T
   8    -42.6550433 -0.520685E-06  0.141E-03    2.01      14.2  T
   9    -42.6550433 -0.175994E-07  0.587E-04    2.01      34.1  T
  10    -42.6550433 -0.153115E-08  0.327E-04    2.01      61.1  T
     SCC iter.                  ...        0 min,  0.014 sec
     gradient                   ...        0 min,  0.011 sec
 * total energy  :   -40.6259585 Eh     change       -0.2221601E+01 Eh
   gradient norm :     2.2008824 Eh/α   predicted    -0.2196719E+01 (  -1.12%)
   displ. norm   :     0.6663592 α      lambda       -0.1445218E+01
   maximum displ.:     0.5272433 α      in ANC's #69, #48, #60, ...

........................................................................
.............................. CYCLE    4 ..............................
........................................................................

 iter      E             dE          RMSdq      gap      omega  full diag
   1    -42.5612729 -0.425613E+02  0.981E-01    1.64       0.0  T
   2    -42.5649522 -0.367929E-02  0.585E-01    1.42       1.0  T
   3    -42.5678494 -0.289716E-02  0.348E-01    1.60       1.0  T
   4    -42.5675565  0.292904E-03  0.191E-01    1.45       1.0  T
   5    -42.5687453 -0.118880E-02  0.335E-02    1.56       1.0  T
   6    -42.5687850 -0.397229E-04  0.159E-02    1.53       1.3  T
   7    -42.5687882 -0.321761E-05  0.572E-03    1.54       3.5  T
   8    -42.5687885 -0.241583E-06  0.212E-03    1.54       9.4  T
   9    -42.5687885 -0.753410E-07  0.872E-04    1.54      22.9  T
  10    -42.5687885  0.346745E-09  0.556E-04    1.54      36.0  T
     SCC iter.                  ...        0 min,  0.014 sec
     gradient                   ...        0 min,  0.011 sec
 * total energy  :   -41.6817468 Eh     change       -0.1055788E+01 Eh
   gradient norm :     1.0062055 Eh/α   predicted    -0.1043475E+01 (  -1.17%)
   displ. norm   :     0.4944901 α      lambda       -0.4741922E+00
   maximum displ.:     0.3569786 α      in ANC's #69, #2, #48, ...

........................................................................
.............................. CYCLE    5 ..............................
........................................................................

 iter      E             dE          RMSdq      gap      omega  full diag
   1    -42.5241609 -0.425242E+02  0.618E-01    1.33       0.0  T
   2    -42.5262541 -0.209327E-02  0.403E-01    1.17       1.0  T
   3    -42.5280580 -0.180389E-02  0.229E-01    1.29       1.0  T
   4    -42.5274862  0.571819E-03  0.171E-01    1.18       1.0  T
   5    -42.5284170 -0.930798E-03  0.544E-02    1.29       1.0  T
   6    -42.5285455 -0.128478E-03  0.116E-02    1.25       1.7  T
   7    -42.5285459 -0.440365E-06  0.678E-03    1.25       2.9  T
   8    -42.5285467 -0.732302E-06  0.263E-03    1.25       7.6  T
   9    -42.5285468 -0.117771E-06  0.831E-04    1.25      24.1  T
  10    -42.5285468 -0.595273E-08  0.471E-04    1.25      42.5  T
     SCC iter.                  ...        0 min,  0.014 sec
     gradient                   ...        0 min,  0.011 sec
 * total energy  :   -41.9738788 Eh     change       -0.2921319E+00 Eh
   gradient norm :     0.2505973 Eh/α   predicted    -0.2950787E+00 (   1.01%)
   displ. norm   :     0.2457380 α      lambda       -0.4937020E-01
   maximum displ.:     0.1599154 α      in ANC's #2, #69, #1, ...

........................................................................
.............................. CYCLE    6 ..............................
........................................................................

 iter      E             dE          RMSdq      gap      omega  full diag
   1    -42.5342165 -0.425342E+02  0.432E-01    1.33       0.0  T
   2    -42.5317530  0.246342E-02  0.485E-01    0.97       1.0  T
   3    -42.5389210 -0.716797E-02  0.162E-01    1.24       1.0  T
   4    -42.5392632 -0.342213E-03  0.105E-01    1.14       1.0  T
   5    -42.5393341 -0.708893E-04  0.640E-02    1.20       1.0  T
   6    -42.5394768 -0.142679E-03  0.987E-03    1.18       2.0  T
   7    -42.5394778 -0.978148E-06  0.430E-03    1.18       4.6  T
   8    -42.5394778 -0.575302E-07  0.241E-03    1.19       8.3  T
   9    -42.5394780 -0.122276E-06  0.871E-04    1.19      23.0  T
  10    -42.5394780 -0.183913E-07  0.294E-04    1.19      68.0  T
     SCC iter.                  ...        0 min,  0.014 sec
     gradient                   ...        0 min,  0.011 sec
 * total energy  :   -42.0040212 Eh     change       -0.3014240E-01 Eh
   gradient norm :     0.1307688 Eh/α   predicted    -0.2617594E-01 ( -13.16%)
   displ. norm   :     0.1614955 α      lambda       -0.1403056E-01
   maximum displ.:     0.0844953 α      in ANC's #1, #2, #51, ...

........................................................................
.............................. CYCLE    7 ..............................
........................................................................

 iter      E             dE          RMSdq      gap      omega  full diag
   1    -42.5447034 -0.425447E+02  0.235E-01    1.01       0.0  T
   2    -42.5430622  0.164121E-02  0.291E-01    1.23       1.0  T
   3    -42.5459029 -0.284069E-02  0.982E-02    1.06       1.0  T
   4    -42.5458075  0.953763E-04  0.754E-02    1.12       1.0  T
   5    -42.5459715 -0.163957E-03  0.188E-02    1.08       1.1  T
   6    -42.5459815 -0.100548E-04  0.563E-03    1.09       3.6  T
   7    -42.5459814  0.106004E-06  0.377E-03    1.09       5.3  T
   8    -42.5459818 -0.346763E-06  0.858E-04    1.09      23.3  T
   9    -42.5459818 -0.152295E-07  0.335E-04    1.09      59.7  T
     SCC iter.                  ...        0 min,  0.013 sec
     gradient                   ...        0 min,  0.011 sec
 * total energy  :   -42.0154974 Eh     change       -0.1147621E-01 Eh
   gradient norm :     0.1255738 Eh/α   predicted    -0.7198312E-02 ( -37.28%)
   displ. norm   :     0.3800911 α      lambda       -0.3038664E-01
   maximum displ.:     0.1798411 α      in ANC's #1, #51, #2, ...

........................................................................
.............................. CYCLE    8 ..............................
........................................................................

 iter      E             dE          RMSdq      gap      omega  full diag
   1    -42.5759646 -0.425760E+02  0.597E-01    0.96       0.0  T
   2    -42.5755919  0.372749E-03  0.476E-01    1.06       1.0  T
   3    -42.5803441 -0.475222E-02  0.243E-01    0.97       1.0  T
   4    -42.5804176 -0.734785E-04  0.125E-01    1.06       1.0  T
   5    -42.5807317 -0.314116E-03  0.573E-02    0.97       1.0  T
   6    -42.5808826 -0.150913E-03  0.130E-02    1.01       1.5  T
   7    -42.5808850 -0.246364E-05  0.698E-03    1.01       2.9  T
   8    -42.5808856 -0.546994E-06  0.275E-03    1.00       7.3  T
   9    -42.5808857 -0.107163E-06  0.729E-04    1.00      27.4  T
  10    -42.5808857 -0.336659E-08  0.443E-04    1.00      45.1  T
     SCC iter.                  ...        0 min,  0.014 sec
     gradient                   ...        0 min,  0.011 sec
 * total energy  :   -42.0360564 Eh     change       -0.2055898E-01 Eh
   gradient norm :     0.1267490 Eh/α   predicted    -0.1739067E-01 ( -15.41%)
   displ. norm   :     0.2478858 α      lambda       -0.1568411E-01
   maximum displ.:     0.0613912 α      in ANC's #51, #58, #12, ...

........................................................................
.............................. CYCLE    9 ..............................
........................................................................

 iter      E             dE          RMSdq      gap      omega  full diag
   1    -42.5773049 -0.425773E+02  0.505E-01    0.70       0.0  T
   2    -42.5678604  0.944446E-02  0.680E-01    1.25       1.0  T
   3    -42.5847801 -0.169196E-01  0.175E-01    0.86       1.0  T
   4    -42.5845450  0.235113E-03  0.149E-01    0.96       1.0  T
   5    -42.5850055 -0.460508E-03  0.373E-02    0.88       1.0  T
   6    -42.5850419 -0.364614E-04  0.707E-03    0.89       2.8  T
   7    -42.5850427 -0.746692E-06  0.426E-03    0.90       4.7  T
   8    -42.5850427 -0.174583E-07  0.248E-03    0.90       8.1  T
   9    -42.5850428 -0.141160E-06  0.847E-04    0.90      23.6  T
  10    -42.5850428 -0.163421E-07  0.462E-04    0.90      43.2  T
     SCC iter.                  ...        0 min,  0.014 sec
     gradient                   ...        0 min,  0.011 sec
 * total energy  :   -42.0458448 Eh     change       -0.9788413E-02 Eh
   gradient norm :     0.0996592 Eh/α   predicted    -0.8324274E-02 ( -14.96%)
   displ. norm   :     0.4996378 α      lambda       -0.1221653E-01
   maximum displ.:     0.4510620 α      in ANC's #1, #12, #34, ...

........................................................................
.............................. CYCLE   10 ..............................
........................................................................

 iter      E             dE          RMSdq      gap      omega  full diag
   1    -42.5968142 -0.425968E+02  0.410E-01    0.86       0.0  T
   2    -42.5967983  0.159606E-04  0.238E-01    0.90       1.0  T
   3    -42.5956303  0.116796E-02  0.204E-01    0.81       1.0  T
   4    -42.5969349 -0.130461E-02  0.445E-02    0.91       1.0  T
   5    -42.5969942 -0.592549E-04  0.178E-02    0.88       1.1  T
   6    -42.5970054 -0.112077E-04  0.549E-03    0.89       3.6  T
   7    -42.5970056 -0.207220E-06  0.307E-03    0.88       6.5  T
   8    -42.5970058 -0.169265E-06  0.702E-04    0.88      28.5  T
   9    -42.5970058 -0.535390E-08  0.334E-04    0.88      59.9  T
     SCC iter.                  ...        0 min,  0.013 sec
     gradient                   ...        0 min,  0.011 sec
 * total energy  :   -42.0548120 Eh     change       -0.8967208E-02 Eh
   gradient norm :     0.1017158 Eh/α   predicted    -0.7633703E-02 ( -14.87%)
   displ. norm   :     0.3067315 α      lambda       -0.1273818E-01
   maximum displ.:     0.1806666 α      in ANC's #1, #12, #69, ...

........................................................................
.............................. CYCLE   11 ..............................
........................................................................

 iter      E             dE          RMSdq      gap      omega  full diag
   1    -42.5828258 -0.425828E+02  0.267E-01    0.83       0.0  T
   2    -42.5825074  0.318372E-03  0.226E-01    0.92       1.0  T
   3    -42.5827999 -0.292495E-03  0.141E-01    0.81       1.0  T
   4    -42.5829612 -0.161344E-03  0.818E-02    0.91       1.0  T
   5    -42.5832448 -0.283557E-03  0.202E-02    0.85       1.0  T
   6    -42.5832564 -0.116629E-04  0.606E-03    0.86       3.3  T
   7    -42.5832565 -0.848474E-07  0.348E-03    0.86       5.7  T
   8    -42.5832567 -0.176882E-06  0.921E-04    0.86      21.7  T
   9    -42.5832567 -0.970624E-08  0.489E-04    0.86      40.9  T
     SCC iter.                  ...        0 min,  0.013 sec
     gradient                   ...        0 min,  0.011 sec
 * total energy  :   -42.0626190 Eh     change       -0.7807025E-02 Eh
   gradient norm :     0.0765199 Eh/α   predicted    -0.6968477E-02 ( -10.74%)
   displ. norm   :     0.2491280 α      lambda       -0.4934072E-02
   maximum displ.:     0.2209994 α      in ANC's #1, #12, #6, ...

........................................................................
.............................. CYCLE   12 ..............................
........................................................................

 iter      E             dE          RMSdq      gap      omega  full diag
   1    -42.5751573 -0.425752E+02  0.156E-01    0.83       0.0  T
   2    -42.5752056 -0.482840E-04  0.108E-01    0.83       1.0  T
   3    -42.5751973  0.833517E-05  0.621E-02    0.82       1.0  T
   4    -42.5751999 -0.265136E-05  0.409E-02    0.85       1.0  T
   5    -42.5752557 -0.558110E-04  0.130E-02    0.82       1.5  T
   6    -42.5752617 -0.592878E-05  0.322E-03    0.83       6.2  T
   7    -42.5752616  0.302423E-07  0.215E-03    0.83       9.3  T
   8    -42.5752617 -0.959996E-07  0.615E-04    0.83      32.5  T
   9    -42.5752617 -0.966314E-08  0.245E-04    0.83      81.5  T
     SCC iter.                  ...        0 min,  0.013 sec
     gradient                   ...        0 min,  0.011 sec
 * total energy  :   -42.0656485 Eh     change       -0.3029463E-02 Eh
   gradient norm :     0.0569414 Eh/α   predicted    -0.2620169E-02 ( -13.51%)
   displ. norm   :     0.1485675 α      lambda       -0.5294631E-02
   maximum displ.:     0.0769630 α      in ANC's #1, #30, #6, ...

........................................................................
.............................. CYCLE   13 ..............................
........................................................................

 iter      E             dE          RMSdq      gap      omega  full diag
   1    -42.5779366 -0.425779E+02  0.283E-01    0.99       0.0  T
   2    -42.5732649  0.467169E-02  0.451E-01    0.65       1.0  T
   3    -42.5805776 -0.731270E-02  0.859E-02    0.88       1.0  T
   4    -42.5805340  0.435965E-04  0.747E-02    0.83       1.0  T
   5    -42.5806239 -0.898762E-04  0.310E-02    0.86       1.0  T
   6    -42.5806513 -0.274137E-04  0.753E-03    0.86       2.7  T
   7    -42.5806525 -0.120791E-05  0.288E-03    0.86       6.9  T
   8    -42.5806526 -0.816735E-07  0.126E-03    0.86      15.9  T
   9    -42.5806526 -0.171549E-07  0.525E-04    0.86      38.1  T
  10    -42.5806526 -0.532999E-08  0.207E-04    0.86      96.8  T
     SCC iter.                  ...        0 min,  0.014 sec
     gradient                   ...        0 min,  0.011 sec
 * total energy  :   -42.0688328 Eh     change       -0.3184318E-02 Eh
   gradient norm :     0.0597022 Eh/α   predicted    -0.2705806E-02 ( -15.03%)
   displ. norm   :     0.1307432 α      lambda       -0.3406777E-02
   maximum displ.:     0.0511667 α      in ANC's #2, #6, #30, ...

........................................................................
.............................. CYCLE   14 ..............................
........................................................................

 iter      E             dE          RMSdq      gap      omega  full diag
   1    -42.5868792 -0.425869E+02  0.120E-01    0.87       0.0  T
   2    -42.5867634  0.115762E-03  0.101E-01    0.81       1.0  T
   3    -42.5868275 -0.640748E-04  0.667E-02    0.88       1.0  T
   4    -42.5869171 -0.896350E-04  0.306E-02    0.83       1.0  T
   5    -42.5869495 -0.323189E-04  0.426E-03    0.85       4.7  T
   6    -42.5869498 -0.333816E-06  0.187E-03    0.85      10.7  T
   7    -42.5869498 -0.228581E-07  0.119E-03    0.85      16.7  T
   8    -42.5869498 -0.176401E-07  0.314E-04    0.85      63.7  T
   9    -42.5869498 -0.111372E-08  0.139E-04    0.85     144.2  T
     SCC iter.                  ...        0 min,  0.013 sec
     gradient                   ...        0 min,  0.011 sec
 * total energy  :   -42.0717296 Eh     change       -0.2896777E-02 Eh
   gradient norm :     0.0573661 Eh/α   predicted    -0.1732525E-02 ( -40.19%)
   displ. norm   :     0.3405511 α      lambda       -0.8129180E-02
   maximum displ.:     0.1592213 α      in ANC's #2, #6, #30, ...

........................................................................
.............................. CYCLE   15 ..............................
........................................................................

 iter      E             dE          RMSdq      gap      omega  full diag
   1    -42.6031126 -0.426031E+02  0.342E-01    0.79       0.0  T
   2    -42.6031386 -0.259667E-04  0.194E-01    0.85       1.0  T
   3    -42.6028754  0.263143E-03  0.193E-01    0.74       1.0  T
   4    -42.6032922 -0.416748E-03  0.107E-01    0.87       1.0  T
   5    -42.6037163 -0.424121E-03  0.207E-02    0.80       1.0  T
   6    -42.6037275 -0.111987E-04  0.397E-03    0.81       5.0  T
   7    -42.6037276 -0.625777E-07  0.210E-03    0.81       9.5  T
   8    -42.6037276 -0.167417E-07  0.772E-04    0.81      25.9  T
   9    -42.6037276 -0.885101E-08  0.332E-04    0.81      60.3  T
     SCC iter.                  ...        0 min,  0.013 sec
     gradient                   ...        0 min,  0.011 sec
 * total energy  :   -42.0769597 Eh     change       -0.5230114E-02 Eh
   gradient norm :     0.0463658 Eh/α   predicted    -0.4535999E-02 ( -13.27%)
   displ. norm   :     0.1600418 α      lambda       -0.2178503E-02
   maximum displ.:     0.0682029 α      in ANC's #2, #6, #1, ...

........................................................................
.............................. CYCLE   16 ..............................
........................................................................

 iter      E             dE          RMSdq      gap      omega  full diag
   1    -42.6100579 -0.426101E+02  0.184E-01    0.78       0.0  T
   2    -42.6099580  0.998728E-04  0.124E-01    0.84       1.0  T
   3    -42.6100622 -0.104201E-03  0.107E-01    0.76       1.0  T
   4    -42.6102659 -0.203663E-03  0.534E-02    0.82       1.0  T
   5    -42.6103469 -0.809931E-04  0.139E-02    0.79       1.4  T
   6    -42.6103524 -0.552030E-05  0.264E-03    0.80       7.6  T
   7    -42.6103525 -0.112534E-06  0.156E-03    0.80      12.8  T
   8    -42.6103525 -0.313286E-07  0.777E-04    0.80      25.7  T
   9    -42.6103525 -0.651529E-08  0.209E-04    0.80      95.9  T
     SCC iter.                  ...        0 min,  0.013 sec
     gradient                   ...        0 min,  0.011 sec
 * total energy  :   -42.0785979 Eh     change       -0.1638222E-02 Eh
   gradient norm :     0.0442361 Eh/α   predicted    -0.1117164E-02 ( -31.81%)
   displ. norm   :     0.1745338 α      lambda       -0.2747813E-02
   maximum displ.:     0.0660244 α      in ANC's #6, #2, #5, ...

........................................................................
.............................. CYCLE   17 ..............................
........................................................................

 iter      E             dE          RMSdq      gap      omega  full diag
   1    -42.6176772 -0.426177E+02  0.213E-01    0.78       0.0  T
   2    -42.6176515  0.257285E-04  0.135E-01    0.84       1.0  T
   3    -42.6176942 -0.427302E-04  0.116E-01    0.76       1.0  T
   4    -42.6178632 -0.169005E-03  0.642E-02    0.83       1.0  T
   5    -42.6179999 -0.136709E-03  0.181E-02    0.79       1.1  T
   6    -42.6180107 -0.107373E-04  0.348E-03    0.80       5.7  T
   7    -42.6180109 -0.202239E-06  0.195E-03    0.80      10.3  T
   8    -42.6180109 -0.521665E-07  0.975E-04    0.80      20.5  T
   9    -42.6180109 -0.109429E-07  0.245E-04    0.80      81.6  T
     SCC iter.                  ...        0 min,  0.013 sec
     gradient                   ...        0 min,  0.011 sec
 * total energy  :   -42.0806871 Eh     change       -0.2089194E-02 Eh
   gradient norm :     0.0393755 Eh/α   predicted    -0.1416032E-02 ( -32.22%)
   displ. norm   :     0.1943019 α      lambda       -0.3243277E-02
   maximum displ.:     0.0782200 α      in ANC's #6, #40, #5, ...

........................................................................
.............................. CYCLE   18 ..............................
........................................................................

 iter      E             dE          RMSdq      gap      omega  full diag
   1    -42.6252627 -0.426253E+02  0.237E-01    0.81       0.0  T
   2    -42.6253645 -0.101833E-03  0.137E-01    0.83       1.0  T
   3    -42.6253800 -0.155291E-04  0.108E-01    0.80       1.0  T
   4    -42.6254567 -0.766343E-04  0.541E-02    0.84       1.0  T
   5    -42.6255474 -0.906964E-04  0.220E-02    0.81       1.0  T
   6    -42.6255664 -0.189899E-04  0.453E-03    0.82       4.4  T
   7    -42.6255668 -0.410709E-06  0.225E-03    0.82       8.9  T
   8    -42.6255669 -0.728507E-07  0.106E-03    0.82      18.9  T
   9    -42.6255669 -0.166862E-07  0.254E-04    0.82      78.7  T
  10    -42.6255669 -0.330580E-09  0.180E-04    0.82     111.4  T
     SCC iter.                  ...        0 min,  0.014 sec
     gradient                   ...        0 min,  0.011 sec
 * total energy  :   -42.0830094 Eh     change       -0.2322311E-02 Eh
   gradient norm :     0.0386943 Eh/α   predicted    -0.1682893E-02 ( -27.53%)
   displ. norm   :     0.1773100 α      lambda       -0.2533241E-02
   maximum displ.:     0.0789405 α      in ANC's #1, #6, #40, ...

........................................................................
.............................. CYCLE   19 ..............................
........................................................................

 iter      E             dE          RMSdq      gap      omega  full diag
   1    -42.6293611 -0.426294E+02  0.189E-01    0.84       0.0  T
   2    -42.6294078 -0.466287E-04  0.111E-01    0.83       1.0  T
   3    -42.6293675  0.403000E-04  0.879E-02    0.86       1.0  T
   4    -42.6294315 -0.640631E-04  0.484E-02    0.81       1.0  T
   5    -42.6295113 -0.798172E-04  0.157E-02    0.84       1.3  T
   6    -42.6295205 -0.914994E-05  0.390E-03    0.84       5.1  T
   7    -42.6295207 -0.217036E-06  0.187E-03    0.84      10.7  T
   8    -42.6295208 -0.392010E-07  0.707E-04    0.84      28.3  T
   9    -42.6295208 -0.856981E-08  0.180E-04    0.84     111.2  T
     SCC iter.                  ...        0 min,  0.013 sec
     gradient                   ...        0 min,  0.011 sec
 * total energy  :   -42.0849050 Eh     change       -0.1895600E-02 Eh
   gradient norm :     0.0451354 Eh/α   predicted    -0.1306645E-02 ( -31.07%)
   displ. norm   :     0.2132202 α      lambda       -0.3015433E-02
   maximum displ.:     0.1091567 α      in ANC's #1, #6, #40, ...

........................................................................
.............................. CYCLE   20 ..............................
........................................................................

 iter      E             dE          RMSdq      gap      omega  full diag
   1    -42.6296844 -0.426297E+02  0.209E-01    0.84       0.0  T
   2    -42.6297267 -0.422806E-04  0.126E-01    0.83       1.0  T
   3    -42.6296627  0.639838E-04  0.987E-02    0.87       1.0  T
   4    -42.6297476 -0.849595E-04  0.603E-02    0.82       1.0  T
   5    -42.6298793 -0.131666E-03  0.140E-02    0.85       1.4  T
   6    -42.6298852 -0.589396E-05  0.397E-03    0.84       5.0  T
   7    -42.6298853 -0.126383E-06  0.224E-03    0.84       8.9  T
   8    -42.6298854 -0.759910E-07  0.798E-04    0.84      25.1  T
   9    -42.6298854 -0.103840E-07  0.245E-04    0.84      81.6  T
     SCC iter.                  ...        0 min,  0.013 sec
     gradient                   ...        0 min,  0.011 sec
 * total energy  :   -42.0872375 Eh     change       -0.2332505E-02 Eh
   gradient norm :     0.0531435 Eh/α   predicted    -0.1576318E-02 ( -32.42%)
   displ. norm   :     0.2774953 α      lambda       -0.4442729E-02
   maximum displ.:     0.1008321 α      in ANC's #6, #1, #40, ...
 * RMSD in coord.:     0.7444641 α      energy gain  -0.6928993E+01 Eh

generating ANC from model Hessian ...
Using Lindh-Hessian (1995)
 Shifting diagonal of input Hessian by    1.1976675535381056E-002
 Lowest  eigenvalues of input Hessian
    0.010000    0.010151    0.000000    0.000000    0.000000    0.000000
    0.000000    0.000000    0.013807    0.014705    0.017707    0.018743
    0.021002    0.022263    0.024029    0.025726    0.030252    0.031136
 Highest eigenvalues
    2.070838    2.248531    2.310754    2.353813    2.501797    2.636818


........................................................................
.............................. CYCLE   21 ..............................
........................................................................

 iter      E             dE          RMSdq      gap      omega  full diag
   1    -42.6258295 -0.426258E+02  0.292E-01    0.82       0.0  T
   2    -42.6259993 -0.169802E-03  0.175E-01    0.82       1.0  T
   3    -42.6260067 -0.733897E-05  0.121E-01    0.84       1.0  T
   4    -42.6260283 -0.216472E-04  0.833E-02    0.79       1.0  T
   5    -42.6262859 -0.257578E-03  0.192E-02    0.83       1.0  T
   6    -42.6262964 -0.105396E-04  0.454E-03    0.82       4.4  T
   7    -42.6262964  0.532133E-07  0.332E-03    0.82       6.0  T
   8    -42.6262966 -0.186217E-06  0.125E-03    0.82      16.0  T
   9    -42.6262966 -0.328113E-07  0.382E-04    0.82      52.4  T
  10    -42.6262966 -0.263869E-08  0.178E-04    0.82     112.5  T
     SCC iter.                  ...        0 min,  0.014 sec
     gradient                   ...        0 min,  0.011 sec
 * total energy  :   -42.0907119 Eh     change       -0.3474380E-02 Eh
   gradient norm :     0.0623563 Eh/α   predicted     0.0000000E+00 (-100.00%)
   displ. norm   :     0.3794677 α      lambda       -0.1339017E-01
   maximum displ.:     0.2288861 α      in ANC's #19, #17, #8, ...

........................................................................
.............................. CYCLE   22 ..............................
........................................................................

 iter      E             dE          RMSdq      gap      omega  full diag
   1    -42.6277961 -0.426278E+02  0.411E-01    0.66       0.0  T
   2    -42.6280993 -0.303128E-03  0.252E-01    0.67       1.0  T
   3    -42.6284599 -0.360602E-03  0.224E-01    0.67       1.0  T
   4    -42.6292444 -0.784504E-03  0.793E-02    0.68       1.0  T
   5    -42.6292888 -0.444340E-04  0.339E-02    0.66       1.0  T
   6    -42.6293326 -0.437403E-04  0.877E-03    0.67       2.3  T
   7    -42.6293342 -0.165223E-05  0.365E-03    0.67       5.5  T
   8    -42.6293343 -0.715781E-07  0.191E-03    0.67      10.5  T
   9    -42.6293343 -0.445786E-07  0.467E-04    0.67      42.8  T
  10    -42.6293343 -0.137133E-08  0.269E-04    0.67      74.3  T
     SCC iter.                  ...        0 min,  0.014 sec
     gradient                   ...        0 min,  0.011 sec
 * total energy  :   -42.1023868 Eh     change       -0.1167489E-01 Eh
   gradient norm :     0.0487722 Eh/α   predicted    -0.7660540E-02 ( -34.38%)
   displ. norm   :     0.7641837 α      lambda       -0.2190327E-01
   maximum displ.:     0.4592733 α      in ANC's #19, #17, #8, ...

........................................................................
.............................. CYCLE   23 ..............................
........................................................................

 iter      E             dE          RMSdq      gap      omega  full diag
   1    -42.6180204 -0.426180E+02  0.894E-01    0.40       0.0  T
   2    -42.6224983 -0.447793E-02  0.507E-01    0.39       1.0  T
   3    -42.6225912 -0.928902E-04  0.451E-01    0.44       1.0  T
   4    -42.6258024 -0.321115E-02  0.193E-01    0.40       1.0  T
   5    -42.6262866 -0.484190E-03  0.397E-02    0.41       1.0  T
   6    -42.6263287 -0.421122E-04  0.123E-02    0.41       1.6  T
   7    -42.6263295 -0.797915E-06  0.752E-03    0.41       2.7  T
   8    -42.6263298 -0.294887E-06  0.239E-03    0.41       8.4  T
   9    -42.6263298 -0.619051E-07  0.149E-03    0.41      13.4  T
  10    -42.6263298 -0.207204E-07  0.869E-04    0.41      23.0  T
  11    -42.6263299 -0.125682E-07  0.520E-04    0.41      38.5  T
     SCC iter.                  ...        0 min,  0.015 sec
     gradient                   ...        0 min,  0.011 sec
 * total energy  :   -42.1170865 Eh     change       -0.1469972E-01 Eh
   gradient norm :     0.0960790 Eh/α   predicted    -0.1734722E-01 (  18.01%)
   displ. norm   :     0.3799962 α      lambda       -0.1034470E-01
   maximum displ.:     0.1497716 α      in ANC's #17, #6, #19, ...

........................................................................
.............................. CYCLE   24 ..............................
........................................................................

 iter      E             dE          RMSdq      gap      omega  full diag
   1    -42.6271453 -0.426271E+02  0.431E-01    0.30       0.0  T
   2    -42.6283507 -0.120536E-02  0.248E-01    0.39       1.0  T
   3    -42.6285338 -0.183132E-03  0.225E-01    0.29       1.0  T
   4    -42.6293472 -0.813357E-03  0.893E-02    0.34       1.0  T
   5    -42.6294024 -0.552093E-04  0.322E-02    0.32       1.0  T
   6    -42.6294239 -0.215571E-04  0.137E-02    0.32       1.5  T
   7    -42.6294299 -0.597493E-05  0.567E-03    0.32       3.5  T
   8    -42.6294303 -0.377549E-06  0.252E-03    0.32       7.9  T
   9    -42.6294304 -0.741846E-07  0.639E-04    0.32      31.3  T
  10    -42.6294304 -0.150211E-08  0.375E-04    0.32      53.3  T
     SCC iter.                  ...        0 min,  0.014 sec
     gradient                   ...        0 min,  0.011 sec
 * total energy  :   -42.1242796 Eh     change       -0.7193117E-02 Eh
   gradient norm :     0.0835039 Eh/α   predicted    -0.5919220E-02 ( -17.71%)
   displ. norm   :     0.3237416 α      lambda       -0.1244983E-01
   maximum displ.:     0.1200390 α      in ANC's #19, #8, #3, ...

........................................................................
.............................. CYCLE   25 ..............................
........................................................................

 iter      E             dE          RMSdq      gap      omega  full diag
   1    -42.6346052 -0.426346E+02  0.357E-01    0.29       0.0  T
   2    -42.6329829  0.162226E-02  0.359E-01    0.41       1.0  T
   3    -42.6357212 -0.273826E-02  0.189E-01    0.30       1.0  T
   4    -42.6361195 -0.398328E-03  0.600E-02    0.31       1.0  T
   5    -42.6361626 -0.431323E-04  0.191E-02    0.31       1.0  T
   6    -42.6361711 -0.847421E-05  0.757E-03    0.31       2.6  T
   7    -42.6361728 -0.170047E-05  0.321E-03    0.31       6.2  T
   8    -42.6361729 -0.122747E-06  0.170E-03    0.31      11.8  T
   9    -42.6361730 -0.517271E-07  0.354E-04    0.31      56.5  T
  10    -42.6361730 -0.138904E-08  0.200E-04    0.31     100.1  T
     SCC iter.                  ...        0 min,  0.014 sec
     gradient                   ...        0 min,  0.011 sec
 * total energy  :   -42.1304879 Eh     change       -0.6208325E-02 Eh
   gradient norm :     0.0472163 Eh/α   predicted    -0.6877339E-02 (  10.78%)
   displ. norm   :     0.2115606 α      lambda       -0.4096151E-02
   maximum displ.:     0.1199141 α      in ANC's #8, #23, #13, ...

........................................................................
.............................. CYCLE   26 ..............................
........................................................................

 iter      E             dE          RMSdq      gap      omega  full diag
   1    -42.6452539 -0.426453E+02  0.217E-01    0.31       0.0  T
   2    -42.6450700  0.183888E-03  0.162E-01    0.27       1.0  T
   3    -42.6449769  0.931600E-04  0.142E-01    0.33       1.0  T
   4    -42.6454150 -0.438122E-03  0.359E-02    0.29       1.0  T
   5    -42.6454375 -0.224934E-04  0.190E-02    0.29       1.1  T
   6    -42.6454487 -0.112276E-04  0.420E-03    0.29       4.8  T
   7    -42.6454489 -0.201887E-06  0.251E-03    0.29       8.0  T
   8    -42.6454490 -0.455732E-07  0.101E-03    0.29      19.8  T
   9    -42.6454490 -0.144054E-07  0.313E-04    0.29      64.0  T
  10    -42.6454490  0.134854E-09  0.159E-04    0.29     125.9  T
     SCC iter.                  ...        0 min,  0.014 sec
     gradient                   ...        0 min,  0.011 sec
 * total energy  :   -42.1330955 Eh     change       -0.2607542E-02 Eh
   gradient norm :     0.0231084 Eh/α   predicted    -0.2139862E-02 ( -17.94%)
   displ. norm   :     0.2431608 α      lambda       -0.2473003E-02
   maximum displ.:     0.1267718 α      in ANC's #8, #6, #23, ...

........................................................................
.............................. CYCLE   27 ..............................
........................................................................

 iter      E             dE          RMSdq      gap      omega  full diag
   1    -42.6490782 -0.426491E+02  0.216E-01    0.32       0.0  T
   2    -42.6489802  0.979537E-04  0.147E-01    0.28       1.0  T
   3    -42.6488883  0.919526E-04  0.141E-01    0.34       1.0  T
   4    -42.6492815 -0.393225E-03  0.391E-02    0.29       1.0  T
   5    -42.6493052 -0.237004E-04  0.200E-02    0.30       1.0  T
   6    -42.6493173 -0.121100E-04  0.358E-03    0.30       5.6  T
   7    -42.6493176 -0.286591E-06  0.177E-03    0.30      11.3  T
   8    -42.6493176 -0.213270E-07  0.615E-04    0.30      32.5  T
   9    -42.6493176 -0.538692E-08  0.167E-04    0.30     120.1  T
     SCC iter.                  ...        0 min,  0.013 sec
     gradient                   ...        0 min,  0.011 sec
 * total energy  :   -42.1342418 Eh     change       -0.1146321E-02 Eh
   gradient norm :     0.0230648 Eh/α   predicted    -0.1309609E-02 (  14.24%)
   displ. norm   :     0.2025006 α      lambda       -0.1137338E-02
   maximum displ.:     0.1534456 α      in ANC's #8, #6, #10, ...

........................................................................
.............................. CYCLE   28 ..............................
........................................................................

 iter      E             dE          RMSdq      gap      omega  full diag
   1    -42.6479288 -0.426479E+02  0.164E-01    0.27       0.0  T
   2    -42.6480065 -0.776328E-04  0.916E-02    0.28       1.0  T
   3    -42.6480012  0.528853E-05  0.491E-02    0.27       1.0  T
   4    -42.6480044 -0.317227E-05  0.210E-02    0.28       1.0  T
   5    -42.6480195 -0.151767E-04  0.870E-03    0.27       2.3  T
   6    -42.6480220 -0.248493E-05  0.190E-03    0.28      10.5  T
   7    -42.6480220 -0.337201E-07  0.115E-03    0.28      17.3  T
   8    -42.6480221 -0.128898E-07  0.718E-04    0.28      27.9  T
   9    -42.6480221 -0.953986E-08  0.164E-04    0.28     122.2  T
     SCC iter.                  ...        0 min,  0.013 sec
     gradient                   ...        0 min,  0.011 sec
 * total energy  :   -42.1350191 Eh     change       -0.7772703E-03 Eh
   gradient norm :     0.0188960 Eh/α   predicted    -0.5919942E-03 ( -23.84%)
   displ. norm   :     0.2187983 α      lambda       -0.1080458E-02
   maximum displ.:     0.1438665 α      in ANC's #8, #6, #10, ...

........................................................................
.............................. CYCLE   29 ..............................
........................................................................

 iter      E             dE          RMSdq      gap      omega  full diag
   1    -42.6497495 -0.426497E+02  0.144E-01    0.27       0.0  T
   2    -42.6497547 -0.524983E-05  0.834E-02    0.26       1.0  T
   3    -42.6496515  0.103244E-03  0.680E-02    0.29       1.0  T
   4    -42.6497559 -0.104461E-03  0.172E-02    0.26       1.2  T
   5    -42.6497628 -0.681951E-05  0.267E-03    0.27       7.5  T
   6    -42.6497629 -0.103624E-06  0.160E-03    0.27      12.5  T
   7    -42.6497629 -0.166025E-07  0.799E-04    0.27      25.0  T
   8    -42.6497629 -0.131439E-07  0.366E-04    0.27      54.6  T
     SCC iter.                  ...        0 min,  0.011 sec
     gradient                   ...        0 min,  0.011 sec
 * total energy  :   -42.1356059 Eh     change       -0.5868045E-03 Eh
   gradient norm :     0.0128089 Eh/α   predicted    -0.5660924E-03 (  -3.53%)
   displ. norm   :     0.2559885 α      lambda       -0.9093581E-03
   maximum displ.:     0.2040761 α      in ANC's #8, #9, #10, ...

........................................................................
.............................. CYCLE   30 ..............................
........................................................................

 iter      E             dE          RMSdq      gap      omega  full diag
   1    -42.6448335 -0.426448E+02  0.220E-01    0.26       0.0  T
   2    -42.6447849  0.485920E-04  0.131E-01    0.24       1.0  T
   3    -42.6443293  0.455647E-03  0.166E-01    0.30       1.0  T
   4    -42.6448742 -0.544912E-03  0.208E-02    0.25       1.0  T
   5    -42.6448887 -0.145581E-04  0.439E-03    0.26       4.6  T
   6    -42.6448891 -0.385198E-06  0.253E-03    0.25       7.9  T
   7    -42.6448892 -0.110944E-06  0.145E-03    0.25      13.8  T
   8    -42.6448893 -0.356792E-07  0.451E-04    0.25      44.3  T
   9    -42.6448893 -0.319884E-08  0.182E-04    0.25     109.9  T
     SCC iter.                  ...        0 min,  0.013 sec
     gradient                   ...        0 min,  0.011 sec
 * total energy  :   -42.1359363 Eh     change       -0.3304762E-03 Eh
   gradient norm :     0.0176213 Eh/α   predicted    -0.4844792E-03 (  46.60%)
   displ. norm   :     0.0771688 α      lambda       -0.5503027E-03
   maximum displ.:     0.0420915 α      in ANC's #3, #2, #8, ...

........................................................................
.............................. CYCLE   31 ..............................
........................................................................

 iter      E             dE          RMSdq      gap      omega  full diag
   1    -42.6492493 -0.426492E+02  0.531E-02    0.25       0.0  T
   2    -42.6492482  0.106531E-05  0.297E-02    0.26       1.0  T
   3    -42.6492224  0.257952E-04  0.363E-02    0.25       1.0  T
   4    -42.6492521 -0.297018E-04  0.461E-03    0.26       4.3  T
   5    -42.6492525 -0.331176E-06  0.316E-03    0.25       6.3  T
   6    -42.6492526 -0.142595E-06  0.162E-03    0.25      12.3  T
   7    -42.6492527 -0.482352E-07  0.677E-04    0.25      29.6  T
   8    -42.6492527 -0.684243E-08  0.127E-04    0.25     157.4  T
     SCC iter.                  ...        0 min,  0.011 sec
     gradient                   ...        0 min,  0.011 sec
 * total energy  :   -42.1362652 Eh     change       -0.3288741E-03 Eh
   gradient norm :     0.0099230 Eh/α   predicted    -0.2767952E-03 ( -15.84%)
   displ. norm   :     0.1485766 α      lambda       -0.4620378E-03
   maximum displ.:     0.0609857 α      in ANC's #3, #8, #2, ...

........................................................................
.............................. CYCLE   32 ..............................
........................................................................

 iter      E             dE          RMSdq      gap      omega  full diag
   1    -42.6516694 -0.426517E+02  0.111E-01    0.26       0.0  T
   2    -42.6516381  0.313227E-04  0.766E-02    0.23       1.0  T
   3    -42.6516054  0.326835E-04  0.748E-02    0.28       1.0  T
   4    -42.6517116 -0.106207E-03  0.170E-02    0.25       1.2  T
   5    -42.6517168 -0.519672E-05  0.659E-03    0.25       3.0  T
   6    -42.6517183 -0.147291E-05  0.185E-03    0.25      10.8  T
   7    -42.6517184 -0.975392E-07  0.711E-04    0.25      28.1  T
   8    -42.6517184 -0.299329E-08  0.280E-04    0.25      71.4  T
     SCC iter.                  ...        0 min,  0.012 sec
     gradient                   ...        0 min,  0.011 sec
 * total energy  :   -42.1365656 Eh     change       -0.3003426E-03 Eh
   gradient norm :     0.0064076 Eh/α   predicted    -0.2361209E-03 ( -21.38%)
   displ. norm   :     0.2574921 α      lambda       -0.4431758E-03
   maximum displ.:     0.1230326 α      in ANC's #2, #8, #3, ...

........................................................................
.............................. CYCLE   33 ..............................
........................................................................

 iter      E             dE          RMSdq      gap      omega  full diag
   1    -42.6525800 -0.426526E+02  0.166E-01    0.25       0.0  T
   2    -42.6525356  0.444542E-04  0.107E-01    0.22       1.0  T
   3    -42.6522305  0.305087E-03  0.122E-01    0.29       1.0  T
   4    -42.6526100 -0.379458E-03  0.113E-02    0.23       1.8  T
   5    -42.6526125 -0.256995E-05  0.515E-03    0.23       3.9  T
   6    -42.6526135 -0.956847E-06  0.135E-03    0.24      14.8  T
   7    -42.6526135 -0.152581E-07  0.721E-04    0.24      27.7  T
   8    -42.6526135 -0.628107E-08  0.193E-04    0.24     103.6  T
     SCC iter.                  ...        0 min,  0.011 sec
     gradient                   ...        0 min,  0.011 sec
 * total energy  :   -42.1368960 Eh     change       -0.3304271E-03 Eh
   gradient norm :     0.0104698 Eh/α   predicted    -0.2362829E-03 ( -28.49%)
   displ. norm   :     0.3518560 α      lambda       -0.4578869E-03
   maximum displ.:     0.2127455 α      in ANC's #2, #3, #1, ...

........................................................................
.............................. CYCLE   34 ..............................
........................................................................

 iter      E             dE          RMSdq      gap      omega  full diag
   1    -42.6516115 -0.426516E+02  0.185E-01    0.22       0.0  T
   2    -42.6515978  0.137394E-04  0.113E-01    0.19       1.0  T
   3    -42.6512271  0.370708E-03  0.116E-01    0.27       1.0  T
   4    -42.6516236 -0.396563E-03  0.799E-03    0.21       2.5  T
   5    -42.6516251 -0.146782E-05  0.348E-03    0.21       5.8  T
   6    -42.6516254 -0.271483E-06  0.186E-03    0.21      10.7  T
   7    -42.6516254 -0.554522E-07  0.822E-04    0.21      24.3  T
   8    -42.6516254 -0.104801E-07  0.181E-04    0.21     110.8  T
     SCC iter.                  ...        0 min,  0.011 sec
     gradient                   ...        0 min,  0.011 sec
 * total energy  :   -42.1371929 Eh     change       -0.2969609E-03 Eh
   gradient norm :     0.0129835 Eh/α   predicted    -0.2572896E-03 ( -13.36%)
   displ. norm   :     0.1933822 α      lambda       -0.3184055E-03
   maximum displ.:     0.1358138 α      in ANC's #2, #3, #6, ...

........................................................................
.............................. CYCLE   35 ..............................
........................................................................

 iter      E             dE          RMSdq      gap      omega  full diag
   1    -42.6520195 -0.426520E+02  0.576E-02    0.19       0.0  T
   2    -42.6520176  0.184540E-05  0.340E-02    0.20       1.0  T
   3    -42.6519919  0.257277E-04  0.397E-02    0.18       1.0  T
   4    -42.6520228 -0.309037E-04  0.621E-03    0.19       3.2  T
   5    -42.6520239 -0.109044E-05  0.269E-03    0.19       7.4  T
   6    -42.6520240 -0.135561E-06  0.998E-04    0.19      20.0  T
   7    -42.6520240 -0.723536E-08  0.811E-04    0.19      24.7  T
     SCC iter.                  ...        0 min,  0.010 sec
     gradient                   ...        0 min,  0.011 sec
 * total energy  :   -42.1374207 Eh     change       -0.2277866E-03 Eh
   gradient norm :     0.0085186 Eh/α   predicted    -0.1651583E-03 ( -27.49%)
   displ. norm   :     0.2308385 α      lambda       -0.3107861E-03
   maximum displ.:     0.1607676 α      in ANC's #2, #3, #4, ...

........................................................................
.............................. CYCLE   36 ..............................
........................................................................

 iter      E             dE          RMSdq      gap      omega  full diag
   1    -42.6504879 -0.426505E+02  0.782E-02    0.17       0.0  T
   2    -42.6504867  0.118998E-05  0.492E-02    0.17       1.0  T
   3    -42.6504206  0.660925E-04  0.488E-02    0.18       1.0  T
   4    -42.6504941 -0.734962E-04  0.717E-03    0.17       2.8  T
   5    -42.6504949 -0.759952E-06  0.309E-03    0.18       6.5  T
   6    -42.6504952 -0.272855E-06  0.895E-04    0.17      22.4  T
   7    -42.6504952 -0.589968E-08  0.480E-04    0.17      41.7  T
     SCC iter.                  ...        0 min,  0.010 sec
     gradient                   ...        0 min,  0.011 sec
 * total energy  :   -42.1376189 Eh     change       -0.1981981E-03 Eh
   gradient norm :     0.0056195 Eh/α   predicted    -0.1636758E-03 ( -17.42%)
   displ. norm   :     0.1568763 α      lambda       -0.1706489E-03
   maximum displ.:     0.1134330 α      in ANC's #2, #3, #4, ...

........................................................................
.............................. CYCLE   37 ..............................
........................................................................

 iter      E             dE          RMSdq      gap      omega  full diag
   1    -42.6506493 -0.426506E+02  0.491E-02    0.16       0.0  T
   2    -42.6506434  0.592113E-05  0.337E-02    0.17       1.0  T
   3    -42.6506280  0.153955E-04  0.340E-02    0.15       1.0  T
   4    -42.6506538 -0.258445E-04  0.357E-03    0.16       5.6  T
   5    -42.6506540 -0.233236E-06  0.220E-03    0.16       9.1  T
   6    -42.6506542 -0.154594E-06  0.666E-04    0.16      30.0  T
   7    -42.6506542 -0.965464E-09  0.408E-04    0.16      49.0  T
     SCC iter.                  ...        0 min,  0.010 sec
     gradient                   ...        0 min,  0.011 sec
 * total energy  :   -42.1377333 Eh     change       -0.1143604E-03 Eh
   gradient norm :     0.0058979 Eh/α   predicted    -0.8742717E-04 ( -23.55%)
   displ. norm   :     0.1499673 α      lambda       -0.1168271E-03
   maximum displ.:     0.1111073 α      in ANC's #2, #3, #4, ...

........................................................................
.............................. CYCLE   38 ..............................
........................................................................

 iter      E             dE          RMSdq      gap      omega  full diag
   1    -42.6503796 -0.426504E+02  0.367E-02    0.15       0.0  T
   2    -42.6503789  0.677767E-06  0.232E-02    0.16       1.0  T
   3    -42.6503639  0.149898E-04  0.245E-02    0.14       1.0  T
   4    -42.6503807 -0.168051E-04  0.363E-03    0.15       5.5  T
   5    -42.6503810 -0.290413E-06  0.114E-03    0.15      17.6  T
   6    -42.6503810 -0.231260E-07  0.750E-04    0.15      26.7  T
   7    -42.6503810 -0.869262E-08  0.405E-04    0.15      49.4  T
     SCC iter.                  ...        0 min,  0.010 sec
     gradient                   ...        0 min,  0.011 sec
 * total energy  :   -42.1378195 Eh     change       -0.8621347E-04 Eh
   gradient norm :     0.0053441 Eh/α   predicted    -0.5973288E-04 ( -30.72%)
   displ. norm   :     0.1474650 α      lambda       -0.1214815E-03
   maximum displ.:     0.0986928 α      in ANC's #2, #3, #6, ...

........................................................................
.............................. CYCLE   39 ..............................
........................................................................

 iter      E             dE          RMSdq      gap      omega  full diag
   1    -42.6505164 -0.426505E+02  0.565E-02    0.14       0.0  T
   2    -42.6505163  0.140933E-06  0.350E-02    0.15       1.0  T
   3    -42.6504873  0.289409E-04  0.333E-02    0.12       1.0  T
   4    -42.6505189 -0.315959E-04  0.734E-03    0.14       2.7  T
   5    -42.6505202 -0.124275E-05  0.153E-03    0.14      13.1  T
   6    -42.6505202 -0.532491E-07  0.822E-04    0.14      24.3  T
   7    -42.6505202 -0.126147E-07  0.428E-04    0.14      46.7  T
     SCC iter.                  ...        0 min,  0.010 sec
     gradient                   ...        0 min,  0.011 sec
 * total energy  :   -42.1378903 Eh     change       -0.7080318E-04 Eh
   gradient norm :     0.0045552 Eh/α   predicted    -0.6206637E-04 ( -12.34%)
   displ. norm   :     0.1338284 α      lambda       -0.6850057E-04
   maximum displ.:     0.1082159 α      in ANC's #2, #3, #6, ...

........................................................................
.............................. CYCLE   40 ..............................
........................................................................

 iter      E             dE          RMSdq      gap      omega  full diag
   1    -42.6505338 -0.426505E+02  0.309E-02    0.13       0.0  T
   2    -42.6505338 -0.406059E-07  0.184E-02    0.14       1.1  T
   3    -42.6505278  0.599987E-05  0.130E-02    0.13       1.5  T
   4    -42.6505341 -0.631367E-05  0.226E-03    0.14       8.9  T
   5    -42.6505343 -0.133180E-06  0.762E-04    0.13      26.3  T
   6    -42.6505343 -0.711570E-08  0.403E-04    0.13      49.6  T
     SCC iter.                  ...        0 min,  0.009 sec
     gradient                   ...        0 min,  0.011 sec
 * total energy  :   -42.1379279 Eh     change       -0.3762284E-04 Eh
   gradient norm :     0.0065706 Eh/α   predicted    -0.3486469E-04 (  -7.33%)
   displ. norm   :     0.0479604 α      lambda       -0.4213671E-04
   maximum displ.:     0.0297485 α      in ANC's #2, #6, #10, ...

........................................................................
.............................. CYCLE   41 ..............................
........................................................................

 iter      E             dE          RMSdq      gap      omega  full diag
   1    -42.6506823 -0.426507E+02  0.193E-02    0.13       0.0  T
   2    -42.6506823  0.101750E-07  0.120E-02    0.13       1.7  T
   3    -42.6506789  0.340192E-05  0.122E-02    0.14       1.6  T
   4    -42.6506826 -0.372767E-05  0.193E-03    0.13      10.3  T
   5    -42.6506827 -0.761065E-07  0.438E-04    0.13      45.6  T
   6    -42.6506827 -0.297329E-08  0.249E-04    0.13      80.2  T
     SCC iter.                  ...        0 min,  0.009 sec
     gradient                   ...        0 min,  0.011 sec
 * total energy  :   -42.1379585 Eh     change       -0.3058373E-04 Eh
   gradient norm :     0.0035156 Eh/α   predicted    -0.2111818E-04 ( -30.95%)
   displ. norm   :     0.0871937 α      lambda       -0.4445439E-04
   maximum displ.:     0.0749158 α      in ANC's #2, #9, #7, ...

   *** GEOMETRY OPTIMIZATION CONVERGED AFTER 41 ITERATIONS ***

------------------------------------------------------------------------
 total energy gain   :        -6.9797143 Eh    -4379.8368 kcal/mol
 total RMSD          :         0.8908705 a0        0.4714 Å
 total power (kW/mol):      -446.9570072 (step)********** (real)
------------------------------------------------------------------------

 ANCopt (total)                0 d,  0 h,  0 min,  1.198 sec
 optimizer setup                ...        0 min,  0.000 sec (  0.032%)
 model hessian                  ...        0 min,  0.013 sec (  1.090%)
 ANC generation                 ...        0 min,  0.002 sec (  0.159%)
 coordinate transformation      ...        0 min,  0.000 sec (  0.027%)
 single point calculation       ...        0 min,  1.172 sec ( 97.855%)
 optimization log               ...        0 min,  0.003 sec (  0.280%)
 hessian update                 ...        0 min,  0.000 sec (  0.042%)
 rational function              ...        0 min,  0.005 sec (  0.376%)

================
 final structure:
================
25
 xtb: 6.6.1 (8d0f1dd)
C            3.36803149075582        1.04870935466558        0.06361759134348
N            2.37906929800146        0.00699767523001        0.03014348012836
C            2.60462911420539       -1.31035405799194       -0.00358610453046
N            1.42118717509730       -1.97795777610406       -0.01194502977836
C            0.41727502514175       -1.05595612395800        0.01618795830226
C            1.01360959409973        0.20188506109525        0.04534683315458
C            0.25538881977957        1.40984838354075        0.06038275063824
O            0.66751779640277        2.55213085901235        0.09968171391266
N           -1.16406110956802        1.14355580873730        0.01583931569414
C           -1.98529187965105        2.20610470431351       -0.00988018182401
C           -1.77049202547626       -0.14008603892072       -0.00069166926743
O           -2.96770539336317       -0.26541541572554       -0.02220236377575
N           -0.92066336800569       -1.24505091680945        0.00930408401599
C           -1.49942871280374       -2.57440244964600        0.00280883003311
H            3.84431447696638        1.09160960512462        1.04509374458124
H            4.13356891474691        0.86779620552811       -0.69013779011048
H            2.87922629923691        2.00380837016026       -0.12745687535729
H            3.56914608610056       -1.77348448124531       -0.02413562761459
H           -1.53511534001724        3.18204637728462        0.00882774638508
H           -4.82385545831991        2.07623928216661       -0.35724113426080
H           -3.06618598592345        2.05725285081119       -0.08371222614084
H           -1.19516256396750       -3.12496936140462        0.89352764003862
H           -1.19998382592849       -3.11656586460463       -0.89503597957497
H           -2.58291794660508       -2.46434528087302        0.00559480759489
H            1.31833103319488       -2.98115822878674       -0.03915989568787

 Bond Distances (Angstroems)
 ---------------------------
C1-N2=1.4368         C1-H15=1.0918        C1-H16=1.0895        C1-H17=1.0898        N2-C1=1.4368         N2-C3=1.3369         
N2-C6=1.3794         C3-N2=1.3369         C3-N4=1.3588         C3-H18=1.0701        N4-C3=1.3588         N4-C5=1.3633         
N4-H25=1.0088        C5-N4=1.3633         C5-C6=1.3923         C5-N13=1.3513        C6-N2=1.3794         C6-C5=1.3923         
C6-C7=1.4263         C7-C6=1.4263         C7-O8=1.2150         C7-N9=1.4449         O8-C7=1.2150         N9-C7=1.4449         
N9-C10=1.3432        N9-C11=1.4198        C10-N9=1.3432        C10-H19=1.0749       C10-H21=1.0936       C11-N9=1.4198        
C11-O12=1.2039       C11-N13=1.3940       O12-C11=1.2039       N13-C5=1.3513        N13-C11=1.3940       N13-C14=1.4499       
C14-N13=1.4499       C14-H22=1.0905       C14-H23=1.0907       C14-H24=1.0891       H15-C1=1.0918        H16-C1=1.0895        
H17-C1=1.0898        H18-C3=1.0701        H19-C10=1.0749       H21-C10=1.0936       H22-C14=1.0905       H23-C14=1.0907       
H24-C14=1.0891       H25-N4=1.0088        
 C  H  Rav=1.0867 sigma=0.0077  Rmin=1.0701  Rmax=1.0936     9
 C  C  Rav=1.4093 sigma=0.0170  Rmin=1.3923  Rmax=1.4263     2
 N  H  Rav=1.0088 sigma=0.0000  Rmin=1.0088  Rmax=1.0088     1
 N  C  Rav=1.3889 sigma=0.0404  Rmin=1.3369  Rmax=1.4499    11
 O  C  Rav=1.2095 sigma=0.0055  Rmin=1.2039  Rmax=1.2150     2

 selected bond angles (degree)
 --------------------
H15-C1-N2=110.47               H16-C1-N2=110.31               H16-C1-H15=108.78              H17-C1-N2=108.82               
H17-C1-H15=108.59              H17-C1-H16=109.84              C3-N2-C1=126.79                C6-N2-C1=125.36                
C6-N2-C3=107.85                N4-C3-N2=109.71                H18-C3-N2=125.38               H18-C3-N4=124.91               
C5-N4-C3=108.00                H25-N4-C3=125.28               H25-N4-C5=126.73               C6-C5-N4=107.22                
N13-C5-N4=129.37               N13-C5-C6=123.41               C5-C6-N2=107.22                C7-C6-N2=130.24                
C7-C6-C5=122.52                O8-C7-C6=128.04                N9-C7-C6=111.46                N9-C7-O8=120.50                
C10-N9-C7=117.09               C11-N9-C7=125.92               C11-N9-C10=116.99              H19-C10-N9=117.51              
H21-C10-N9=119.86              H21-C10-H19=122.59             

 selected dihedral angles (degree)
 ---------------------------------
C3-N2-C1-H15=287.18           C3-N2-C1-H16= 47.49           C3-N2-C1-H17=168.05           C6-N2-C1-H15=106.27           
C6-N2-C1-H16=226.57           C6-N2-C1-H17=347.14           N4-C3-N2-C1=179.27            N4-C3-N2-C6=  0.05            
H18-C3-N2-C1=359.09           H18-C3-N2-C6=179.87           C5-N4-C3-N2=  0.05            C5-N4-C3-H18=180.23           
H25-N4-C3-N2=179.77           H25-N4-C3-H18=359.94          C6-C5-N4-C3=359.86            C6-C5-N4-H25=180.16           
N13-C5-N4-C3=179.41           N13-C5-N4-H25=359.70          C5-C6-N2-C1=180.63            C5-C6-N2-C3=359.86            
C7-C6-N2-C1=  1.83            C7-C6-N2-C3=181.06            N2-C6-C5-N4=  0.17            N2-C6-C5-N13=180.59           
C7-C6-C5-N4=179.09            C7-C6-C5-N13=359.51           O8-C7-C6-N2=357.80            O8-C7-C6-C5=179.16            
N9-C7-C6-N2=177.55            N9-C7-C6-C5=358.90            C10-N9-C7-C6=181.67           C10-N9-C7-O8=  1.44           
C11-N9-C7-C6=  1.80           C11-N9-C7-O8=181.57           H19-C10-N9-C7=359.73          H19-C10-N9-C11=179.61         
H21-C10-N9-C7=177.59          H21-C10-N9-C11=357.47         
           -------------------------------------------------
          |                Final Singlepoint                |
           -------------------------------------------------

          ...................................................
          :                      SETUP                      :
          :.................................................:
          :  # basis functions                  67          :
          :  # atomic orbitals                  67          :
          :  # shells                           39          :
          :  # electrons                        74          :
          :  max. iterations                   250          :
          :  Hamiltonian                  GFN2-xTB          :
          :  restarted?                      false          :
          :  GBSA solvation                  false          :
          :  PC potential                    false          :
          :  electronic temp.         7500.0000000     K    :
          :  accuracy                    1.0000000          :
          :  -> integral cutoff          0.2500000E+02      :
          :  -> integral neglect         0.1000000E-07      :
          :  -> SCF convergence          0.1000000E-05 Eh   :
          :  -> wf. convergence          0.1000000E-03 e    :
          :  Broyden damping             0.4000000          :
          ...................................................

 iter      E             dE          RMSdq      gap      omega  full diag
   1    -42.6506827 -0.426507E+02  0.154E-04    0.13       0.0  T
   2    -42.6506827  0.665153E-09  0.179E-04    0.13     111.9  T
   3    -42.6506827 -0.119186E-08  0.531E-05    0.13     376.8  T

   *** convergence criteria satisfied after 3 iterations ***

         #    Occupation            Energy/Eh            Energy/eV
      -------------------------------------------------------------
         1        2.0000           -0.9055471             -24.6412
       ...           ...                  ...                  ...
        31        1.9944           -0.6172186             -16.7954
        32        1.9939           -0.6153014             -16.7432
        33        1.9930           -0.6121297             -16.6569
        34        1.9796           -0.5864755             -15.9588
        35        1.9563           -0.5680533             -15.4575
        36        1.9323           -0.5573572             -15.1665
        37        0.9752           -0.4765803             -12.9684 (HOMO)
        38        0.8734           -0.4717120             -12.8359 (LUMO)
        39        0.2222           -0.4283614             -11.6563
        40        0.0695           -0.3988105             -10.8522
        41        0.0231           -0.3720792             -10.1248
        42        0.0007           -0.2876917              -7.8285
       ...           ...                  ...                  ...
        67                          0.5386681              14.6579
      -------------------------------------------------------------
                  HL-Gap            0.0048683 Eh            0.1325 eV
             Fermi-level           -0.4777574 Eh          -13.0004 eV

 SCC (total)                   0 d,  0 h,  0 min,  0.021 sec
 SCC setup                      ...        0 min,  0.000 sec (  0.860%)
 Dispersion                     ...        0 min,  0.000 sec (  0.867%)
 classical contributions        ...        0 min,  0.000 sec (  0.320%)
 integral evaluation            ...        0 min,  0.004 sec ( 20.825%)
 iterations                     ...        0 min,  0.005 sec ( 22.257%)
 molecular gradient             ...        0 min,  0.011 sec ( 54.275%)
 printout                       ...        0 min,  0.000 sec (  0.538%)

         :::::::::::::::::::::::::::::::::::::::::::::::::::::
         ::                     SUMMARY                     ::
         :::::::::::::::::::::::::::::::::::::::::::::::::::::
         :: total energy             -42.137958514275 Eh    ::
         :: gradient norm              0.003516112711 Eh/a0 ::
         :: HOMO-LUMO gap              0.132473850472 eV    ::
         ::.................................................::
         :: SCC energy               -42.650682676458 Eh    ::
         :: -> isotropic ES            0.135511535826 Eh    ::
         :: -> anisotropic ES         -0.007272659517 Eh    ::
         :: -> anisotropic XC          0.012037635748 Eh    ::
         :: -> dispersion             -0.022864230610 Eh    ::
         :: repulsion energy           0.512643326053 Eh    ::
         :: add. restraining           0.000000096203 Eh    ::
         :: total charge               1.000000000000 e     ::
         :::::::::::::::::::::::::::::::::::::::::::::::::::::

           -------------------------------------------------
          |                Property Printout                |
           -------------------------------------------------

    * Orbital Energies and Occupations

         #    Occupation            Energy/Eh            Energy/eV
      -------------------------------------------------------------
         1        2.0000           -0.9055471             -24.6412
       ...           ...                  ...                  ...
        25        1.9994           -0.6724514             -18.2983
        26        1.9993           -0.6682090             -18.1829
        27        1.9992           -0.6630063             -18.0413
        28        1.9970           -0.6319662             -17.1967
        29        1.9966           -0.6292395             -17.1225
        30        1.9965           -0.6281856             -17.0938
        31        1.9944           -0.6172186             -16.7954
        32        1.9939           -0.6153014             -16.7432
        33        1.9930           -0.6121297             -16.6569
        34        1.9796           -0.5864755             -15.9588
        35        1.9563           -0.5680533             -15.4575
        36        1.9323           -0.5573572             -15.1665
        37        0.9752           -0.4765803             -12.9684 (HOMO)
        38        0.8734           -0.4717120             -12.8359 (LUMO)
        39        0.2222           -0.4283614             -11.6563
        40        0.0695           -0.3988105             -10.8522
        41        0.0231           -0.3720792             -10.1248
        42        0.0007           -0.2876917              -7.8285
        43        0.0000           -0.2082012              -5.6654
        44        0.0000           -0.1948321              -5.3017
        45        0.0000           -0.1505288              -4.0961
        46        0.0000           -0.1443955              -3.9292
        47                         -0.0761614              -2.0725
        48                         -0.0517785              -1.4090
       ...                                ...                  ...
        67                          0.5386681              14.6579
      -------------------------------------------------------------
                  HL-Gap            0.0048683 Eh            0.1325 eV
             Fermi-level           -0.4777574 Eh          -13.0004 eV

     #   Z          covCN         q      C6AA      α(0)
     1   6 C        3.691    -0.091    22.432     6.778
     2   7 N        2.823     0.070    20.028     6.647
     3   6 C        3.038     0.041    27.048     8.530
     4   7 N        2.784    -0.062    22.443     7.036
     5   6 C        3.033     0.102    25.702     8.316
     6   6 C        3.098    -0.019    28.364     8.728
     7   6 C        2.773     0.250    22.808     7.822
     8   8 O        0.857    -0.356    20.831     6.119
     9   7 N        2.740    -0.030    21.826     6.939
    10   6 C        2.811    -0.022    28.540     8.753
    11   6 C        2.736     0.305    21.814     7.647
    12   8 O        0.859    -0.351    20.727     6.104
    13   7 N        2.736    -0.046    22.138     6.988
    14   6 C        3.698    -0.073    22.066     6.719
    15   1 H        0.924     0.108     1.714     2.047
    16   1 H        0.925     0.104     1.751     2.069
    17   1 H        0.925     0.132     1.517     1.926
    18   1 H        0.927     0.120     1.610     1.984
    19   1 H        0.926     0.134     1.503     1.917
    20   1 H        0.000     0.022     6.738     4.746
    21   1 H        0.924     0.134     1.503     1.917
    22   1 H        0.924     0.087     1.909     2.161
    23   1 H        0.924     0.087     1.913     2.163
    24   1 H        0.925     0.128     1.547     1.945
    25   1 H        0.860     0.226     0.982     1.552

 Mol. C6AA /au·bohr⁶  :       6801.914081
 Mol. C8AA /au·bohr⁸  :     155384.806106
 Mol. α(0) /au        :        127.552342


Wiberg/Mayer (AO) data.
largest (>0.10) Wiberg bond orders for each atom

 ---------------------------------------------------------------------------
     #   Z sym  total        # sym  WBO       # sym  WBO       # sym  WBO
 ---------------------------------------------------------------------------
     1   6 C    3.911 --     2 N    0.990    16 H    0.963    17 H    0.959
                            15 H    0.953
     2   7 N    3.600 --     3 C    1.342     6 C    1.142     1 C    0.990
     3   6 C    3.734 --     2 N    1.342     4 N    1.247    18 H    0.955
     4   7 N    3.542 --     3 C    1.247     5 C    1.190    25 H    0.921
     5   6 C    3.857 --     6 C    1.310     4 N    1.190    13 N    1.183
     6   6 C    3.868 --     5 C    1.310     2 N    1.142     7 C    1.128
     7   6 C    3.835 --     8 O    1.650     6 C    1.128     9 N    0.973
     8   8 O    1.906 --     7 C    1.650
     9   7 N    3.581 --    10 C    1.332    11 C    1.024     7 C    0.973
    10   6 C    3.262 --     9 N    1.332    19 H    0.953    21 H    0.902
    11   6 C    3.878 --    12 O    1.681    13 N    1.083     9 N    1.024
    12   8 O    1.972 --    11 C    1.681    13 N    0.124
    13   7 N    3.526 --     5 C    1.183    11 C    1.083    14 C    0.974
                            12 O    0.124
    14   6 C    3.915 --    13 N    0.974    22 H    0.968    23 H    0.967
                            24 H    0.962
    15   1 H    0.978 --     1 C    0.953
    16   1 H    0.982 --     1 C    0.963
    17   1 H    0.980 --     1 C    0.959
    18   1 H    0.984 --     3 C    0.955
    19   1 H    0.976 --    10 C    0.953
    20   1 H    0.062
    21   1 H    0.978 --    10 C    0.902
    22   1 H    0.985 --    14 C    0.968
    23   1 H    0.985 --    14 C    0.967
    24   1 H    0.981 --    14 C    0.962
    25   1 H    0.948 --     4 N    0.921
 ---------------------------------------------------------------------------

Topologies differ in total number of bonds
Writing topology from bond orders to xtbtopo.mol

molecular dipole:
                 x           y           z       tot (Debye)
 q only:        2.169      -1.900      -0.039
   full:        2.373      -2.342      -0.044       8.476
molecular quadrupole (traceless):
                xx          xy          yy          xz          yz          zz
 q only:       13.857      -8.400       5.407       0.429      -0.320     -19.264
  q+dip:       11.767     -11.964       5.567       0.471      -0.354     -17.334
   full:       10.540     -11.464       4.657       0.370      -0.418     -15.197

           -------------------------------------------------
          |                Geometry Summary                 |
           -------------------------------------------------

      molecular mass/u    :      195.1988581
   center of mass at/Å    :        0.0893950       0.0142696       0.0188161
  moments of inertia/u·Å² :        0.4760396E+03   0.7335054E+03   0.1202695E+04
rotational constants/cm⁻¹ :        0.3541225E-01   0.2298229E-01   0.1401655E-01

 * 24 selected distances

     #   Z          #   Z                                           value/Å
     1   6 C        2   7 N                                       1.4367778
     2   7 N        3   6 C                                       1.3369483
     3   6 C        4   7 N                                       1.3587861
     4   7 N        5   6 C                                       1.3633483
     2   7 N        6   6 C                                       1.3793813
     5   6 C        6   6 C                                       1.3923469
     6   6 C        7   6 C                                       1.4262891
     7   6 C        8   8 O                                       1.2149915
     9   7 N       10   6 C                                       1.3431649
     9   7 N       11   6 C                                       1.4197776
    11   6 C       12   8 O                                       1.2039478
     5   6 C       13   7 N                                       1.3512526
    11   6 C       13   7 N                                       1.3940073
    13   7 N       14   6 C                                       1.4498922 (max)
     1   6 C       15   1 H                                       1.0917791
     1   6 C       16   1 H                                       1.0894607
     1   6 C       17   1 H                                       1.0897955
     3   6 C       18   1 H                                       1.0701426
    10   6 C       19   1 H                                       1.0749285
    10   6 C       21   1 H                                       1.0935906
    14   6 C       22   1 H                                       1.0904504
    14   6 C       23   1 H                                       1.0907493
    14   6 C       24   1 H                                       1.0890682
     4   7 N       25   1 H                                       1.0088267 (min)

 * 5 distinct bonds (by element types)

   Z      Z             #   av. dist./Å        max./Å        min./Å
   1 H    6 C           9     1.0866628     1.0935906     1.0701426
   6 C    6 C           2     1.4093180     1.4262891     1.3923469
   1 H    7 N           1     1.0088267     1.0088267     1.0088267
   6 C    7 N          10     1.3833336     1.4498922     1.3369483
   6 C    8 O           2     1.2094696     1.2149915     1.2039478


optimized geometry written to: xtbopt.xyz


           -------------------------------------------------
          | TOTAL ENERGY              -42.137958514275 Eh   |
          | GRADIENT NORM               0.003516112711 Eh/α |
          | HOMO-LUMO GAP               0.132473850472 eV   |
           -------------------------------------------------

------------------------------------------------------------------------
 * finished run on 2024/06/05 at 19:58:50.322     
------------------------------------------------------------------------
 total:
 * wall-time:     0 d,  0 h,  0 min,  1.290 sec
 *  cpu-time:     0 d,  0 h,  0 min,  1.268 sec
 * ratio c/w:     0.983 speedup
 SCF:
 * wall-time:     0 d,  0 h,  0 min,  0.036 sec
 *  cpu-time:     0 d,  0 h,  0 min,  0.036 sec
 * ratio c/w:     1.000 speedup
 ANC optimizer:
 * wall-time:     0 d,  0 h,  0 min,  1.223 sec
 *  cpu-time:     0 d,  0 h,  0 min,  1.220 sec
 * ratio c/w:     0.997 speedup

