25
 energy: -44.661315377098 gnorm: 3.106381073272 xtb: 6.6.1 (8d0f1dd)
C            3.21786164340000        1.13591514650000        0.01837059260000
N            2.27034809790000        0.05199982890000        0.00038279530000
C            2.54167221030000       -1.23971668410000       -0.00834188300000
N            1.39367826450000       -1.95088267900000       -0.00850347120000
C            0.35269634020000       -1.06748964300000        0.00059917290000
C            0.90759959010000        0.20069750900000        0.00663590170000
C            0.07590235260000        1.39864294500000       -0.00284827040000
O            0.48715076820000        2.53168346660000       -0.01725767220000
N           -1.27221500230000        1.06666939660000        0.00165480230000
C           -2.23229981500000        2.16656245330000       -0.00245172030000
C           -1.84872931540000       -0.19179276200000        0.00496135950000
O           -3.03273030250000       -0.36103538130000        0.00858583760000
N           -0.96599111670000       -1.30060631840000        0.00174701630000
C           -1.52030655580000       -2.64076660390000       -0.00239033190000
H            3.71480285180000        1.18589984860000        0.98803183970000
H            3.97079415090000        0.99383197990000       -0.75543416370000
H            2.68321036910000        2.07051068580000       -0.15067179540000
H            3.52469367910000       -1.66989040330000       -0.01523639120000
H           -1.67672429040000        3.10039111610000        0.00486339690000
H           -2.85755792270000        2.10547813320000       -0.89185337000000
H           -2.87119733260000        2.09858159720000        0.87661144540000
H           -1.20589108080000       -3.18768007210000        0.88663215920000
H           -1.21982032550000       -3.17678505510000       -0.90288069810000
H           -2.60531402170000       -2.54255916880000        0.00649952960000
H            1.32879827740000       -2.95942079410000       -0.01653446370000
25
 energy: -48.638296186509 gnorm: 4.892874798484 xtb: 6.6.1 (8d0f1dd)
C            3.21785187301094        1.13598310290947        0.01839828182135
N            2.27041632627653        0.05246560242531        0.00037025593137
C            2.54196615510613       -1.23996249279981       -0.00836860337542
N            1.39355824199605       -1.95104535038905       -0.00853427378846
C            0.35355431805142       -1.06743929090707        0.00058948692798
C            0.90741029932232        0.20091972014834        0.00663133200303
C            0.07572181021602        1.39860035885993       -0.00261279204626
O            0.48712454668047        2.53189941301228       -0.01720669672840
N           -1.27545099623816        1.06773337104552        0.00171488048591
C           -2.23265041053696        2.16645685828162       -0.00252671376029
C           -1.82621661298634       -0.20299227273124        0.00394890667831
O           -2.85278635713894       -0.66898459830571       -0.09372599785012
N           -0.96071244415752       -1.29905652238672        0.00287572226350
C           -1.52754429067685       -2.62803718032239        0.01262677062007
H            3.71479663420911        1.18593628586066        0.98805839729439
H            3.97077763637084        0.99390287496327       -0.75542468684517
H            2.68319422704374        2.07054381670649       -0.15063628659976
H            3.52471587075194       -1.66984864563151       -0.01527023649169
H           -1.67677135492688        3.10036731570012        0.00492761702608
H           -2.85763701745255        2.10541919957535       -0.89182249546009
H           -2.87127950072280        2.09847081747130        0.87664568333615
H           -1.20520871572808       -3.18888594522130        0.88593196845867
H           -1.41746194945211       -2.87303658001101       -0.81631691337880
H           -2.60575932214446       -2.54177454577985        0.00748786711811
H            1.32882254722615       -2.95939677087400       -0.01658985574043
25
 energy: -54.458297970535 gnorm: 6.818297269737 xtb: 6.6.1 (8d0f1dd)
C            3.21783810687557        1.13605381859005        0.01843144927626
N            2.27049204511078        0.05275999220184        0.00035739827750
C            2.54221602403220       -1.24009211102015       -0.00836977118411
N            1.39381356487268       -1.95116953260878       -0.00851804819114
C            0.35487066511936       -1.06795502055903        0.00076392688336
C            0.90722355684574        0.20119965785616        0.00660060272365
C            0.07578979452407        1.39841540832765       -0.00237572116885
O            0.48691476450580        2.53197007522166       -0.01719687688793
N           -1.27871964374923        1.06825028362847        0.00187897136449
C           -2.23319636336796        2.16628566182545       -0.00263550428614
C           -1.80167382467214       -0.21061808200471        0.00314338682211
O           -2.67610538784825       -0.98097619585899       -0.19963697362769
N           -0.95150034625195       -1.29720761658221        0.00539903865904
C           -1.53533534050006       -2.61313139881216        0.04040966028304
H            3.71477680763421        1.18599601491144        0.98809460124037
H            3.97076430222701        0.99397558968135       -0.75539692640929
H            2.68317484658062        2.07057999343770       -0.15061060387725
H            3.52475831125070       -1.66978200043338       -0.01525800262166
H           -1.67685338612070        3.10033467375628        0.00493125094629
H           -2.85771711247562        2.10539664042769       -0.89189591249502
H           -2.87137208841764        2.09844240942470        0.87666871540803
H           -1.20428561519025       -3.19026996773192        0.88554334449610
H           -1.61726269727649       -2.56988343422459       -0.74239040491094
H           -2.60703483444751       -2.54096508702060        0.00983501177842
H            1.32885536483908       -2.95937123083392       -0.01660099459863
25
 energy: -62.227582018844 gnorm: 8.777312991023 xtb: 6.6.1 (8d0f1dd)
C            3.21779240628982        1.13622379614195        0.01852634302630
N            2.27061047663761        0.05321099219842        0.00037408510326
C            2.54263608817781       -1.24021675584830       -0.00831474416593
N            1.39432706915271       -1.95134179035502       -0.00846899858128
C            0.35703548395695       -1.06855636689015        0.00123556571892
C            0.90697436571991        0.20168134042092        0.00655782978404
C            0.07631077928018        1.39796859049236       -0.00212890327384
O            0.48648690699647        2.53205651920228       -0.01723161344377
N           -1.28263228429646        1.06777168891893        0.00199425258925
C           -2.23381482345880        2.16611689381735       -0.00285704936208
C           -1.78336641756024       -0.21802218356191        0.00191636268777
O           -2.49812926159727       -1.28454416631959       -0.30941953762838
N           -0.93909006269279       -1.29493230728436        0.00999124317838
C           -1.53558593460784       -2.60788762761046        0.07690610745994
H            3.71469290276416        1.18618032161185        0.98820489005786
H            3.97073732735750        0.99415347195506       -0.75528653726175
H            2.68309860986976        2.07068319432387       -0.15055287351555
H            3.52485347945322       -1.66960145268475       -0.01513323808185
H           -1.67701906955984        3.10024497481589        0.00483505588037
H           -2.85784241928479        2.10530648465631       -0.89209401197066
H           -2.87154435286718        2.09838162118758        0.87658595274007
H           -1.20266218866050       -3.19225773967093        0.88551112125051
H           -1.82381459347986       -2.26325462783585       -0.67693608493695
H           -2.60859917126857       -2.54182872208992        0.01349709849492
H            1.32897619777804       -2.95929760799150       -0.01654069784955
25
 energy: -71.156845525839 gnorm: 5.576533639626 xtb: 6.6.1 (8d0f1dd)
C            3.21769011500993        1.13655897000984        0.01862379907395
N            2.27066989643654        0.05409957590623        0.00015379729758
C            2.54344298663744       -1.24040073711555       -0.00896095335229
N            1.39479672215983       -1.95164287348162       -0.00926087207797
C            0.36021041678883       -1.06863239122185        0.00139029740931
C            0.90679087955398        0.20229039601306        0.00647774806191
C            0.07670565298680        1.39730794938396       -0.00143295245015
O            0.48599877213786        2.53246956644344       -0.01642461234827
N           -1.28587737913845        1.06761778950031        0.00245625089294
C           -2.23440529377031        2.16579439232053       -0.00204665534838
C           -1.76920315881863       -0.22449518276503        0.00096515283408
O           -2.31803316315064       -1.57908708955402       -0.42669575333393
N           -0.92692957078361       -1.29328348606149        0.01545451469214
C           -1.53261895572555       -2.60873401974522        0.09402141826154
H            3.71466990499209        1.18623331724503        0.98827276451625
H            3.97055439893209        0.99478709139724       -0.75532423112511
H            2.68287647692760        2.07096814160601       -0.15011375139356
H            3.52501972661257       -1.66923028997634       -0.01596203126040
H           -1.67735271517663        3.10003484085032        0.00602361672218
H           -2.85820904299064        2.10537181576363       -0.89118939635365
H           -2.87171188658416        2.09787287664688        0.87762084106477
H           -1.20052942954309       -3.19467732694923        0.88529815902183
H           -2.03312440932532       -1.95821605247423       -0.58761112393290
H           -2.61027210571106       -2.54564349386750        0.01701073378104
H            1.32927267564252       -2.95912523827440       -0.01757514275293
25
 energy: -36.072069626611 gnorm: 510.435214871617 xtb: 6.6.1 (8d0f1dd)
C            3.21767252173719        1.13693051885204        0.01849241683150
N            2.27079129272302        0.05596644211438       -0.00086656295147
C            2.54547398796121       -1.24094474697024       -0.01142561579351
N            1.39559690864236       -1.95300886546361       -0.01198208475797
C            0.36743283828966       -1.06715283786493        0.00232388230476
C            0.90751410927894        0.20463160896483        0.00612452122754
C            0.07785042012243        1.39608538144603       -0.00032547065756
O            0.48574868725628        2.53378091748120       -0.01374540705413
N           -1.28511056860638        1.06815203812560        0.00275610716660
C           -2.23463348180099        2.16513801421898        0.00127167162758
C           -1.77246370166435       -0.21683464926383        0.00402956540488
O           -2.19966449943112       -1.78614106527439       -0.54561790405090
N           -0.89372653144044       -1.28999665690479        0.03009908352972
C           -1.51008550436608       -2.62595899808609        0.09282104032426
H            3.71501319270847        1.18557530194216        0.98798568872523
H            3.97011453382195        0.99597883111832       -0.75598749382990
H            2.68258351263483        2.07133010812784       -0.14901720604699
H            3.52522100735944       -1.66882663340826       -0.01919294722844
H           -1.67767170282016        3.09972661536068        0.01018631340365
H           -2.85893010001006        2.10624120535648       -0.88766815173931
H           -2.87152883065508        2.09676293319863        0.88139079600464
H           -1.19993528115570       -3.19663481945666        0.88923086610437
H           -2.20643066685569       -1.73440060935890       -0.49734155609333
H           -2.62000690454232       -2.55931882179411        0.01873381790305
H            1.32960627491259       -2.95884267086134       -0.02110375245429
