72
 energy: -99.383493944223 gnorm: 0.003138934194 xtb: 6.6.1 (8d0f1dd)
N           -2.46629122853757        2.73706236029970        2.34481221152837
C           -1.92236964483812        2.12963683352922        1.28068405022745
C           -2.94052621070200        1.89517181804702        0.21443064503965
C           -3.47532196508035        0.46734531026712        0.28540898463030
C           -4.62068221922436        0.10140104236904       -0.61496379134624
C           -5.12919010769826       -1.29028953598146       -0.40919535811608
O           -6.22649261110923       -1.73244519051975       -1.06374675963243
C           -6.95952395587776       -0.85884001790593       -1.88530458022175
C           -4.50098096391698       -2.19623634323204        0.43711781139426
O           -5.05162883202942       -3.43808512339710        0.47748160450618
C           -4.49930721583370       -4.39684145846377        1.34708925061034
C           -3.39027949054190       -1.79004491839557        1.18398679899287
C           -2.93046092173235       -0.46589672189754        1.10875408207333
C           -2.38188170887121        2.17733708374896       -1.19852749109817
C           -1.42301806568168        1.08990364055250       -1.71403881603171
C           -0.10760736221950        1.09896229640575       -1.03635563430451
N            0.53931890656771        0.01590167785406       -0.58560794021647
C            1.91963282474773        0.11848760593005       -0.17802216754922
C            2.88847716542612       -0.25344482601657       -1.31834743927788
C            4.31091250883729       -0.06731687558383       -0.87222330454522
C            4.96489223628026        1.13487596790162       -1.07336577949006
C            6.27185802146327        1.31257169930665       -0.64296609554645
C            6.94682017284777        0.28980364904214        0.00416480177765
O            8.21690028826493        0.35022102147224        0.46005047542764
C            8.95860339844887        1.52909879126609        0.25353310551394
C            6.28161513914007       -0.94506390160783        0.22228650293816
O            7.01273480043605       -1.88804267681324        0.85942782456378
C            6.44575044355675       -3.15518955823739        1.08461057291169
C            4.97764040495348       -1.10068655846345       -0.21585870551723
C            0.00064726742687       -1.31327085057013       -0.73914096788229
C           -4.05441159459495        2.90424834355742        0.65779467090905
C           -3.88625924334126        2.92370455394653        2.18465567411338
C           -3.88324468040356        4.31104425494885        0.09374342316577
H           -4.31149492518000        0.20532663425825       -1.66998948941855
H           -7.37900360824247       -0.02259595326214       -1.31589346528470
H           -7.77575188172721       -1.45401280682098       -2.29055452334058
H           -6.35531894046352       -0.46710369456510       -2.70944333275834
H           -4.54029346728798       -4.06774721999677        2.39014110274505
H           -5.11533049332572       -5.28592414116004        1.22706203677060
H           -3.46494467280137       -4.63667560831678        1.07975928179854
H           -2.89641537829072       -2.47585500798347        1.84933713473014
H           -2.10301627968209       -0.18830777856390        1.74716191991062
H           -3.21798858947269        2.25470642068937       -1.89357029654373
H           -1.85872315920198        3.13292546583498       -1.19380538871065
H           -1.89504621347434        0.11283239838877       -1.63614456737506
H           -1.25916111072417        1.29493574139240       -2.78108896290141
H           -0.87832272630286        1.89717939904120        1.22963467606623
H            0.41084459327024        2.03964678832881       -0.94695866833770
H            2.09096700877381       -0.54509365252332        0.67387954173034
H            2.12655811139242        1.14243387560849        0.13971223215266
H            2.67861582984977        0.38869356278440       -2.17547209970997
H            2.72061369125527       -1.29004030290035       -1.61334696460504
H            4.46417876115595        1.94444925528364       -1.58272290513170
H            6.75825753826370        2.25702333691151       -0.82417497166928
H            8.50133133853758        2.38553894564566        0.75912393045248
H            9.07044002711364        1.75128265548360       -0.81225775997197
H            9.93860317169896        1.33700824046897        0.68621219685120
H            7.21923884302154       -3.73729691830555        1.58190593794825
H            5.56694934838965       -3.09334412987023        1.73525875087692
H            6.17179504200974       -3.64645027344766        0.14543721163045
H            4.46600994347532       -2.03848868340316       -0.06482656366964
H           -0.04122378844244       -1.61065231714346       -1.79036902532636
H           -1.00535185537874       -1.36682785318943       -0.31896097915065
H            0.63427519880447       -2.01730793361825       -0.20523239801831
H           -5.04684901531298        2.54596501941687        0.38969559831295
H           -4.43888064763987        2.10073583941375        2.65527319463512
H           -5.44860231339885        0.81239113765468       -0.48803839564164
H           -4.20764944367934        3.86524979000726        2.63153963839675
H           -2.90755435406821        4.71733944760129        0.34735792902127
H           -4.00032853179640        4.32281641178041       -0.98553779764005
H           -4.64517699021916        4.96261740484744        0.51524411975106
H           -2.00606002005895        2.84168263336407        3.23354930447959
