25
 energy: 0.000000000000 xtb: 6.6.1 (8d0f1dd)
C            3.23720163006194        1.16630919979326        0.08434469647475
N            2.29877817382611        0.07527477071623        0.03981603040599
C            2.58028210190900       -1.21425402444508        0.03006176031096
N            1.43813958087363       -1.93419271955128        0.00098261760884
C            0.39035688448383       -1.05887472636071       -0.00790371836672
C            0.93510056364412        0.21347819449412        0.01709077491437
C            0.09450143893243        1.40504303904423       -0.00410947031874
O            0.49712751527797        2.54126714362870       -0.00342325688240
N           -1.25076640035757        1.06271879480407       -0.03085478223738
C           -2.21907211982101        2.15522099834493       -0.05001256985998
C           -1.81739487048744       -0.20012725993278       -0.04692818574614
O           -2.99983886758376       -0.37846417018721       -0.07008878229737
N           -0.92618586207120       -1.30210215599479       -0.03682761578324
C           -1.46982264913417       -2.64643102187190       -0.06029820460571
H            3.71247264356769        1.21471455160235        1.06488849150277
H            4.00791497605742        1.03430808813993       -0.67357694370751
H            2.69910007168542        2.09770118228144       -0.09130154882931
H            3.56654120610678       -1.63682992603973        0.04233140067262
H           -1.67107961066214        3.09322851271934       -0.02552706933167
H           -2.82428953597071        2.09428624779827       -0.95318082946668
H           -2.87644029173232        2.07745725625962        0.81450067533302
H           -1.17061996399332       -3.19584890659852        0.83242232437030
H           -1.14560257411436       -3.17511610292205       -0.95688275822323
H           -2.55549792440841       -2.55659984320617       -0.07459039797972
H            1.38130855184625       -2.94313852034425       -0.01389874181052
25
 energy: -1.040987166106 xtb: 6.6.1 (8d0f1dd)
C            3.24927057857073        1.17877239283557        0.08068708371510
N            2.30542789818195        0.10006781355730        0.03700735624556
C            2.60301416495525       -1.22291682860309        0.03440014429933
N            1.43197539048898       -1.93555838209627        0.01005547762799
C            0.37939469752503       -1.05969528952403       -0.00550972066927
C            0.92307328699708        0.21544954317556        0.01437723024620
C            0.09157888738839        1.38007812456952       -0.00687605154298
O            0.51001790620390        2.54121037388086       -0.01006410995062
N           -1.28761757657819        1.03649580545051       -0.03877964441003
C           -2.19690468705016        2.17541202106205       -0.03062519617762
C           -1.92605111525018       -0.21890327979739       -0.10898393378973
O           -3.13852882880305       -0.36566533716299       -0.13431108143534
N           -0.96963158412813       -1.30646046039795       -0.04371016363710
C           -1.45232455232735       -2.66818806088019       -0.04829240601307
H            3.71896724310496        1.23755026507295        1.06646492620875
H            4.02956137931319        1.02974085427493       -0.66847242594500
H            2.71495567018351        2.10581872532238       -0.11518131469934
H            3.58862890067153       -1.63735032484127        0.04375035918817
H           -1.62718329962091        3.10491439517738        0.02379066340197
H           -2.78645995329440        2.15097348591109       -0.94418873926189
H           -2.85885569811430        2.09231272422429        0.82836553780003
H           -1.11999099416733       -3.21458310941668        0.83892357084396
H           -1.12178286612060       -3.19409921289518       -0.94666502002179
H           -2.53591139912317       -2.59557872022735       -0.04610503771166
H            1.38759121892951       -2.94076891650005       -0.00302360816431
25
 energy: 16.795250401905 xtb: 6.6.1 (8d0f1dd)
C            3.26302299700974        1.18823054062090        0.07369489976492
N            2.30453049918011        0.12578968370017        0.03198807220983
C            2.61702531021448       -1.22584756652514        0.04299783619633
N            1.42001131530316       -1.92968139404337        0.02297557021641
C            0.35751360495667       -1.06033123813793       -0.00048915315911
C            0.90465316962030        0.21458594093391        0.01137612477339
C            0.08252787078230        1.34237670899235       -0.01474377393398
O            0.51368345818088        2.51700069375384       -0.02815916258840
N           -1.34153013167810        1.00146921079934       -0.04688442029646
C           -2.16295574025953        2.21111396535894        0.00001856340135
C           -2.08539598996860       -0.24694093177872       -0.19208346141301
O           -3.31228664758659       -0.34372712562462       -0.25002432065482
N           -1.02896511696486       -1.30842518429411       -0.05241377832764
C           -1.42031790172494       -2.70091922843244       -0.03135408390454
H            3.72142957464034        1.27103996401585        1.06693224886743
H            4.06263239299241        1.01457006669789       -0.65545804948547
H            2.74528879904185        2.11656203855551       -0.15661263713930
H            3.60634422492745       -1.62432880641700        0.04710744303959
H           -1.55671223017332        3.12209257673104        0.10646016496546
H           -2.72957955208619        2.25893648005449       -0.92916920462903
H           -2.83454499889403        2.12369888567725        0.84953787341037
H           -1.03149814546303       -3.24172871037730        0.84457542031140
H           -1.08786027152811       -3.22731141945185       -0.93262739772326
H           -2.50406997921440       -2.67428047692105        0.00521610345853
H            1.40926815662824       -2.93491607171599        0.01417301878730
25
 energy: 41.654416828253 xtb: 6.6.1 (8d0f1dd)
C            3.27093941233797        1.18946972176158        0.06852650171176
N            2.29617099341964        0.13807736198414        0.02911286172523
C            2.61340306163260       -1.22310043853128        0.05445710302393
N            1.40931406066940       -1.92500385749952        0.03187103756055
C            0.33426295962193       -1.06533170031844       -0.00464308417799
C            0.88865363877104        0.20864087193596        0.00427511532811
C            0.06463849115766        1.32216309044875       -0.03587391812632
O            0.50402880505156        2.49624793018384       -0.05323101687649
N           -1.39408024420029        0.98136652729454       -0.05962700137852
C           -2.13532023936889        2.24914944252201        0.03168675791122
C           -2.22510391920248       -0.26844945259727       -0.26306149535118
O           -3.45108222823422       -0.32308051766991       -0.35281117255767
N           -1.07774166472110       -1.31338201501458       -0.06719437993330
C           -1.38567052291752       -2.73465674436649       -0.01740132944686
H            3.71135937697370        1.30022257149950        1.06992101671992
H            4.09239538599246        0.98745687134998       -0.63349430246767
H            2.77981850080464        2.12380413296228       -0.20263289963545
H            3.61084927490855       -1.60527740441071        0.05525095142081
H           -1.48537455250446        3.13087497672812        0.19392836682648
H           -2.67225880423010        2.38451630658048       -0.91198605401235
H           -2.81844107041340        2.16259616605928        0.87031127075904
H           -0.93342304957108       -3.25871647490126        0.84653554130853
H           -1.05457762380329       -3.26054286881667       -0.92188081260158
H           -2.46934722186361       -2.77548597889500        0.06253077793537
H            1.43880184762556       -2.93252991611741        0.03246406048173
25
 energy: 59.435317626871 xtb: 6.6.1 (8d0f1dd)
C            3.27116702475699        1.18460082290362        0.06867183359964
N            2.28569371312940        0.13845238991928        0.02925410425023
C            2.60182626900283       -1.21701632578755        0.06369704406152
N            1.40521301341647       -1.92437647936948        0.03247784032734
C            0.31982395391382       -1.07241911751166       -0.01612533257318
C            0.87916320242421        0.20095409798522       -0.00505200770651
C            0.05125720213405        1.32035046904940       -0.06255391316869
O            0.50114009673365        2.48348289880196       -0.08272439079558
N           -1.42788213875912        0.98174119341372       -0.07045944114160
C           -2.12103636453056        2.27437724859753        0.05361609961371
C           -2.31580977303699       -0.27795539850548       -0.30143995502360
O           -3.53292770527334       -0.30607271946867       -0.39814046971525
N           -1.10159013257568       -1.32261143011961       -0.08018007742657
C           -1.35815528712864       -2.75680087372017       -0.01125213909723
H            3.69108815215149        1.31595225584523        1.07687125775668
H            4.10865339280764        0.95837257374965       -0.60790303343679
H            2.80439110683833        2.12242847684065       -0.23582613792298
H            3.60675820506388       -1.58694693048359        0.06341287671108
H           -1.44748173338561        3.13068248177744        0.25167027867168
H           -2.62755475349031        2.47169523242415       -0.89391082534356
H           -2.81580913484791        2.19267737180767        0.88138674593699
H           -0.86386808766920       -3.26022066694259        0.84285968186946
H           -1.03371204631309       -3.28125205439059       -0.91971934101140
H           -2.43474040394984       -2.84836863429826        0.10455266691144
H            1.46660689652377       -2.93269828034596        0.04385053080048
25
 energy: 65.954838947412 xtb: 6.6.1 (8d0f1dd)
C            3.26701860197325        1.18026001174940        0.06968078957488
N            2.27880997570607        0.13368303078368        0.03052065031070
C            2.59324707770966       -1.21052906840284        0.06699494067932
N            1.40749680547229       -1.92591665857581        0.03063378638460
C            0.31704606058210       -1.07735193430869       -0.02155601039839
C            0.87680293897635        0.19552545576230       -0.00796317116032
C            0.04866615058241        1.32526985809006       -0.07364418987592
O            0.50700695288032        2.47712992582700       -0.10050030495428
N           -1.43475087805387        0.99207355686944       -0.07237690753132
C           -2.11742285631339        2.28100473974389        0.05915323973021
C           -2.34972826823253       -0.27820179125384       -0.30970107953158
O           -3.55959147613510       -0.29530143160071       -0.40324289669808
N           -1.09939602765416       -1.33276969717988       -0.08094195278366
C           -1.34670610530417       -2.76357257595642       -0.00980619266357
H            3.67588419452850        1.31934380464989        1.07964614383190
H            4.10872030062175        0.94407068790481       -0.59423469399795
H            2.81100730465716        2.11684363261500       -0.24723594713762
H            3.60194605394162       -1.57569306283168        0.06247588482409
H           -1.44248766440428        3.12575560079256        0.27363961498481
H           -2.60442526884435        2.50186188021641       -0.88610932699066
H           -2.82264676067939        2.20165502046697        0.87823337489097
H           -0.84267200196248       -3.25705068427527        0.83785199890783
H           -1.02973890242852       -3.28709293871914       -0.92146008320317
H           -2.41430980772271       -2.86896555143421        0.12029530928350
H            1.48243826803972       -2.93300320876102        0.04668091967100
25
 energy: 70.898326959969 xtb: 6.6.1 (8d0f1dd)
C            3.26197396107238        1.17775013404337        0.06960045504739
N            2.27362469610272        0.12820168873394        0.03203845748217
C            2.58815951130014       -1.20332839389351        0.07015559195673
N            1.41247969015017       -1.92833374954861        0.02975832400745
C            0.31800545583370       -1.08095263642114       -0.02468984004174
C            0.87659767687851        0.19095416361833       -0.00809578324752
C            0.04832625797492        1.33039832843771       -0.07608532727158
O            0.51356409310690        2.47306328147359       -0.10812133977185
N           -1.43042374312589        1.00540839903370       -0.07291065867504
C           -2.11515652456091        2.28387986028671        0.05775898610839
C           -2.37188762346838       -0.27577143594274       -0.31745412634512
O           -3.57788998221574       -0.28382480102032       -0.39664542327468
N           -1.08501940073251       -1.34575857177363       -0.07760504678838
C           -1.34040317604506       -2.76826104077498       -0.00788201048653
H            3.66435364393065        1.31969752698656        1.07961705938273
H            4.10402898928588        0.93618913983063       -0.58700871152313
H            2.81029269323652        2.11159705650755       -0.25259659021326
H            3.59889712153600       -1.56767043198951        0.05724871547461
H           -1.44320665100718        3.12231707228717        0.29140236015408
H           -2.58698220118914        2.52203806214886       -0.88707640218440
H           -2.83287151499490        2.20140811980851        0.86695606782162
H           -0.83153058762921       -3.25916141754175        0.83336249491318
H           -1.03295147468534       -3.29139683426530       -0.92357327548303
H           -2.40286414441340       -2.87596317826678        0.13164104708453
H            1.49309790159542       -2.93345173958648        0.04723887202065
25
 energy: 82.381268446543 xtb: 6.6.1 (8d0f1dd)
C            3.25569553644799        1.17552909223186        0.06908789243365
N            2.26702516756181        0.12018122810892        0.03450450351392
C            2.58607688723190       -1.19146827632656        0.07857514582595
N            1.42333544673079       -1.93343308387309        0.03205725119229
C            0.32051185856668       -1.08659464178278       -0.02858123968419
C            0.87753952611160        0.18297971055729       -0.00860736765469
C            0.04532467641682        1.33602634284331       -0.07832362375529
O            0.52429849984432        2.46572594982220       -0.11478160139224
N           -1.41777162238861        1.02948497438153       -0.07391265111878
C           -2.10949586584831        2.29280096730328        0.05598220915987
C           -2.42011072065370       -0.27074641450728       -0.34865027697028
O           -3.62476076090714       -0.26009603422533       -0.37730253476510
N           -1.05308292993230       -1.37059642849558       -0.07149641219044
C           -1.32858446434560       -2.77972146544043       -0.00383733277522
H            3.65049261628048        1.31982770410350        1.07913573970521
H            4.09840543107601        0.92704362580328       -0.57852300360362
H            2.80793332379511        2.10589570135728       -0.25915637074497
H            3.59913606072470       -1.55650258147754        0.04646818067660
H           -1.44931745190470        3.12696101041661        0.31461602497894
H           -2.56233283759227        2.54729671585905       -0.88652234921917
H           -2.84447575741293        2.20142440292558        0.85044983084995
H           -0.81773813552603       -3.27429141536861        0.82803600806751
H           -1.03904887707944       -3.30413923130872       -0.92631858620528
H           -2.38640753149970       -2.87876573021459        0.14560971742473
H            1.50956659223878       -2.93579352052132        0.04852474239799
25
 energy: 95.532532851037 xtb: 6.6.1 (8d0f1dd)
C            3.24984915688110        1.17178298593085        0.06860123864745
N            2.25896242328250        0.10941140135330        0.03752776025384
C            2.58535242328349       -1.17523071467551        0.08976792311771
N            1.44130560834423       -1.94089605557092        0.04052491778152
C            0.32298004040877       -1.09710351057035       -0.03178455575691
C            0.87938154558849        0.17070433830363       -0.00943091643732
C            0.03872531874183        1.34280114578551       -0.08360911862679
O            0.54049711086717        2.45258093185916       -0.12447645863790
N           -1.40625257544137        1.06227366306001       -0.07639799608251
C           -2.09964795120530        2.30903557158839        0.05793424866056
C           -2.51346355676063       -0.26737707091662       -0.42925765178412
O           -3.71406958704418       -0.22342071945133       -0.34129279022277
N           -1.01218830465793       -1.40604731420808       -0.06450044686253
C           -1.30815522042572       -2.79819109245034        0.00355304487985
H            3.63544402337535        1.32004354820220        1.07819555966665
H            4.09349543824763        0.91539030171230       -0.56711226733251
H            2.80931555359316        2.09861398903893       -0.26688725365988
H            3.60294354185127       -1.53804073410343        0.03095638670891
H           -1.45353052354259        3.13676393616043        0.34782253199417
H           -2.52745628077641        2.58610564125016       -0.88169022510239
H           -2.85365472306679        2.20438101955749        0.83518553432081
H           -0.79861325612725       -3.29591611954783        0.82470284562160
H           -1.04039563318115       -3.32335884967456       -0.92707121641508
H           -2.35923697356713       -2.88526946999988        0.16257774006444
H            1.54062706926772       -2.94000822046166        0.05319506135049
25
 energy: 109.971811838955 xtb: 6.6.1 (8d0f1dd)
C            3.24597154111509        1.16506235294976        0.06512709052840
N            2.25060504171590        0.08842548001446        0.03923965336930
C            2.58302870816185       -1.14996062887002        0.09409089702121
N            1.47704098196820       -1.95039987683033        0.04624948727095
C            0.32933609963935       -1.11533826418173       -0.02476377660316
C            0.88691685661603        0.15534176492303       -0.00544629738360
C            0.03083392505707        1.36001604719806       -0.08318271753869
O            0.57059134210348        2.43837959086717       -0.13002590806197
N           -1.38404595728955        1.11696018530187       -0.06950203212183
C           -2.08461435700048        2.32938749212355        0.05897839554910
C           -2.68790070650078       -0.27004174830748       -0.54882033054906
O           -3.86189361320241       -0.16750886281819       -0.31432243883160
N           -0.93577525804331       -1.46572832971582       -0.03191550326560
C           -1.27820873331897       -2.82246333541140        0.01539117968164
H            3.62165539255822        1.31812600747673        1.07217217025364
H            4.08811165267434        0.90430195173762       -0.55708563923970
H            2.81296331248633        2.08718071193052       -0.27436312990205
H            3.60679206238397       -1.51469026809032        0.01894251373847
H           -1.46394009255891        3.14951181537923        0.37648736523196
H           -2.48612730764348        2.62004767839025       -0.86722510347613
H           -2.85679266576857        2.21046458892175        0.81938875879393
H           -0.78144149796928       -3.32739282771160        0.82135404117571
H           -1.03994802411002       -3.34283792663214       -0.92869137727639
H           -2.32120004443567       -2.88354373855869        0.17990490045381
H            1.59025600929786       -2.94427125791441        0.05505169732898
25
 energy: 123.765726107392 xtb: 6.6.1 (8d0f1dd)
C            3.25464239936763        1.16334674814100        0.05905240222532
N            2.25628063889323        0.06530234361217        0.03305206637027
C            2.59567738180746       -1.13105120187507        0.07762808128859
N            1.53780820788587       -1.95969277305817        0.04643527676287
C            0.34680127751044       -1.13733831034619        0.00108726394032
C            0.90767043356454        0.15246633291631        0.00126400739052
C            0.02495139343516        1.39046055810814       -0.06873489904714
O            0.61687607818466        2.44416494552066       -0.12027110106546
N           -1.32806164827566        1.18764581884790       -0.02607990858671
C           -2.06715698590698        2.34653028606293        0.05960158797728
C           -2.97054823033693       -0.29607136947965       -0.70649554544967
O           -4.05967472417482       -0.11961156174713       -0.30137802601436
N           -0.80356776313168       -1.54467931787840        0.03819183643835
C           -1.25150229970000       -2.84466599929947        0.02517766319741
H            3.62967773548618        1.31378487764555        1.06415554302811
H            4.09157259846791        0.91253126562376       -0.56614343836859
H            2.81210683604235        2.08421117777001       -0.27036107153410
H            3.61918681419470       -1.51197784733548        0.02716591929605
H           -1.47899617231224        3.17753475275686        0.36939897345790
H           -2.47545258740408        2.60222419630116       -0.85759059159321
H           -2.83841476194584        2.20689535823196        0.81893940411375
H           -0.79006470918631       -3.36834912154610        0.82857970754064
H           -1.03819896732107       -3.34962823583975       -0.93108742977164
H           -2.30801805424427       -2.84589458727976        0.17461867104073
H            1.62861977703608       -2.94910973368138        0.05082750351009
25
 energy: 130.103614466989 xtb: 6.6.1 (8d0f1dd)
C            3.26822841486293        1.17255903104609        0.06028926494561
N            2.27378904756831        0.06984941126830        0.02777312980301
C            2.62914846817269       -1.14575152839692        0.04938613520597
N            1.59886612894315       -1.96415361805540        0.04982718149720
C            0.36916554694538       -1.14813592091715        0.02462043062610
C            0.92578792850564        0.18004772591551        0.00555987023712
C            0.03172894281821        1.41842904064892       -0.04921391728326
O            0.66086036967012        2.48688932367758       -0.11322105869060
N           -1.23854964489690        1.22427195077857        0.03095729124219
C           -2.04706731314904        2.35296050869232        0.07172916386895
C           -3.24357044556109       -0.35427871689952       -0.84367891857737
O           -4.19462273095027       -0.11383929883210       -0.27239000981995
N           -0.68542739272200       -1.59696799367545        0.08878631273455
C           -1.24873399725514       -2.85593419402612        0.02242118354257
H            3.64997805075308        1.31232153791210        1.07166250206396
H            4.10490095722277        0.92853835767976       -0.58939614783345
H            2.79751244494017        2.10086023091365       -0.26112517134018
H            3.64261895366830       -1.53479450487383        0.04091351445289
H           -1.47466408421367        3.22744763422291        0.34543041082275
H           -2.50922014809501        2.54194364311541       -0.88103423089855
H           -2.81612826933327        2.18256308472435        0.83295995415175
H           -0.81118385662211       -3.39614776029872        0.85181521984084
H           -1.03647654478393       -3.34026994581776       -0.92994948296610
H           -2.34973641207389       -2.80148465531310        0.14889590800579
H            1.61501025352184       -2.95789474131751        0.04401536051550
25
 energy: 118.581638485893 xtb: 6.6.1 (8d0f1dd)
C            3.28470271442541        1.17616081988165        0.06634364206133
N            2.30240670515665        0.09081909098080        0.03054159840949
C            2.67366341913498       -1.15839784354572        0.03561065749817
N            1.63827363313557       -1.95429064055429        0.04266566887305
C            0.40034464771994       -1.13277955910789        0.02015780534137
C            0.94733220374780        0.20656394609362        0.00923273334492
C            0.06832083313519        1.41557061058148       -0.04799881091816
O            0.70084537718282        2.51102118771502       -0.10760376065918
N           -1.19631542100335        1.21386024304536        0.05955393223060
C           -2.03580011910465        2.35900792815121        0.08124374688973
C           -3.44323871542324       -0.41272354899491       -0.90416170736140
O           -4.30476546389470       -0.08983527935023       -0.24053361850126
N           -0.69681633298789       -1.61977486406003        0.11242771075702
C           -1.25579081195292       -2.87500981365898        0.02000608158308
H            3.67071087844451        1.30889042663571        1.08042307421531
H            4.11990515473096        0.93924402663934       -0.60116041283365
H            2.79401902082978        2.10634273573310       -0.24820379183192
H            3.67794943026879       -1.52960594313736        0.05007285601174
H           -1.48141295630938        3.26734958340469        0.31271974374695
H           -2.52964801854041        2.49562954319565       -0.89295908474661
H           -2.79561612611545        2.18595977769202        0.84342951145916
H           -0.83606727004739       -3.42916515371945        0.86469716344090
H           -1.03674994849080       -3.34200494954623       -0.93203747392920
H           -2.36932145985941       -2.78555605289938        0.13448077743368
H            1.61528329375343       -2.95824766900329        0.03808585363217
25
 energy: 118.918754654450 xtb: 6.6.1 (8d0f1dd)
C            3.29380431888301        1.18046962007670        0.06204322053762
N            2.33425370096569        0.11280422770527        0.03574438772629
C            2.71363989574050       -1.17871943000437        0.03418316741682
N            1.64251537766866       -1.95525169517660        0.04141742776984
C            0.42908112498920       -1.11535436553457        0.02829652412764
C            0.96769088368052        0.21701205228333        0.03382151373126
C            0.15087516005979        1.41587698024013       -0.01948973711096
O            0.75558316279505        2.54368535283952       -0.10152555379926
N           -1.14674881422149        1.19798451065521        0.09534403895047
C           -2.01969184567448        2.34848185347649        0.08947089995646
C           -3.66012172116208       -0.49074328730026       -0.90558309981188
O           -4.41213209249238       -0.08851906892292       -0.27100987325182
N           -0.71924211273874       -1.58660203472566        0.11433147652017
C           -1.25223550866908       -2.85883038628256        0.02031759040544
H            3.69628097076712        1.31029423197891        1.07037895237110
H            4.12187402548886        0.96468282283218       -0.62379399330382
H            2.78728918946679        2.10984516376701       -0.23275023131598
H            3.71485312450219       -1.52348157056423        0.04381664388676
H           -1.50381480530973        3.30134998743501        0.26422270667156
H           -2.53885398731955        2.40102871315659       -0.89234280206835
H           -2.76841712843259        2.16663081460319        0.85299978225049
H           -0.87793505464498       -3.44589679272537        0.87152343725152
H           -1.03176557668889       -3.33330382195590       -0.92749013870801
H           -2.35673063908982       -2.73940871128820        0.11017945013212
H            1.59216301937272       -2.96500656439700        0.03292810581181
25
 energy: 123.961659573738 xtb: 6.6.1 (8d0f1dd)
C            3.30161773645685        1.19094788250399        0.06279705657811
N            2.36551110673425        0.12981086780398        0.03630438087010
C            2.74521729351771       -1.18938111652699        0.03887916718296
N            1.64309006777741       -1.96050011841074        0.03111839068922
C            0.46492589996577       -1.11270146059878        0.02361934649991
C            0.98860350008889        0.20956789394907        0.04523963341812
C            0.25206211744041        1.42959921763126       -0.00832523608913
O            0.80523722735189        2.57204963617368       -0.09103464267013
N           -1.09546003994536        1.18001017179760        0.08816956161056
C           -1.99602944322425        2.32170658818789        0.08463764759769
C           -3.88605818288132       -0.59809880592030       -0.97690778002494
O           -4.58577442799987       -0.00966814324058       -0.14686690845699
N           -0.74295385859191       -1.55219734996729        0.07692094448939
C           -1.25204890021329       -2.84395422439263        0.02310560765383
H            3.71162644421268        1.31757571626096        1.06755281246796
H            4.12493914723649        0.99510113191264       -0.62747307592904
H            2.78640119649182        2.11425675597708       -0.21314560988506
H            3.75038532572761       -1.51619796226531        0.05882122462005
H           -1.52793303241913        3.31455508163912        0.22603684527205
H           -2.53121189908648        2.32889819296436       -0.88716830129869
H           -2.73989326737042        2.13421354721878        0.85191714905359
H           -0.91336660248130       -3.45831295877210        0.86876755864255
H           -1.02626884584624       -3.33391495235185       -0.92404014390091
H           -2.33181044090530       -2.70596352410984        0.08553276384339
H            1.60140654589934       -2.96837346529211        0.03257550391275
25