25
 energy: -42.410229422019 xtb: 6.6.1 (8d0f1dd)
C            3.24009448348160        1.16855238775514        0.06487521406263
N            2.25253476534085        0.10265239149817        0.03385006754038
C            2.61115552584361       -1.16710503574358        0.06329657521575
N            1.52391266143820       -1.95786217294000        0.04450310907526
C            0.35656377610043       -1.14195838509427        0.01419587463184
C            0.88139449425489        0.17670876921475        0.00385406580595
C            0.05341192117864        1.39070624696862       -0.05473764488748
O            0.62619336303851        2.48552820065591       -0.11464505111818
N           -1.28289006733454        1.16563911227454       -0.03782195441455
C           -2.08765873502431        2.32488049429624        0.05860880443390
C           -3.07230271265806       -0.31848523193355       -0.81124743868903
O           -4.05477615836909       -0.11462308482843       -0.27794410358374
N           -0.87552775019508       -1.46232003093282        0.00064387731061
C           -1.31230501949062       -2.80614955732850        0.00729492863246
H            3.62942766403200        1.31078252620519        1.07741499008127
H            4.08586125029103        0.92918925624370       -0.58486910270892
H            2.78484338689362        2.11150698374138       -0.23881025443151
H            3.62581598774173       -1.51970005565459        0.03981674285022
H           -1.44654216772695        3.16527222858620        0.30983415034309
H           -2.56726051395856        2.55149450232750       -0.89467730908879
H           -2.86150514468189        2.19897631107826        0.81731073015315
H           -0.83831128166724       -3.30350004841454        0.84987813823614
H           -1.03664663775580       -3.29723477705725       -0.92632454368717
H           -2.39855261118665       -2.85674754972281        0.12104759286274
H            1.55694377458185       -2.95916919266548        0.05317668522491
