25
 energy: -43.834546576356 gnorm: 0.109933450413 xtb: 6.6.1 (8d0f1dd)
C            3.24636678971600        1.18440743466758        0.10477172826226
N            2.31812951098575        0.08301064363805        0.04718647552027
C            2.58805970194384       -1.22981525859985        0.02497977454563
N            1.43149754779204       -1.94362550673335       -0.00647393753027
C            0.39226551487313       -1.06470025884556       -0.01436264922516
C            0.93461898108753        0.20796843841774        0.00524101603273
C            0.09956144006590        1.39756641047369       -0.00715832027973
O            0.50636930536183        2.54460897965677       -0.00535530984131
N           -1.25186926945951        1.05693346134025       -0.03071565785378
C           -2.21556806297979        2.15186035390854       -0.04650659037520
C           -1.82084699681565       -0.20176647094640       -0.04621660316507
O           -3.00633831027853       -0.37883214963926       -0.06787273485266
N           -0.93104043842425       -1.30463308658388       -0.03843413309220
C           -1.47566766839316       -2.64688619581739       -0.06031964588098
H            3.70146952714362        1.32575594851109        1.08432781778741
H            4.03572788125713        1.01505961308465       -0.63570407664179
H            2.69838623770004        2.08657968824479       -0.14419980886057
H            3.56921857728243       -1.65748247935054        0.02815577002894
H           -1.66405620965404        3.08850732679881       -0.02195051781302
H           -2.82102575364042        2.09689918983707       -0.94847433317326
H           -2.87199629091476        2.07627824765826        0.81937461710694
H           -1.17689748896413       -3.19811150327274        0.83178838929869
H           -1.15355235933640       -3.17756768163915       -0.95697824019582
H           -2.56131902688471       -2.55465057821842       -0.07309826363021
H            1.36969343215778       -2.94975142092060       -0.02219623340072
25
 energy: -43.838691643369 gnorm: 0.040240145273 xtb: 6.6.1 (8d0f1dd)
C            3.24648396220716        1.18884858614929        0.09420760169737
N            2.31991385291446        0.09754182632261        0.04482259590487
C            2.60316773278817       -1.24108520207014        0.02968993722722
N            1.42535641832949       -1.94363668922809       -0.00412561462667
C            0.39886973986474       -1.05865870687361       -0.01307654628625
C            0.93223920099178        0.21936423180110        0.01016246073945
C            0.10660917065266        1.39016992762746       -0.00633098889867
O            0.50159911098074        2.55790605664010       -0.00689282467784
N           -1.25914979980700        1.04747747201523       -0.03059811845113
C           -2.21639085625490        2.14519626919369       -0.04639276501771
C           -1.82324874058617       -0.20170965347001       -0.04658096104507
O           -3.01994692545128       -0.38320461940998       -0.06797824314089
N           -0.93532122441576       -1.30117698635094       -0.03908334705540
C           -1.47515048362715       -2.64210740817857       -0.06079276479540
H            3.69319364555009        1.30301949599899        1.08532279313849
H            4.04245465957107        1.02564000383054       -0.63723743937012
H            2.69599688335994        2.09572139254185       -0.14534259145313
H            3.57864076209656       -1.67250052550244        0.03078294207376
H           -1.65110719746799        3.07439789563103       -0.02115106511676
H           -2.82283640331929        2.09609769788293       -0.95004734961877
H           -2.87314582463366        2.07626945717248        0.82044487679229
H           -1.17274449718006       -3.19467044487920        0.83105182101085
H           -1.14958036804955       -3.17501998038679       -0.95648560882251
H           -2.56058411841516       -2.54942193137797       -0.07370225468976
H            1.35586787152279       -2.94684501940943       -0.02085801274709
25
 energy: -43.839314114318 gnorm: 0.016633022956 xtb: 6.6.1 (8d0f1dd)
C            3.24472159475361        1.18683063497375        0.09844761628917
N            2.31468038712041        0.10438670448998        0.05549288244184
C            2.60910599920754       -1.24523324631049        0.03299179645553
N            1.42385330322187       -1.94600908501546       -0.00814216254733
C            0.40281503602174       -1.06332601365047       -0.01439332188558
C            0.92661515613142        0.22065876166154        0.01381066342222
C            0.11774143687102        1.38034585598669       -0.00713155011897
O            0.50770727417754        2.55585502031419       -0.00464873186374
N           -1.26125612999743        1.04770366600062       -0.03175858293977
C           -2.21525677928324        2.15019277001092       -0.04652747183963
C           -1.81475399048613       -0.19772807049255       -0.04723736903086
O           -3.01545484419566       -0.38058752661219       -0.06786331148370
N           -0.93801438285534       -1.30364615635925       -0.04038958500930
C           -1.47830482555910       -2.64447437189216       -0.06026229579267
H            3.70109233922479        1.32643878436873        1.08522131964358
H            4.03545262226601        1.01086292001457       -0.63201401965098
H            2.69449647192646        2.09026422741079       -0.15095208898106
H            3.58146937134296       -1.66493983851463        0.02389005054885
H           -1.66544900850851        3.08991073137012       -0.02202604744213
H           -2.82324376429357        2.09839288819107       -0.94915886350896
H           -2.87305471750224        2.07776073135703        0.81891978332589
H           -1.17815487022903       -3.20122002658443        0.83113863669169
H           -1.15632696865022       -3.18176605957900       -0.95579047449085
H           -2.56353325006630       -2.55422080803824       -0.07204020976605
H            1.36423911098310       -2.94883934743100       -0.02976812969604
25
 energy: -43.839537172479 gnorm: 0.009801868197 xtb: 6.6.1 (8d0f1dd)
C            3.24633320348268        1.18257341042937        0.09654211831393
N            2.31219712982502        0.10367859492513        0.04585435218552
C            2.60416847068344       -1.24493457781915        0.02801763511188
N            1.41971360103567       -1.94371313240356       -0.00563737133980
C            0.40080850476000       -1.06255456792544       -0.01646240176662
C            0.92402182845652        0.22222135553102        0.00672020192671
C            0.11557486505525        1.38052032054443       -0.00964984914541
O            0.49827176455605        2.55605809613586       -0.00905580611194
N           -1.26559469872036        1.04763237496526       -0.03150778138090
C           -2.21636859006390        2.14922197823314       -0.04571499997684
C           -1.81541020940177       -0.19769775728009       -0.04618857903824
O           -3.01470921173096       -0.38370215248628       -0.06655866302468
N           -0.93898764304143       -1.30199748570986       -0.03967919373254
C           -1.47479739518499       -2.64262837023337       -0.06067959456822
H            3.70083706387284        1.30869652273069        1.08595662312560
H            4.03841426981208        1.02013298588182       -0.63648535355782
H            2.70000075161014        2.09213185709216       -0.13876321022127
H            3.57550823375632       -1.66380689993476        0.02717644603228
H           -1.65586254192864        3.08204012313382       -0.02130148304106
H           -2.82297849060107        2.09816952493555       -0.94926263112646
H           -2.87284957788366        2.07778861366692        0.82096821001696
H           -1.17221036357451       -3.19624358316953        0.83161428604794
H           -1.14831584387114       -3.17525943079265       -0.95726515621757
H           -2.56004255185297       -2.55337460027511       -0.07406568406274
H            1.36346400257108       -2.94734005450521       -0.01476358167758
25
 energy: -43.839568574309 gnorm: 0.005896444952 xtb: 6.6.1 (8d0f1dd)
C            3.24499271155169        1.18463136779725        0.09364154882762
N            2.31517608856110        0.10071292849907        0.04694266571258
C            2.60479834979152       -1.24583906975274        0.03098664877397
N            1.42128691365200       -1.94340744303028       -0.00772440082255
C            0.40153787297146       -1.06339822196941       -0.01376685950761
C            0.92678170897150        0.22099707366116        0.01068735859131
C            0.11764068776932        1.38214452259204       -0.00305898435809
O            0.49929999581167        2.55586432877910       -0.00137620308088
N           -1.26420364325764        1.04814659619779       -0.02918510109614
C           -2.21613115252740        2.14689429831337       -0.04660990551668
C           -1.81506270668127       -0.19770774178555       -0.04597499654751
O           -3.01368518991812       -0.38388411255013       -0.06964194522414
N           -0.93776862495162       -1.30154806489228       -0.03819507434166
C           -1.47690436275064       -2.64105713752502       -0.06016945175393
H            3.69272165133586        1.31521399323187        1.08479606879089
H            4.04155818943191        1.02254217477741       -0.63560494629758
H            2.69604294973701        2.09149524423083       -0.15029894037666
H            3.57755740781339       -1.66697839629409        0.03097774060727
H           -1.65305616634227        3.07744524721980       -0.02132281871460
H           -2.82086728662927        2.09529923492899       -0.95136506637438
H           -2.87413370259491        2.07565932280604        0.81892168222254
H           -1.17645712262918       -3.19518028067402        0.83204417767168
H           -1.15305102471398       -3.17530865894882       -0.95638144593230
H           -2.56207460065156       -2.54768005806422       -0.07306533589634
H            1.36518762787111       -2.94744400187802       -0.02544788258570
25
 energy: -43.839622475452 gnorm: 0.003726215173 xtb: 6.6.1 (8d0f1dd)
C            3.24578256248156        1.18454198396352        0.09702409911140
N            2.31587729825196        0.10062087399380        0.05014148481536
C            2.60493625898868       -1.24585462480822        0.03125748893824
N            1.42105468328860       -1.94289056823378       -0.00639641526349
C            0.40110585602165       -1.06305058362983       -0.01333313534177
C            0.92701866850410        0.22158213354343        0.01099751936805
C            0.11869915967607        1.38336898140947       -0.00843999757388
O            0.50083439097421        2.55692524963532       -0.00923636443601
N           -1.26457831550826        1.04940064108782       -0.03212944242721
C           -2.21703909092575        2.14864310399224       -0.04629647352433
C           -1.81605040105389       -0.19694386462951       -0.04685882147769
O           -3.01515118430341       -0.38265742993645       -0.06768869927142
N           -0.93841694117878       -1.30152545974429       -0.03896588363919
C           -1.47591042380694       -2.64279379717251       -0.06056409756562
H            3.69828735495486        1.31381191162789        1.08626813874638
H            4.03907039761243        1.01854362003865       -0.63453692009359
H            2.69715298033318        2.09237909254154       -0.14556309349857
H            3.57844023100345       -1.66733094210287        0.02698463262401
H           -1.65851128912932        3.08205671146287       -0.02222445464256
H           -2.82559469162730        2.09776210224527       -0.94843530378810
H           -2.87268974004420        2.07732238154779        0.82092247064506
H           -1.17418282831645       -3.19763879222978        0.83081654269931
H           -1.15189946476451       -3.17805957160426       -0.95616161407489
H           -2.56147536415992       -2.55352799955891       -0.07290151520905
H            1.36442646434967       -2.94707200776905       -0.02487161234929
25
 energy: -43.839626959194 gnorm: 0.002753461839 xtb: 6.6.1 (8d0f1dd)
C            3.24529908375810        1.18458359863181        0.09583725955660
N            2.31480959013198        0.10150673868937        0.04836529634978
C            2.60467721005943       -1.24537463502864        0.02962945852646
N            1.42090366626161       -1.94312544770756       -0.00535327217198
C            0.40097252257317       -1.06383151648201       -0.01494701769613
C            0.92575143009626        0.22146974265010        0.00987560097606
C            0.11894488832644        1.38188539157271       -0.00608633144017
O            0.49983642872141        2.55618804232651       -0.00390313070638
N           -1.26519882604313        1.04807050970022       -0.03066078309018
C           -2.21560036822971        2.14886201533340       -0.04632009300421
C           -1.81599996362935       -0.19775542927625       -0.04686935106415
O           -3.01524015423294       -0.38376679509353       -0.06764973701790
N           -0.93877442187108       -1.30231093530899       -0.03977272479657
C           -1.47624577275844       -2.64311294997971       -0.06089760592035
H            3.69979184291407        1.31421687061057        1.08432209691540
H            4.03737603047130        1.01883625204453       -0.63681820690276
H            2.69673115113535        2.09248528614874       -0.14464260718285
H            3.57805646168340       -1.66490248715052        0.02635228319445
H           -1.65700601169124        3.08257823581039       -0.02031386912885
H           -2.82058520917109        2.09857310841794       -0.95086949781724
H           -2.87425764963579        2.07766824225902        0.81867886765060
H           -1.17499068804105       -3.19757849030402        0.83111277686163
H           -1.15158386017640       -3.17742532650630       -0.95694243594247
H           -2.56165627911103       -2.55264399110075       -0.07384293379981
H            1.36517547008041       -2.94748288458688       -0.01847550957786
25
 energy: -43.839635829805 gnorm: 0.001977728806 xtb: 6.6.1 (8d0f1dd)
C            3.24559918954327        1.18411750001441        0.09659067444062
N            2.31491973147406        0.10124649950472        0.04759220684578
C            2.60432922714055       -1.24558577669368        0.02965198981382
N            1.42075867023961       -1.94303866612282       -0.00782128032599
C            0.40107082007227       -1.06371847267710       -0.01588314945042
C            0.92578132702095        0.22166744270923        0.00840795640941
C            0.11927736970556        1.38198125686537       -0.00773721055535
O            0.49936396350380        2.55634628221202       -0.00644011309851
N           -1.26526480893723        1.04795670579499       -0.03104207704284
C           -2.21602754223754        2.14799273490600       -0.04605523518584
C           -1.81566818894434       -0.19761168891388       -0.04619569891474
O           -3.01470807123546       -0.38385225680647       -0.06704196012283
N           -0.93850529220117       -1.30189039132508       -0.03961239806796
C           -1.47622260485846       -2.64224850477776       -0.06014197036600
H            3.69672462081876        1.31417004098687        1.08651345350584
H            4.04011670048125        1.01936994425888       -0.63385150529470
H            2.69764625117446        2.09171950713235       -0.14548841188225
H            3.57744685252811       -1.66520950252194        0.02878588832572
H           -1.65673645628677        3.08132109421910       -0.02218329706178
H           -2.82304745943735        2.09641798870550       -0.94926257865301
H           -2.87264708477272        2.07710167941177        0.82060551259170
H           -1.17470558141548       -3.19617502467794        0.83209945556223
H           -1.15181042555383       -3.17625943219449       -0.95641155033432
H           -2.56153589152640       -2.55079075677561       -0.07272046906308
H            1.36503125532578       -2.94741505756430       -0.02254969930435
25
 energy: -43.839625712214 gnorm: 0.002736112940 xtb: 6.6.1 (8d0f1dd)
C            3.24585703180500        1.18419571800903        0.09531841934026
N            2.31580165016879        0.10027689251155        0.05011874095566
C            2.60418378294526       -1.24604299813115        0.03182692470250
N            1.42075754026492       -1.94281589675824       -0.00519323892864
C            0.40088552685559       -1.06333176066707       -0.01157372272413
C            0.92643273007146        0.22178339643414        0.01269605329160
C            0.11957179206499        1.38329871516649       -0.00580494186950
O            0.49998717550868        2.55703480041886       -0.00694203690271
N           -1.26513821074568        1.04909400541213       -0.03104157680402
C           -2.21694765962509        2.14831719051326       -0.04655456539742
C           -1.81586856164477       -0.19680291189715       -0.04651071323452
O           -3.01467609216077       -0.38273563813769       -0.07002905492737
N           -0.93840190593290       -1.30138854236304       -0.03778460657289
C           -1.47564145530980       -2.64255417853446       -0.06088930200971
H            3.69913816485886        1.31376571913095        1.08407145304936
H            4.03838106051272        1.01962484700797       -0.63752708904515
H            2.69675989797681        2.09164713851741       -0.14620407030993
H            3.57756723776546       -1.66714081165939        0.02760115376614
H           -1.65724820786233        3.08111336690405       -0.02139096644876
H           -2.82444690825358        2.09815198987057       -0.94963006938168
H           -2.87387215304041        2.07696969313516        0.81985089594114
H           -1.17457800731665       -3.19778261525874        0.83045835238277
H           -1.15047094512004       -3.17668493017778       -0.95672675870710
H           -2.56114676810288       -2.55324647110829       -0.07432323664151
H            1.36429985593803       -2.94713357266843       -0.02400751075326
25
 energy: -43.839639880759 gnorm: 0.001351196998 xtb: 6.6.1 (8d0f1dd)
C            3.24544548741996        1.18462143725587        0.09614604953370
N            2.31566217566219        0.10063970790234        0.04907350319245
C            2.60453570062737       -1.24570516425211        0.03041862071368
N            1.42118568869982       -1.94290282466907       -0.00586496632122
C            0.40102356501314       -1.06369982059865       -0.01369682442178
C            0.92627066743491        0.22159170360754        0.01077254584103
C            0.11966137648334        1.38280892745203       -0.00672662132434
O            0.49999747636639        2.55669993259405       -0.00631816326911
N           -1.26515273678698        1.04863506048734       -0.03130070289335
C           -2.21629693129560        2.14849318073737       -0.04644948793226
C           -1.81590906198603       -0.19722179370101       -0.04689594043103
O           -3.01485322921725       -0.38323904534429       -0.06823979860536
N           -0.93843533808646       -1.30185807980486       -0.03907714041424
C           -1.47619208714523       -2.64283901486262       -0.06060529536889
H            3.69814866808926        1.31389554587877        1.08529519122436
H            4.03857704994664        1.01970360440448       -0.63583294244298
H            2.69668928407128        2.09227544460938       -0.14541015969828
H            3.57810188582317       -1.66621332762418        0.02668871288626
H           -1.65691311452945        3.08157149925620       -0.02098474388976
H           -2.82297718389097        2.09845326646626       -0.95000847861552
H           -2.87376056619731        2.07728706511999        0.81953524662305
H           -1.17469441050901       -3.19747295294267        0.83102177017331
H           -1.15225051929710       -3.17784947009049       -0.95640452406237
H           -2.56166228559504       -2.55280087409346       -0.07306127428849
H            1.36498501052062       -2.94726086211809       -0.02226604343772
25
 energy: -43.834875022289 gnorm: 0.085528816315 xtb: 6.6.1 (8d0f1dd)
C            3.25100668457625        1.20333385625285        0.12609392261832
N            2.33627761421393        0.08536206110305        0.06048741961322
C            2.59527354382038       -1.24537036841563        0.01944709024551
N            1.42493072075675       -1.95244901547620       -0.01440191267025
C            0.39410249356662       -1.07030110122091       -0.02101199376639
C            0.93646262406195        0.19921791037829       -0.00446393041078
C            0.10463045835131        1.39004143386658       -0.00994884174312
O            0.51332337058980        2.54523374828162       -0.00771301038520
N           -1.25290936355493        1.05114676884845       -0.03054160243118
C           -2.21196517508584        2.14873852024692       -0.04297481095629
C           -1.82259716397268       -0.20352384081020       -0.04523558838357
O           -3.01240945779149       -0.37923200754208       -0.06543743643473
N           -0.93582409400629       -1.30716419978450       -0.04016706476124
C           -1.48151393881640       -2.64732239288250       -0.06034163004840
H            3.68810763434666        1.43639080295738        1.10279811343629
H            4.06258050501062        0.99556175313775       -0.59733390284116
H            2.69842939814618        2.07693687699021       -0.19747632436562
H            3.57087439875692       -1.67732909327363        0.01318870234179
H           -1.65701217648331        3.08388055950974       -0.01832417851475
H           -2.81772409834255        2.09959341645581       -0.94385182108312
H           -2.86747403411798        2.07513360335605        0.82417122617945
H           -1.18319006008973       -3.20033850503583        0.83119262768033
H           -1.16149586893085       -3.18003935383410       -0.95706657079719
H           -2.56711175873183       -2.55267067246360       -0.07155554390569
H            1.35837901298734       -2.95617498391285       -0.03087354285220
25
 energy: -43.837774649545 gnorm: 0.035722339273 xtb: 6.6.1 (8d0f1dd)
C            3.24645012762977        1.19964847719573        0.10149966903804
N            2.33022385550744        0.09716066906662        0.05653072046532
C            2.60683114628648       -1.24955709941098        0.02947153033888
N            1.42347674866559       -1.94750458608152       -0.00954225533369
C            0.40107963491134       -1.06129967663850       -0.01756858955027
C            0.93467239984809        0.21490310854376        0.00754221677738
C            0.11097173852964        1.38497385989264       -0.00656030018287
O            0.50387991325557        2.55392816351696       -0.00895864471912
N           -1.25788566946163        1.04452814526229       -0.02992639404171
C           -2.21227280091248        2.14387682200890       -0.04294556169710
C           -1.82181649935375       -0.20291384267894       -0.04567778413514
O           -3.01926968660730       -0.38344796258359       -0.06540550565110
N           -0.93633550509921       -1.30206892560681       -0.04115925831378
C           -1.47847503220103       -2.64176994471004       -0.06148939869257
H            3.66206372430178        1.38083451654811        1.09880662781226
H            4.07126113615756        1.00934246831208       -0.59632078737183
H            2.69615571601656        2.08721798801903       -0.20229305290036
H            3.57951536106944       -1.68508960361093        0.01940412009728
H           -1.64428090638515        3.07157463474976       -0.01690120671538
H           -2.81961218163252        2.09861864192515       -0.94591117981354
H           -2.86824984191543        2.07550227401157        0.82468540575945
H           -1.17741298088372       -3.19567842685728        0.83019594567457
H           -1.15607838768597       -3.17695735578489       -0.95712293532356
H           -2.56398293396645       -2.54685582669032       -0.07292496436655
H            1.35224219318618       -2.95031074166609       -0.02876902139057
25
 energy: -43.838526066168 gnorm: 0.014908732636 xtb: 6.6.1 (8d0f1dd)
C            3.24741733162005        1.19955061615913        0.10809126360773
N            2.32601424068051        0.10201562515445        0.07600263321047
C            2.61255427470105       -1.25394539011770        0.03425518757356
N            1.42237844612784       -1.94934635658197       -0.01561644792385
C            0.40461288414181       -1.06404189659241       -0.02016175237114
C            0.93394235984194        0.21803932300579        0.01401929791274
C            0.12262660772970        1.37595642270425       -0.01083300610167
O            0.50922671165784        2.55129097853603       -0.00973906416050
N           -1.25844870830016        1.04272047768687       -0.03325717592873
C           -2.21076297022508        2.14530601380963       -0.04317995407288
C           -1.81657589320926       -0.20080005931269       -0.04746406454296
O           -3.01821450213850       -0.38160024364731       -0.06452043581548
N           -0.93889692276791       -1.30406218954102       -0.04407765933808
C           -1.48375147012805       -2.64354830246253       -0.06053296777741
H            3.67749948860285        1.41850123807250        1.09450942758230
H            4.06228456096496        0.99986699061647       -0.58720174573742
H            2.69433330501287        2.08257376611211       -0.20359994722506
H            3.58195684759880       -1.68640477231788        0.00725364648977
H           -1.65244141311641        3.07942288858428       -0.01822450467035
H           -2.82104027398436        2.09885815127052       -0.94497805823497
H           -2.86673331952431        2.07467199690031        0.82420426172909
H           -1.18409880258693       -3.20068064730995        0.83092277201660
H           -1.16537651068278       -3.18347698291733       -0.95559913982171
H           -2.56927421554880       -2.54959910284073       -0.06997787048372
H            1.35391921279313       -2.95261276823814       -0.04163530015228
25
 energy: -43.838694365306 gnorm: 0.008725951292 xtb: 6.6.1 (8d0f1dd)
C            3.25083793655508        1.19483851274923        0.10838947202951
N            2.32393232220996        0.10079940050502        0.06389163630178
C            2.60758868750489       -1.25344527900960        0.02586876877617
N            1.41873591203707       -1.94875939339929       -0.01374341860923
C            0.40188918547517       -1.06522028836231       -0.02440439020767
C            0.93129783713914        0.21782583803606        0.00191610977960
C            0.12058883774883        1.37670912948180       -0.01169859668269
O            0.50301457038644        2.55202513458729       -0.00953442081437
N           -1.26306700242745        1.04454849127570       -0.03083470676410
C           -2.21283105898257        2.14773450587959       -0.04161080344977
C           -1.81761626361828       -0.20001438636242       -0.04521324004652
O           -3.01778982203033       -0.38304730501266       -0.06338523011403
N           -0.94034975408407       -1.30364918440214       -0.04274010189924
C           -1.47907661021077       -2.64414624884600       -0.06144618615788
H            3.67924713221594        1.40877615827335        1.09931584132785
H            4.06376692831837        0.99980814298066       -0.59420957774857
H            2.70152624681009        2.08250903156533       -0.19570875023821
H            3.57587127578562       -1.68352454791861        0.01214345416228
H           -1.65180870032756        3.08001709607920       -0.01644514108285
H           -2.81988121663798        2.10134806632392       -0.94499338169647
H           -2.87006415230780        2.07726426500832        0.82481225993925
H           -1.17696422966374       -3.19946659434804        0.83010563555912
H           -1.15457916391368       -3.17787614394138       -0.95798721947054
H           -2.56458161255036       -2.55356988105113       -0.07340864011373
H            1.35346398382881       -2.95282874335923       -0.02041997701567
25
 energy: -43.838745930632 gnorm: 0.006054644857 xtb: 6.6.1 (8d0f1dd)
C            3.24775244794424        1.19710574493833        0.10716414610051
N            2.32566641016982        0.09891064402091        0.06238034610367
C            2.60855880052448       -1.25291398873701        0.02632863136389
N            1.42135794665763       -1.94887878017688       -0.01758583113418
C            0.40280101978234       -1.06778981905269       -0.02156224025130
C            0.93245281555043        0.21531381619627        0.00387836690036
C            0.12247110830809        1.37701148888015       -0.00656287654151
O            0.50415354766529        2.55115638385167       -0.00580145752635
N           -1.26176990121998        1.04443941748720       -0.02933839540687
C           -2.21116235215389        2.14576996679850       -0.04316276049135
C           -1.81580719078453       -0.20040087618128       -0.04469443740736
O           -3.01494601454323       -0.38400379465356       -0.06658526159657
N           -0.93882940582283       -1.30430414542750       -0.04005718259320
C           -1.48215499415146       -2.64252412053361       -0.05945174203659
H            3.66910854612347        1.40844776903609        1.10145078144757
H            4.06556998313076        1.00522387255964       -0.59390423877351
H            2.69563108081534        2.08249406967123       -0.20068534868340
H            3.57814628228780       -1.68134815434855        0.01597946680273
H           -1.64725982779345        3.07591169654347       -0.01873477768929
H           -2.81750041203497        2.09778833112515       -0.94669868885032