      -----------------------------------------------------------      
     |                   =====================                   |     
     |                           x T B                           |     
     |                   =====================                   |     
     |                         S. Grimme                         |     
     |          Mulliken Center for Theoretical Chemistry        |     
     |                    University of Bonn                     |     
      -----------------------------------------------------------      

   * xtb version 6.6.1 (8d0f1dd) compiled by 'conda@1efc2f54142f' on 2023-08-01

   xtb is free software: you can redistribute it and/or modify it under
   the terms of the GNU Lesser General Public License as published by
   the Free Software Foundation, either version 3 of the License, or
   (at your option) any later version.
   
   xtb is distributed in the hope that it will be useful,
   but WITHOUT ANY WARRANTY; without even the implied warranty of
   MERCHANTABILITY or FITNESS FOR A PARTICULAR PURPOSE.  See the
   GNU Lesser General Public License for more details.
   
   Cite this work as:
   * C. Bannwarth, E. Caldeweyher, S. Ehlert, A. Hansen, P. Pracht,
     J. Seibert, S. Spicher, S. Grimme, WIREs Comput. Mol. Sci., 2020, 11,
     e01493. DOI: 10.1002/wcms.1493
   
   for GFN2-xTB:
   * C. Bannwarth, S. Ehlert and S. Grimme., J. Chem. Theory Comput., 2019,
     15, 1652-1671. DOI: 10.1021/acs.jctc.8b01176
   for GFN1-xTB:
   * S. Grimme, C. Bannwarth, P. Shushkov, J. Chem. Theory Comput., 2017,
     13, 1989-2009. DOI: 10.1021/acs.jctc.7b00118
   for GFN0-xTB:
   * P. Pracht, E. Caldeweyher, S. Ehlert, S. Grimme, ChemRxiv, 2019, preprint.
     DOI: 10.26434/chemrxiv.8326202.v1
   for GFN-FF:
   * S. Spicher and S. Grimme, Angew. Chem. Int. Ed., 2020, 59, 15665-15673.
     DOI: 10.1002/anie.202004239
   
   for ALPB and GBSA implicit solvation:
   * S. Ehlert, M. Stahn, S. Spicher, S. Grimme, J. Chem. Theory Comput.,
     2021, 17, 4250-4261. DOI: 10.1021/acs.jctc.1c00471
   
   for DFT-D4:
   * E. Caldeweyher, C. Bannwarth and S. Grimme, J. Chem. Phys., 2017,
     147, 034112. DOI: 10.1063/1.4993215
   * E. Caldeweyher, S. Ehlert, A. Hansen, H. Neugebauer, S. Spicher,
     C. Bannwarth and S. Grimme, J. Chem. Phys., 2019, 150, 154122.
     DOI: 10.1063/1.5090222
   * E. Caldeweyher, J.-M. Mewes, S. Ehlert and S. Grimme, Phys. Chem. Chem. Phys.
     2020, 22, 8499-8512. DOI: 10.1039/D0CP00502A
   
   for sTDA-xTB:
   * S. Grimme and C. Bannwarth, J. Chem. Phys., 2016, 145, 054103.
     DOI: 10.1063/1.4959605
   
   in the mass-spec context:
   * V. Asgeirsson, C. Bauer and S. Grimme, Chem. Sci., 2017, 8, 4879.
     DOI: 10.1039/c7sc00601b
   * J. Koopman and S. Grimme, ACS Omega 2019, 4, 12, 15120-15133.
     DOI: 10.1021/acsomega.9b02011
   
   for metadynamics refer to:
   * S. Grimme, J. Chem. Theory Comput., 2019, 155, 2847-2862
     DOI: 10.1021/acs.jctc.9b00143
   
   for SPH calculations refer to:
   * S. Spicher and S. Grimme, J. Chem. Theory Comput., 2021, 17, 1701-1714
     DOI: 10.1021/acs.jctc.0c01306
   
   with help from (in alphabetical order)
   P. Atkinson, C. Bannwarth, F. Bohle, G. Brandenburg, E. Caldeweyher
   M. Checinski, S. Dohm, S. Ehlert, S. Ehrlich, I. Gerasimov, C. Hölzer
   A. Katbashev, J. Koopman, C. Lavigne, S. Lehtola, F. März, M. Müller,
   F. Musil, H. Neugebauer, J. Pisarek, C. Plett, P. Pracht, F. Pultar,
   J. Seibert, P. Shushkov, S. Spicher, M. Stahn, M. Steiner, T. Strunk,
   J. Stückrath, T. Rose, and J. Unsleber
   
 * started run on 2024/06/05 at 19:58:58.682     

           -------------------------------------------------
          |                Calculation Setup                |
           -------------------------------------------------

          program call               : xtb struc.xyz --opt loose --input .xc1 --gfn2
          hostname                   : n-62-29-9
          coordinate file            : struc.xyz
          omp threads                :                     1

   ID    Z sym.   atoms
    1    6 C      1, 3, 5-7, 10, 11, 14
    2    7 N      2, 4, 9, 13
    3    8 O      8, 12
    4    1 H      15-25
constraining bond 7 16 to    4.7133300 Å, actual value:    3.9875359 Å

           -------------------------------------------------
          |                 G F N 2 - x T B                 |
           -------------------------------------------------

        Reference                      10.1021/acs.jctc.8b01176
      * Hamiltonian:
        H0-scaling (s, p, d)           1.850000    2.230000    2.230000
        zeta-weighting                 0.500000
      * Dispersion:
        s8                             2.700000
        a1                             0.520000
        a2                             5.000000
        s9                             5.000000
      * Repulsion:
        kExp                           1.500000    1.000000
        rExp                           1.000000
      * Coulomb:
        alpha                          2.000000
        third order                    shell-resolved
        anisotropic                    true
        a3                             3.000000
        a5                             4.000000
        cn-shift                       1.200000
        cn-exp                         4.000000
        max-rad                        5.000000


          ...................................................
          :                      SETUP                      :
          :.................................................:
          :  # basis functions                  67          :
          :  # atomic orbitals                  67          :
          :  # shells                           39          :
          :  # electrons                        74          :
          :  max. iterations                   250          :
          :  Hamiltonian                  GFN2-xTB          :
          :  restarted?                      false          :
          :  GBSA solvation                  false          :
          :  PC potential                    false          :
          :  electronic temp.         7500.0000000     K    :
          :  accuracy                    1.0000000          :
          :  -> integral cutoff          0.2500000E+02      :
          :  -> integral neglect         0.1000000E-07      :
          :  -> SCF convergence          0.1000000E-05 Eh   :
          :  -> wf. convergence          0.1000000E-03 e    :
          :  Broyden damping             0.4000000          :
          ...................................................

 iter      E             dE          RMSdq      gap      omega  full diag
   1    -42.5960780 -0.425961E+02  0.440E+00    3.52       0.0  T
   2    -42.7780033 -0.181925E+00  0.248E+00    3.37       1.0  T
   3    -42.7871777 -0.917437E-02  0.149E+00    3.50       1.0  T
   4    -42.7817164  0.546128E-02  0.642E-01    3.42       1.0  T
   5    -42.7911189 -0.940247E-02  0.115E-01    3.49       1.0  T
   6    -42.7912109 -0.920486E-04  0.685E-02    3.46       1.0  T
   7    -42.7912647 -0.537856E-04  0.265E-02    3.48       1.0  T
   8    -42.7912686 -0.385526E-05  0.113E-02    3.47       1.8  T
   9    -42.7912697 -0.111307E-05  0.441E-03    3.47       4.5  T
  10    -42.7912698 -0.733569E-07  0.139E-03    3.47      14.4  T
  11    -42.7912698 -0.243437E-08  0.602E-04    3.47      33.2  T
  12    -42.7912698 -0.222032E-08  0.181E-04    3.47     110.6  T

   *** convergence criteria satisfied after 12 iterations ***

         #    Occupation            Energy/Eh            Energy/eV
      -------------------------------------------------------------
         1        2.0000           -0.9116047             -24.8060
       ...           ...                  ...                  ...
        31        1.9942           -0.6212459             -16.9050
        32        1.9930           -0.6166804             -16.7807
        33        1.9876           -0.6031136             -16.4116
        34        1.9710           -0.5827317             -15.8569
        35        1.9403           -0.5651917             -15.3796
        36        1.9387           -0.5645672             -15.3627
        37        1.9155           -0.5566412             -15.1470 (HOMO)
        38        0.1907           -0.4290919             -11.6762 (LUMO)
        39        0.0640           -0.4015676             -10.9272
        40        0.0206           -0.3740689             -10.1789
        41        0.0006           -0.2879107              -7.8344
        42        0.0000           -0.2065811              -5.6214
       ...           ...                  ...                  ...
        67                          0.5613577              15.2753
      -------------------------------------------------------------
                  HL-Gap            0.1275493 Eh            3.4708 eV
             Fermi-level           -0.4825284 Eh          -13.1303 eV

 SCC (total)                   0 d,  0 h,  0 min,  0.036 sec
 SCC setup                      ...        0 min,  0.000 sec (  0.642%)
 Dispersion                     ...        0 min,  0.000 sec (  0.831%)
 classical contributions        ...        0 min,  0.000 sec (  0.215%)
 integral evaluation            ...        0 min,  0.006 sec ( 15.498%)
 iterations                     ...        0 min,  0.018 sec ( 50.442%)
 molecular gradient             ...        0 min,  0.012 sec ( 31.907%)
 printout                       ...        0 min,  0.000 sec (  0.431%)

         :::::::::::::::::::::::::::::::::::::::::::::::::::::
         ::                     SUMMARY                     ::
         :::::::::::::::::::::::::::::::::::::::::::::::::::::
         :: total energy             -43.200627721688 Eh    ::
         :: gradient norm              1.945510623372 Eh/a0 ::
         :: HOMO-LUMO gap              3.470793873671 eV    ::
         ::.................................................::
         :: SCC energy               -42.791269777655 Eh    ::
         :: -> isotropic ES            0.136760385929 Eh    ::
         :: -> anisotropic ES         -0.005341405309 Eh    ::
         :: -> anisotropic XC          0.011501049227 Eh    ::
         :: -> dispersion             -0.022650340738 Eh    ::
         :: repulsion energy           0.531105277918 Eh    ::
         :: add. restraining          -0.940577380959 Eh    ::
         :: total charge               1.000000000010 e     ::
         :::::::::::::::::::::::::::::::::::::::::::::::::::::

      ----------------------------------------------------------- 
     |                   =====================                   |
     |                        A N C O P T                        |
     |                   =====================                   |
     |               Approximate Normal Coordinate               |
     |                Rational Function Optimizer                |
      ----------------------------------------------------------- 

          ...................................................
          :                      SETUP                      :
          :.................................................:
          :   optimization level             loose          :
          :   max. optcycles                   200          :
          :   ANC micro-cycles                  20          :
          :   degrees of freedom                69          :
          :.................................................:
          :   RF solver                   davidson          :
          :   write xtbopt.log                true          :
          :   linear?                        false          :
          :   energy convergence         0.5000000E-04 Eh   :
          :   grad. convergence          0.4000000E-02 Eh/α :
          :   maxmium RF displ.          1.0000000          :
          :   Hlow (freq-cutoff)         0.1000000E-01      :
          :   Hmax (freq-cutoff)         5.0000000          :
          :   S6 in model hess.         20.0000000          :
          ...................................................

generating ANC from model Hessian ...
Using Lindh-Hessian (1995)
 Shifting diagonal of input Hessian by    1.4870517615212524     
 Lowest  eigenvalues of input Hessian
    0.010000    0.000000    0.000000    0.000000    0.000000    0.000000
    0.000000    1.490280    1.492587    1.496487    1.497865    1.498716
    1.499780    1.505394    1.507258    1.513767    1.521097    1.529018
 Highest eigenvalues
    3.569397    3.636952    3.714012    3.773991    3.962963    4.053751


........................................................................
.............................. CYCLE    1 ..............................
........................................................................

 iter      E             dE          RMSdq      gap      omega  full diag
   1    -42.7912698 -0.427913E+02  0.838E-05    3.47       0.0  T
   2    -42.7912698 -0.247127E-10  0.452E-05    3.47     442.9  T
   3    -42.7912698 -0.149214E-11  0.279E-05    3.47     715.8  T
     SCC iter.                  ...        0 min,  0.005 sec
     gradient                   ...        0 min,  0.011 sec
 * total energy  :   -43.2006277 Eh     change       -0.2401990E-09 Eh
   gradient norm :     1.9455106 Eh/α   predicted     0.0000000E+00 (-100.00%)
   displ. norm   :     0.9876530 α      lambda       -0.1896221E+01
   maximum displ.:     0.9804349 α      in ANC's #1, #61, #50, ...

........................................................................
.............................. CYCLE    2 ..............................
........................................................................

 iter      E             dE          RMSdq      gap      omega  full diag
   1    -42.7757949 -0.427758E+02  0.128E+00    3.14       0.0  T
   2    -42.7853269 -0.953205E-02  0.777E-01    2.47       1.0  T
   3    -42.7884380 -0.311103E-02  0.423E-01    2.85       1.0  T
   4    -42.7884529 -0.149229E-04  0.198E-01    2.62       1.0  T
   5    -42.7894450 -0.992153E-03  0.361E-02    2.71       1.0  T
   6    -42.7894572 -0.121956E-04  0.162E-02    2.72       1.2  T
   7    -42.7894582 -0.925432E-06  0.621E-03    2.72       3.2  T
   8    -42.7894586 -0.473963E-06  0.166E-03    2.72      12.0  T
   9    -42.7894587 -0.522739E-07  0.758E-04    2.72      26.4  T
  10    -42.7894587 -0.301403E-08  0.279E-04    2.72      71.7  T
     SCC iter.                  ...        0 min,  0.014 sec
     gradient                   ...        0 min,  0.011 sec
 * total energy  :   -45.9150057 Eh     change       -0.2714378E+01 Eh
   gradient norm :     3.6171808 Eh/α   predicted    -0.1872953E+01 ( -31.00%)
   displ. norm   :     0.9906264 α      lambda       -0.3559977E+01
   maximum displ.:     0.9806737 α      in ANC's #1, #61, #62, ...

........................................................................
.............................. CYCLE    3 ..............................
........................................................................

 iter      E             dE          RMSdq      gap      omega  full diag
   1    -42.6561326 -0.426561E+02  0.134E+00    2.08       0.0  T
   2    -42.6574713 -0.133867E-02  0.892E-01    1.58       1.0  T
   3    -42.6596856 -0.221425E-02  0.592E-01    2.11       1.0  T
   4    -42.6639584 -0.427282E-02  0.243E-01    1.75       1.0  T
   5    -42.6655557 -0.159729E-02  0.424E-02    1.87       1.0  T
   6    -42.6655755 -0.198613E-04  0.222E-02    1.85       1.0  T
   7    -42.6655785 -0.301693E-05  0.802E-03    1.86       2.5  T
   8    -42.6655798 -0.127282E-05  0.306E-03    1.86       6.5  T
   9    -42.6655799 -0.126432E-06  0.136E-03    1.86      14.7  T
  10    -42.6655800 -0.207412E-07  0.580E-04    1.86      34.5  T
  11    -42.6655800 -0.320524E-08  0.238E-04    1.86      83.9  T
     SCC iter.                  ...        0 min,  0.016 sec
     gradient                   ...        0 min,  0.012 sec
 * total energy  :   -50.3954589 Eh     change       -0.4480453E+01 Eh
   gradient norm :     5.5808931 Eh/α   predicted    -0.3526937E+01 ( -21.28%)
   displ. norm   :     0.9905283 α      lambda       -0.5502719E+01
   maximum displ.:     0.9741970 α      in ANC's #1, #61, #69, ...

........................................................................
.............................. CYCLE    4 ..............................
........................................................................

 iter      E             dE          RMSdq      gap      omega  full diag
   1    -42.4272521 -0.424273E+02  0.117E+00    1.17       0.0  T
   2    -42.4276650 -0.412941E-03  0.915E-01    1.42       1.0  T
   3    -42.4439460 -0.162809E-01  0.499E-01    1.25       1.0  T
   4    -42.4444869 -0.540956E-03  0.223E-01    1.40       1.0  T
   5    -42.4458812 -0.139433E-02  0.157E-01    1.25       1.0  T
   6    -42.4466217 -0.740438E-03  0.463E-02    1.33       1.0  T
   7    -42.4466473 -0.255966E-04  0.176E-02    1.31       1.1  T
   8    -42.4466569 -0.965311E-05  0.582E-03    1.32       3.4  T
   9    -42.4466571 -0.174211E-06  0.246E-03    1.32       8.1  T
  10    -42.4466572 -0.540030E-07  0.143E-03    1.32      14.0  T
  11    -42.4466572 -0.404109E-07  0.480E-04    1.32      41.7  T
  12    -42.4466572 -0.267754E-08  0.153E-04    1.32     130.9  T
     SCC iter.                  ...        0 min,  0.017 sec
     gradient                   ...        0 min,  0.012 sec
 * total energy  :   -56.9155349 Eh     change       -0.6520076E+01 Eh
   gradient norm :     7.6321935 Eh/α   predicted    -0.5450971E+01 ( -16.40%)
   displ. norm   :     0.9922451 α      lambda       -0.7552704E+01
   maximum displ.:     0.9732952 α      in ANC's #1, #61, #69, ...

........................................................................
.............................. CYCLE    5 ..............................
........................................................................

 iter      E             dE          RMSdq      gap      omega  full diag
   1    -42.1629811 -0.421630E+02  0.217E+00    0.16       0.0  T
   2    -42.0702450  0.927361E-01  0.203E+00    0.68       1.0  T
   3    -42.1889905 -0.118746E+00  0.123E+00    0.22       1.0  T
   4    -42.2163194 -0.273289E-01  0.487E-01    0.51       1.0  T
   5    -42.2202912 -0.397186E-02  0.289E-01    0.38       1.0  T
   6    -42.2234775 -0.318626E-02  0.932E-02    0.53       1.0  T
   7    -42.2236423 -0.164761E-03  0.473E-02    0.49       1.0  T
   8    -42.2236975 -0.552742E-04  0.114E-02    0.50       1.8  T
   9    -42.2236993 -0.171201E-05  0.598E-03    0.49       3.3  T
  10    -42.2237003 -0.100693E-05  0.286E-03    0.50       7.0  T
  11    -42.2237004 -0.165717E-06  0.985E-04    0.50      20.3  T
  12    -42.2237004 -0.203986E-07  0.450E-04    0.50      44.4  T
     SCC iter.                  ...        0 min,  0.017 sec
     gradient                   ...        0 min,  0.011 sec
 * total energy  :   -65.4389014 Eh     change       -0.8523367E+01 Eh
   gradient norm :     9.5625643 Eh/α   predicted    -0.7494360E+01 ( -12.07%)
   displ. norm   :     0.9929432 α      lambda       -0.9477636E+01
   maximum displ.:     0.9695856 α      in ANC's #1, #52, #61, ...

........................................................................
.............................. CYCLE    6 ..............................
........................................................................

 iter      E             dE          RMSdq      gap      omega  full diag
   1    -42.0838630 -0.420839E+02  0.210E+00    0.01       0.0  T
   2    -41.9149605  0.168903E+00  0.263E+00    0.37       1.0  T
   3    -42.1020531 -0.187093E+00  0.133E+00    0.04       1.0  T
   4    -42.1409102 -0.388571E-01  0.692E-01    0.27       1.0  T
   5    -42.1431246 -0.221440E-02  0.465E-01    0.13       1.0  T
   6    -42.1519580 -0.883342E-02  0.985E-02    0.21       1.0  T
   7    -42.1522246 -0.266629E-03  0.391E-02    0.21       1.0  T
   8    -42.1522430 -0.183975E-04  0.175E-02    0.20       1.1  T
   9    -42.1522482 -0.512978E-05  0.638E-03    0.20       3.1  T
  10    -42.1522495 -0.135571E-05  0.215E-03    0.20       9.3  T
  11    -42.1522495 -0.168550E-07  0.110E-03    0.20      18.1  T
  12    -42.1522495 -0.234218E-07  0.506E-04    0.20      39.5  T
  13    -42.1522496 -0.466182E-08  0.199E-04    0.20     100.4  T
     SCC iter.                  ...        0 min,  0.018 sec
     gradient                   ...        0 min,  0.011 sec
 * total energy  :   -72.5536243 Eh     change       -0.7114723E+01 Eh
   gradient norm :     6.1783111 Eh/α   predicted    -0.9411058E+01 (  32.28%)
   displ. norm   :     0.3612001 α      lambda       -0.2160332E+01
   maximum displ.:     0.3095499 α      in ANC's #1, #41, #45, ...

........................................................................
.............................. CYCLE    7 ..............................
........................................................................

 iter      E             dE          RMSdq      gap      omega  full diag
   1    -42.1965376 -0.421965E+02  0.763E-01    0.18       0.0  T
   2    -42.1607060  0.358316E-01  0.121E+00    0.11       1.0  T
   3    -42.2119027 -0.511967E-01  0.297E-01    0.09       1.0  T
   4    -42.2080305  0.387219E-02  0.337E-01    0.18       1.0  T
   5    -42.2120246 -0.399414E-02  0.111E-01    0.10       1.0  T
   6    -42.2122665 -0.241809E-03  0.286E-02    0.12       1.0  T
   7    -42.2122783 -0.118160E-04  0.175E-02    0.11       1.1  T
   8    -42.2122851 -0.678758E-05  0.494E-03    0.11       4.0  T
   9    -42.2122854 -0.332933E-06  0.218E-03    0.11       9.2  T
  10    -42.2122854 -0.338600E-08  0.138E-03    0.11      14.5  T
  11    -42.2122854 -0.393455E-07  0.505E-04    0.11      39.6  T
  12    -42.2122854 -0.490442E-08  0.194E-04    0.11     103.3  T
     SCC iter.                  ...        0 min,  0.017 sec
     gradient                   ...        0 min,  0.011 sec
 * total energy  :   -71.5734316 Eh     change        0.9801927E+00 Eh
   gradient norm :     7.8163745 Eh/α   predicted    -0.1221098E+01 (-224.58%)
   displ. norm   :     0.2139990 α      lambda       -0.1483949E+01
   maximum displ.:     0.1772176 α      in ANC's #1, #33, #52, ...

........................................................................
.............................. CYCLE    8 ..............................
........................................................................

 iter      E             dE          RMSdq      gap      omega  full diag
   1    -42.2215401 -0.422215E+02  0.348E-01    0.09       0.0  T
   2    -42.2177242  0.381594E-02  0.413E-01    0.22       1.0  T
   3    -42.2224059 -0.468175E-02  0.199E-01    0.10       1.0  T
   4    -42.2229744 -0.568510E-03  0.115E-01    0.14       1.0  T
   5    -42.2231240 -0.149541E-03  0.487E-02    0.13       1.0  T
   6    -42.2232373 -0.113265E-03  0.119E-02    0.13       1.7  T
   7    -42.2232421 -0.482818E-05  0.446E-03    0.13       4.5  T
   8    -42.2232422 -0.116219E-06  0.180E-03    0.13      11.1  T
   9    -42.2232423 -0.533436E-07  0.713E-04    0.13      28.1  T
  10    -42.2232423 -0.109133E-07  0.348E-04    0.13      57.4  T
     SCC iter.                  ...        0 min,  0.014 sec
     gradient                   ...        0 min,  0.011 sec
 * total energy  :   -72.7157684 Eh     change       -0.1142337E+01 Eh
   gradient norm :     3.5798188 Eh/α   predicted    -0.7759538E+00 ( -32.07%)
   displ. norm   :     0.3417327 α      lambda       -0.7049931E+00
   maximum displ.:     0.2352595 α      in ANC's #1, #41, #45, ...

........................................................................
.............................. CYCLE    9 ..............................
........................................................................

 iter      E             dE          RMSdq      gap      omega  full diag
   1    -42.2712549 -0.422713E+02  0.505E-01    0.07       0.0  T
   2    -42.2662518  0.500308E-02  0.450E-01    0.03       1.0  T
   3    -42.2715023 -0.525049E-02  0.317E-01    0.10       1.0  T
   4    -42.2735148 -0.201255E-02  0.161E-01    0.04       1.0  T
   5    -42.2741596 -0.644769E-03  0.635E-02    0.07       1.0  T
   6    -42.2743012 -0.141615E-03  0.233E-02    0.06       1.0  T
   7    -42.2743173 -0.160603E-04  0.629E-03    0.06       3.2  T
   8    -42.2743173 -0.308199E-07  0.195E-03    0.06      10.3  T
   9    -42.2743174 -0.885520E-07  0.755E-04    0.06      26.5  T
  10    -42.2743174 -0.244923E-08  0.392E-04    0.06      51.0  T
     SCC iter.                  ...        0 min,  0.014 sec
     gradient                   ...        0 min,  0.011 sec
 * total energy  :   -72.8088637 Eh     change       -0.9309526E-01 Eh
   gradient norm :     4.5352783 Eh/α   predicted    -0.3936636E+00 ( 322.86%)
   displ. norm   :     0.4602373 α      lambda       -0.6034355E+00
   maximum displ.:     0.2292132 α      in ANC's #45, #41, #42, ...

........................................................................
.............................. CYCLE   10 ..............................
........................................................................

 iter      E             dE          RMSdq      gap      omega  full diag
   1    -42.3311783 -0.423312E+02  0.664E-01    0.06       0.0  T
   2    -42.3193149  0.118633E-01  0.707E-01    0.18       1.0  T
   3    -42.3348127 -0.154978E-01  0.351E-01    0.06       1.0  T
   4    -42.3364811 -0.166838E-02  0.202E-01    0.11       1.0  T
   5    -42.3371568 -0.675751E-03  0.741E-02    0.07       1.0  T
   6    -42.3373426 -0.185781E-03  0.300E-02    0.09       1.0  T
   7    -42.3373647 -0.220355E-04  0.131E-02    0.09       1.5  T
   8    -42.3373656 -0.928573E-06  0.590E-03    0.09       3.4  T
   9    -42.3373661 -0.545573E-06  0.177E-03    0.09      11.3  T
  10    -42.3373662 -0.596102E-07  0.958E-04    0.09      20.9  T
  11    -42.3373662 -0.106929E-07  0.331E-04    0.09      60.5  T
     SCC iter.                  ...        0 min,  0.016 sec
     gradient                   ...        0 min,  0.011 sec
 * total energy  :   -72.5277834 Eh     change        0.2810803E+00 Eh
   gradient norm :     5.5164146 Eh/α   predicted    -0.3656293E+00 (-230.08%)
   displ. norm   :     0.3393475 α      lambda       -0.1163478E+01
   maximum displ.:     0.1989581 α      in ANC's #45, #1, #42, ...

........................................................................
.............................. CYCLE   11 ..............................
........................................................................

 iter      E             dE          RMSdq      gap      omega  full diag
   1    -42.3365640 -0.423366E+02  0.652E-01    0.08       0.0  T
   2    -42.3214311  0.151329E-01  0.787E-01    0.28       1.0  T
   3    -42.3397609 -0.183298E-01  0.318E-01    0.08       1.0  T
   4    -42.3403038 -0.542972E-03  0.151E-01    0.07       1.0  T
   5    -42.3407660 -0.462140E-03  0.622E-02    0.08       1.0  T
   6    -42.3408956 -0.129579E-03  0.203E-02    0.07       1.0  T
   7    -42.3409000 -0.442937E-05  0.106E-02    0.07       1.9  T
   8    -42.3409028 -0.278500E-05  0.335E-03    0.07       6.0  T
   9    -42.3409029 -0.132294E-06  0.168E-03    0.07      11.9  T
  10    -42.3409029 -0.329900E-07  0.621E-04    0.07      32.2  T
  11    -42.3409029 -0.651379E-08  0.235E-04    0.07      84.9  T
     SCC iter.                  ...        0 min,  0.015 sec
     gradient                   ...        0 min,  0.011 sec
 * total energy  :   -73.0078874 Eh     change       -0.4801040E+00 Eh
   gradient norm :     0.5855697 Eh/α   predicted    -0.6487294E+00 (  35.12%)
   displ. norm   :     0.2534758 α      lambda       -0.6612020E-01
   maximum displ.:     0.0753172 α      in ANC's #50, #33, #1, ...

........................................................................
.............................. CYCLE   12 ..............................
........................................................................

 iter      E             dE          RMSdq      gap      omega  full diag
   1    -42.3881834 -0.423882E+02  0.436E-01    0.13       0.0  T
   2    -42.3854093  0.277409E-02  0.328E-01    0.15       1.0  T
   3    -42.3836587  0.175060E-02  0.402E-01    0.25       1.0  T
   4    -42.3882759 -0.461716E-02  0.156E-01    0.09       1.0  T
   5    -42.3892251 -0.949236E-03  0.460E-02    0.09       1.0  T
   6    -42.3892673 -0.421975E-04  0.145E-02    0.09       1.4  T
   7    -42.3892694 -0.206511E-05  0.696E-03    0.09       2.9  T
   8    -42.3892700 -0.602177E-06  0.238E-03    0.09       8.4  T
   9    -42.3892701 -0.112171E-06  0.105E-03    0.09      19.0  T
  10    -42.3892701 -0.103345E-07  0.496E-04    0.09      40.4  T
  11    -42.3892701 -0.621169E-08  0.148E-04    0.09     135.5  T
     SCC iter.                  ...        0 min,  0.015 sec
     gradient                   ...        0 min,  0.011 sec
 * total energy  :   -73.0633861 Eh     change       -0.5549867E-01 Eh
   gradient norm :     0.4355484 Eh/α   predicted    -0.3518439E-01 ( -36.60%)
   displ. norm   :     0.5779834 α      lambda       -0.1429964E+00
   maximum displ.:     0.2410601 α      in ANC's #33, #40, #39, ...

........................................................................
.............................. CYCLE   13 ..............................
........................................................................

 iter      E             dE          RMSdq      gap      omega  full diag
   1    -42.4867935 -0.424868E+02  0.103E+00    0.35       0.0  T
   2    -42.4928048 -0.601133E-02  0.698E-01    0.24       1.0  T
   3    -42.4978799 -0.507517E-02  0.466E-01    0.41       1.0  T
   4    -42.4837784  0.141016E-01  0.568E-01    0.10       1.0  T
   5    -42.4985241 -0.147457E-01  0.210E-01    0.43       1.0  T
   6    -42.4999957 -0.147167E-02  0.470E-02    0.31       1.0  T
   7    -42.5000221 -0.264040E-04  0.220E-02    0.32       1.0  T
   8    -42.5000320 -0.988695E-05  0.592E-03    0.31       3.4  T
   9    -42.5000326 -0.589198E-06  0.212E-03    0.31       9.4  T
  10    -42.5000326 -0.364468E-07  0.898E-04    0.31      22.3  T
  11    -42.5000327 -0.120301E-07  0.375E-04    0.31      53.4  T
     SCC iter.                  ...        0 min,  0.016 sec
     gradient                   ...        0 min,  0.011 sec
 * total energy  :   -73.1682623 Eh     change       -0.1048763E+00 Eh
   gradient norm :     0.6499171 Eh/α   predicted    -0.9538402E-01 (  -9.05%)
   displ. norm   :     0.3786047 α      lambda       -0.5224404E-01
   maximum displ.:     0.1743183 α      in ANC's #33, #39, #40, ...

........................................................................
.............................. CYCLE   14 ..............................
........................................................................

 iter      E             dE          RMSdq      gap      omega  full diag
   1    -42.5402159 -0.425402E+02  0.592E-01    0.41       0.0  T
   2    -42.5454168 -0.520090E-02  0.487E-01    0.54       1.0  T
   3    -42.5474909 -0.207412E-02  0.230E-01    0.33       1.0  T
   4    -42.5415595  0.593140E-02  0.468E-01    0.71       1.0  T
   5    -42.5484257 -0.686617E-02  0.115E-01    0.46       1.0  T
   6    -42.5487815 -0.355815E-03  0.222E-02    0.45       1.0  T
   7    -42.5487805  0.932829E-06  0.148E-02    0.45       1.4  T
   8    -42.5487863 -0.572898E-05  0.510E-03    0.45       3.9  T
   9    -42.5487866 -0.358051E-06  0.129E-03    0.44      15.5  T
  10    -42.5487866 -0.837969E-08  0.528E-04    0.44      37.9  T
  11    -42.5487866 -0.180592E-08  0.181E-04    0.44     110.4  T
     SCC iter.                  ...        0 min,  0.015 sec
     gradient                   ...        0 min,  0.011 sec
 * total energy  :   -73.1912603 Eh     change       -0.2299798E-01 Eh
   gradient norm :     0.3905767 Eh/α   predicted    -0.2986651E-01 (  29.87%)
   displ. norm   :     0.1189786 α      lambda       -0.2176471E-01
   maximum displ.:     0.0454416 α      in ANC's #23, #21, #11, ...

........................................................................
.............................. CYCLE   15 ..............................
........................................................................

 iter      E             dE          RMSdq      gap      omega  full diag
   1    -42.5490360 -0.425490E+02  0.158E-01    0.40       0.0  T
   2    -42.5474929  0.154316E-02  0.271E-01    0.61       1.0  T
   3    -42.5500914 -0.259857E-02  0.108E-01    0.44       1.0  T
   4    -42.5499537  0.137699E-03  0.102E-01    0.50       1.0  T
   5    -42.5501598 -0.206065E-03  0.358E-02    0.47       1.0  T
   6    -42.5501971 -0.372823E-04  0.518E-03    0.46       3.9  T
   7    -42.5501971 -0.389159E-07  0.290E-03    0.46       6.9  T
   8    -42.5501972 -0.609286E-07  0.132E-03    0.46      15.1  T
   9    -42.5501972 -0.227176E-07  0.652E-04    0.46      30.7  T
  10    -42.5501972 -0.587844E-08  0.298E-04    0.46      67.1  T
     SCC iter.                  ...        0 min,  0.014 sec
     gradient                   ...        0 min,  0.012 sec
 * total energy  :   -73.2085045 Eh     change       -0.1724416E-01 Eh
   gradient norm :     0.1362515 Eh/α   predicted    -0.1103673E-01 ( -36.00%)
   displ. norm   :     0.3614230 α      lambda       -0.3795326E-01
   maximum displ.:     0.1369734 α      in ANC's #23, #21, #4, ...

........................................................................
.............................. CYCLE   16 ..............................
........................................................................

 iter      E             dE          RMSdq      gap      omega  full diag
   1    -42.5532953 -0.425533E+02  0.370E-01    0.46       0.0  T
   2    -42.5517204  0.157488E-02  0.443E-01    0.71       1.0  T
   3    -42.5558213 -0.410086E-02  0.225E-01    0.43       1.0  T
   4    -42.5540002  0.182115E-02  0.306E-01    0.69       1.0  T
   5    -42.5568411 -0.284095E-02  0.659E-02    0.55       1.0  T
   6    -42.5569741 -0.132961E-03  0.127E-02    0.53       1.6  T
   7    -42.5569745 -0.448515E-06  0.645E-03    0.53       3.1  T
   8    -42.5569744  0.760523E-07  0.368E-03    0.53       5.4  T
   9    -42.5569748 -0.385148E-06  0.145E-03    0.53      13.8  T
  10    -42.5569748 -0.761584E-08  0.821E-04    0.53      24.3  T
  11    -42.5569748 -0.113908E-07  0.377E-04    0.53      53.1  T
     SCC iter.                  ...        0 min,  0.016 sec
     gradient                   ...        0 min,  0.011 sec
 * total energy  :   -73.2351072 Eh     change       -0.2660274E-01 Eh
   gradient norm :     0.0920229 Eh/α   predicted    -0.2145554E-01 ( -19.35%)
   displ. norm   :     0.3508174 α      lambda       -0.1937052E-01
   maximum displ.:     0.1133097 α      in ANC's #23, #21, #4, ...

........................................................................
.............................. CYCLE   17 ..............................
........................................................................

 iter      E             dE          RMSdq      gap      omega  full diag
   1    -42.5583225 -0.425583E+02  0.339E-01    0.58       0.0  T
   2    -42.5578714  0.451108E-03  0.282E-01    0.47       1.0  T
   3    -42.5581286 -0.257135E-03  0.234E-01    0.66       1.0  T
   4    -42.5584470 -0.318462E-03  0.150E-01    0.46       1.0  T
   5    -42.5593534 -0.906405E-03  0.549E-02    0.59       1.0  T
   6    -42.5594767 -0.123287E-03  0.115E-02    0.56       1.7  T
   7    -42.5594792 -0.247211E-05  0.555E-03    0.56       3.6  T
   8    -42.5594794 -0.230906E-06  0.248E-03    0.56       8.1  T
   9    -42.5594796 -0.124536E-06  0.116E-03    0.56      17.3  T
  10    -42.5594796 -0.153465E-07  0.629E-04    0.56      31.8  T
  11    -42.5594796 -0.489416E-08  0.153E-04    0.56     130.5  T
     SCC iter.                  ...        0 min,  0.016 sec
     gradient                   ...        0 min,  0.012 sec
 * total energy  :   -73.2489200 Eh     change       -0.1381281E-01 Eh
   gradient norm :     0.1847120 Eh/α   predicted    -0.1087734E-01 ( -21.25%)
   displ. norm   :     0.3061096 α      lambda       -0.1164418E-01
   maximum displ.:     0.0949170 α      in ANC's #21, #23, #4, ...

........................................................................
.............................. CYCLE   18 ..............................
........................................................................

 iter      E             dE          RMSdq      gap      omega  full diag
   1    -42.5592807 -0.425593E+02  0.280E-01    0.64       0.0  T
   2    -42.5569538  0.232686E-02  0.312E-01    0.42       1.0  T
   3    -42.5586630 -0.170912E-02  0.216E-01    0.69       1.0  T
   4    -42.5597932 -0.113019E-02  0.967E-02    0.54       1.0  T
   5    -42.5600264 -0.233285E-03  0.323E-02    0.60       1.0  T
   6    -42.5600716 -0.451349E-04  0.880E-03    0.58       2.3  T
   7    -42.5600731 -0.155729E-05  0.371E-03    0.58       5.4  T
   8    -42.5600732 -0.545753E-07  0.183E-03    0.58      11.0  T
   9    -42.5600733 -0.820914E-07  0.648E-04    0.58      30.9  T
  10    -42.5600733 -0.912266E-09  0.449E-04    0.58      44.5  T
     SCC iter.                  ...        0 min,  0.014 sec
     gradient                   ...        0 min,  0.012 sec
 * total energy  :   -73.2573385 Eh     change       -0.8418455E-02 Eh
   gradient norm :     0.1000194 Eh/α   predicted    -0.6367949E-02 ( -24.36%)
   displ. norm   :     0.2916871 α      lambda       -0.9569055E-02
   maximum displ.:     0.0868051 α      in ANC's #4, #21, #20, ...

........................................................................
.............................. CYCLE   19 ..............................
........................................................................

 iter      E             dE          RMSdq      gap      omega  full diag
   1    -42.5632536 -0.425633E+02  0.254E-01    0.64       0.0  T
   2    -42.5613989  0.185465E-02  0.265E-01    0.46       1.0  T
   3    -42.5624428 -0.104386E-02  0.213E-01    0.71       1.0  T
   4    -42.5638084 -0.136560E-02  0.830E-02    0.58       1.0  T
   5    -42.5639112 -0.102754E-03  0.299E-02    0.61       1.0  T
   6    -42.5639390 -0.278397E-04  0.791E-03    0.60       2.5  T
   7    -42.5639402 -0.116412E-05  0.357E-03    0.60       5.6  T
   8    -42.5639403 -0.180090E-06  0.141E-03    0.60      14.2  T
   9    -42.5639404 -0.308977E-07  0.489E-04    0.60      40.9  T
  10    -42.5639404 -0.245519E-08  0.318E-04    0.60      62.9  T
     SCC iter.                  ...        0 min,  0.014 sec
     gradient                   ...        0 min,  0.011 sec
 * total energy  :   -73.2647331 Eh     change       -0.7394638E-02 Eh
   gradient norm :     0.0960884 Eh/α   predicted    -0.5191646E-02 ( -29.79%)
   displ. norm   :     0.3024139 α      lambda       -0.1044343E-01
   maximum displ.:     0.0959266 α      in ANC's #4, #20, #21, ...

........................................................................
.............................. CYCLE   20 ..............................
........................................................................

 iter      E             dE          RMSdq      gap      omega  full diag
   1    -42.5703428 -0.425703E+02  0.292E-01    0.65       0.0  T
   2    -42.5689461  0.139673E-02  0.300E-01    0.47       1.0  T
   3    -42.5704581 -0.151201E-02  0.212E-01    0.71       1.0  T
   4    -42.5715918 -0.113378E-02  0.115E-01    0.55       1.0  T
   5    -42.5718722 -0.280316E-03  0.309E-02    0.60       1.0  T
   6    -42.5718966 -0.244330E-04  0.998E-03    0.60       2.0  T
   7    -42.5718986 -0.195688E-05  0.447E-03    0.60       4.5  T
   8    -42.5718988 -0.281260E-06  0.149E-03    0.60      13.4  T
   9    -42.5718988 -0.114544E-07  0.713E-04    0.60      28.1  T
  10    -42.5718989 -0.730145E-08  0.427E-04    0.60      46.9  T
     SCC iter.                  ...        0 min,  0.014 sec
     gradient                   ...        0 min,  0.011 sec
 * total energy  :   -73.2722247 Eh     change       -0.7491566E-02 Eh
   gradient norm :     0.1808720 Eh/α   predicted    -0.5699285E-02 ( -23.92%)
   displ. norm   :     0.2211059 α      lambda       -0.6455570E-02
   maximum displ.:     0.0791644 α      in ANC's #20, #4, #9, ...
 * RMSD in coord.:     1.2439676 α      energy gain  -0.3007160E+02 Eh

generating ANC from model Hessian ...
Using Lindh-Hessian (1995)
 Shifting diagonal of input Hessian by    8.4804279933127433E-003
 Lowest  eigenvalues of input Hessian
    0.000000    0.000000    0.000000    0.000000    0.000000    0.000000
    0.010000    0.011243    0.012243    0.013134    0.014197    0.016973
    0.018879    0.020875    0.022574    0.026227    0.027418    0.031107
 Highest eigenvalues
    2.083188    2.155752    2.394038    2.472084   23.193046   31.369310


........................................................................
.............................. CYCLE   21 ..............................
........................................................................

 iter      E             dE          RMSdq      gap      omega  full diag
   1    -42.5774993 -0.425775E+02  0.223E-01    0.63       0.0  T
   2    -42.5768984  0.600854E-03  0.226E-01    0.50       1.0  T
   3    -42.5776666 -0.768185E-03  0.157E-01    0.68       1.0  T
   4    -42.5782312 -0.564605E-03  0.919E-02    0.56       1.0  T
   5    -42.5784342 -0.202932E-03  0.195E-02    0.60       1.0  T
   6    -42.5784416 -0.743528E-05  0.739E-03    0.60       2.7  T
   7    -42.5784428 -0.120113E-05  0.365E-03    0.60       5.5  T
   8    -42.5784429 -0.159289E-06  0.128E-03    0.60      15.6  T
   9    -42.5784430 -0.262641E-07  0.527E-04    0.60      38.0  T
  10    -42.5784430 -0.284896E-08  0.256E-04    0.60      78.1  T
     SCC iter.                  ...        0 min,  0.014 sec
     gradient                   ...        0 min,  0.011 sec
 * total energy  :   -73.2766857 Eh     change       -0.4461026E-02 Eh
   gradient norm :     0.1430526 Eh/α   predicted     0.0000000E+00 (-100.00%)
   displ. norm   :     0.4378833 α      lambda       -0.2063308E-01
   maximum displ.:     0.2110440 α      in ANC's #7, #11, #10, ...

........................................................................
.............................. CYCLE   22 ..............................
........................................................................

 iter      E             dE          RMSdq      gap      omega  full diag
   1    -42.5918821 -0.425919E+02  0.351E-01    0.62       0.0  T
   2    -42.5920140 -0.131979E-03  0.246E-01    0.56       1.0  T
   3    -42.5926421 -0.628062E-03  0.178E-01    0.66       1.0  T
   4    -42.5913517  0.129039E-02  0.202E-01    0.48       1.0  T
   5    -42.5930977 -0.174597E-02  0.425E-02    0.62       1.0  T
   6    -42.5931644 -0.666791E-04  0.102E-02    0.60       2.0  T
   7    -42.5931664 -0.204407E-05  0.448E-03    0.60       4.5  T
   8    -42.5931666 -0.188469E-06  0.118E-03    0.60      17.0  T
   9    -42.5931666 -0.177499E-07  0.474E-04    0.60      42.2  T
  10    -42.5931666  0.294506E-09  0.290E-04    0.60      68.9  T
     SCC iter.                  ...        0 min,  0.014 sec
     gradient                   ...        0 min,  0.011 sec
 * total energy  :   -73.1912712 Eh     change        0.8541454E-01 Eh
   gradient norm :     3.7450272 Eh/α   predicted    -0.1229796E-01 (-114.40%)
   displ. norm   :     0.1237765 α      lambda       -0.2113553E+00
   maximum displ.:     0.0584395 α      in ANC's #56, #35, #7, ...

........................................................................
.............................. CYCLE   23 ..............................
........................................................................

 iter      E             dE          RMSdq      gap      omega  full diag
   1    -42.6051715 -0.426052E+02  0.120E-01    0.61       0.0  T
   2    -42.6052568 -0.853251E-04  0.107E-01    0.60       1.0  T
   3    -42.6054153 -0.158469E-03  0.531E-02    0.62       1.0  T
   4    -42.6051865  0.228832E-03  0.763E-02    0.56       1.0  T
   5    -42.6054142 -0.227741E-03  0.218E-02    0.62       1.0  T
   6    -42.6054306 -0.163532E-04  0.382E-03    0.61       5.2  T
   7    -42.6054307 -0.775312E-07  0.260E-03    0.61       7.7  T
   8    -42.6054308 -0.104319E-06  0.777E-04    0.61      25.8  T
   9    -42.6054308 -0.781856E-08  0.190E-04    0.61     105.0  T
     SCC iter.                  ...        0 min,  0.013 sec
     gradient                   ...        0 min,  0.011 sec
 * total energy  :   -73.2912309 Eh     change       -0.9995968E-01 Eh
   gradient norm :     0.0546233 Eh/α   predicted    -0.1072968E+00 (   7.34%)
   displ. norm   :     0.6052593 α      lambda       -0.1055555E-01
   maximum displ.:     0.3165564 α      in ANC's #7, #10, #11, ...

........................................................................
.............................. CYCLE   24 ..............................
........................................................................

 iter      E             dE          RMSdq      gap      omega  full diag
   1    -42.6171150 -0.426171E+02  0.442E-01    0.64       0.0  T
   2    -42.6166474  0.467608E-03  0.270E-01    0.53       1.0  T
   3    -42.6129979  0.364943E-02  0.397E-01    0.81       1.0  T
   4    -42.6168078 -0.380988E-02  0.147E-01    0.54       1.0  T
   5    -42.6176996 -0.891807E-03  0.281E-02    0.63       1.0  T
   6    -42.6177280 -0.284225E-04  0.102E-02    0.62       2.0  T
   7    -42.6177296 -0.156922E-05  0.467E-03    0.62       4.3  T
   8    -42.6177300 -0.375632E-06  0.112E-03    0.61      17.9  T
   9    -42.6177300 -0.161466E-07  0.466E-04    0.61      42.9  T
  10    -42.6177300  0.627679E-09  0.288E-04    0.61      69.5  T
     SCC iter.                  ...        0 min,  0.014 sec
     gradient                   ...        0 min,  0.011 sec
 * total energy  :   -73.2988496 Eh     change       -0.7618695E-02 Eh
   gradient norm :     0.0578493 Eh/α   predicted    -0.7211251E-02 (  -5.35%)
   displ. norm   :     0.5331714 α      lambda       -0.7396717E-02
   maximum displ.:     0.3108524 α      in ANC's #7, #10, #11, ...

........................................................................
.............................. CYCLE   25 ..............................
........................................................................

 iter      E             dE          RMSdq      gap      omega  full diag
   1    -42.6203609 -0.426204E+02  0.335E-01    0.62       0.0  T
   2    -42.6200960  0.264964E-03  0.202E-01    0.55       1.0  T
   3    -42.6173046  0.279135E-02  0.316E-01    0.77       1.0  T
   4    -42.6202926 -0.298804E-02  0.819E-02    0.57       1.0  T
   5    -42.6205399 -0.247219E-03  0.159E-02    0.62       1.3  T
   6    -42.6205472 -0.736093E-05  0.576E-03    0.61       3.5  T
   7    -42.6205476 -0.416904E-06  0.218E-03    0.61       9.2  T
   8    -42.6205477 -0.493608E-07  0.819E-04    0.61      24.4  T
   9    -42.6205477 -0.686559E-08  0.414E-04    0.61      48.3  T
     SCC iter.                  ...        0 min,  0.013 sec
     gradient                   ...        0 min,  0.011 sec
 * total energy  :   -73.3045337 Eh     change       -0.5684102E-02 Eh
   gradient norm :     0.0829105 Eh/α   predicted    -0.4749778E-02 ( -16.44%)
   displ. norm   :     0.5053224 α      lambda       -0.6191701E-02
   maximum displ.:     0.2871671 α      in ANC's #7, #10, #1, ...

........................................................................
.............................. CYCLE   26 ..............................
........................................................................

 iter      E             dE          RMSdq      gap      omega  full diag
   1    -42.6267814 -0.426268E+02  0.298E-01    0.60       0.0  T
   2    -42.6268164 -0.349770E-04  0.169E-01    0.59       1.0  T
   3    -42.6263472  0.469211E-03  0.165E-01    0.65       1.0  T
   4    -42.6265939 -0.246681E-03  0.896E-02    0.55       1.0  T
   5    -42.6269200 -0.326111E-03  0.198E-02    0.61       1.0  T
   6    -42.6269349 -0.149227E-04  0.496E-03    0.60       4.0  T
   7    -42.6269351 -0.219752E-06  0.235E-03    0.60       8.5  T
   8    -42.6269352 -0.363294E-07  0.840E-04    0.60      23.8  T
   9    -42.6269352 -0.122704E-07  0.386E-04    0.60      51.9  T
     SCC iter.                  ...        0 min,  0.013 sec
     gradient                   ...        0 min,  0.011 sec
 * total energy  :   -73.3093118 Eh     change       -0.4778188E-02 Eh
   gradient norm :     0.1445361 Eh/α   predicted    -0.3886430E-02 ( -18.66%)
   displ. norm   :     0.5362667 α      lambda       -0.5278334E-02
   maximum displ.:     0.2225233 α      in ANC's #7, #10, #2, ...

........................................................................
.............................. CYCLE   27 ..............................
........................................................................

 iter      E             dE          RMSdq      gap      omega  full diag
   1    -42.6299361 -0.426299E+02  0.398E-01    0.63       0.0  T
   2    -42.6296822  0.253884E-03  0.229E-01    0.55       1.0  T
   3    -42.6268807  0.280156E-02  0.349E-01    0.78       1.0  T
   4    -42.6298459 -0.296523E-02  0.980E-02    0.56       1.0  T
   5    -42.6302296 -0.383687E-03  0.241E-02    0.62       1.0  T
   6    -42.6302513 -0.217052E-04  0.720E-03    0.61       2.8  T
   7    -42.6302521 -0.851984E-06  0.272E-03    0.61       7.4  T
   8    -42.6302522 -0.260254E-07  0.121E-03    0.61      16.5  T
   9    -42.6302522 -0.285057E-07  0.513E-04    0.61      39.0  T
  10    -42.6302522 -0.543885E-09  0.315E-04    0.61      63.5  T
     SCC iter.                  ...        0 min,  0.014 sec
     gradient                   ...        0 min,  0.011 sec
 * total energy  :   -73.3131921 Eh     change       -0.3880298E-02 Eh
   gradient norm :     0.2112258 Eh/α   predicted    -0.3398278E-02 ( -12.42%)
   displ. norm   :     0.5113327 α      lambda       -0.6406402E-02
   maximum displ.:     0.2379416 α      in ANC's #12, #1, #15, ...

........................................................................
.............................. CYCLE   28 ..............................
........................................................................

 iter      E             dE          RMSdq      gap      omega  full diag
   1    -42.6434284 -0.426434E+02  0.347E-01    0.64       0.0  T
   2    -42.6436028 -0.174393E-03  0.204E-01    0.62       1.0  T
   3    -42.6433685  0.234305E-03  0.147E-01    0.67       1.0  T
   4    -42.6434630 -0.944657E-04  0.961E-02    0.58       1.0  T
   5    -42.6437617 -0.298768E-03  0.246E-02    0.64       1.0  T
   6    -42.6437853 -0.235835E-04  0.849E-03    0.63       2.4  T
   7    -42.6437866 -0.129055E-05  0.423E-03    0.63       4.7  T
   8    -42.6437869 -0.247171E-06  0.141E-03    0.63      14.2  T
   9    -42.6437869 -0.274704E-07  0.532E-04    0.63      37.6  T
  10    -42.6437869  0.116473E-08  0.349E-04    0.63      57.3  T
     SCC iter.                  ...        0 min,  0.014 sec
     gradient                   ...        0 min,  0.011 sec
 * total energy  :   -73.3166307 Eh     change       -0.3438594E-02 Eh
   gradient norm :     0.2632688 Eh/α   predicted    -0.4040898E-02 (  17.52%)
   displ. norm   :     0.5198487 α      lambda       -0.6411462E-02
   maximum displ.:     0.2143054 α      in ANC's #12, #8, #10, ...

........................................................................
.............................. CYCLE   29 ..............................
........................................................................

 iter      E             dE          RMSdq      gap      omega  full diag
   1    -42.6445276 -0.426445E+02  0.402E-01    0.71       0.0  T
   2    -42.6444519  0.756696E-04  0.236E-01    0.62       1.0  T
   3    -42.6431016  0.135034E-02  0.291E-01    0.81       1.0  T
   4    -42.6444466 -0.134505E-02  0.132E-01    0.61       1.0  T
   5    -42.6450586 -0.611981E-03  0.239E-02    0.69       1.0  T
   6    -42.6450787 -0.200689E-04  0.818E-03    0.68       2.4  T
   7    -42.6450797 -0.101473E-05  0.308E-03    0.68       6.5  T
   8    -42.6450797 -0.472709E-07  0.125E-03    0.68      16.0  T
   9    -42.6450798 -0.193869E-07  0.512E-04    0.68      39.1  T
  10    -42.6450798  0.160005E-08  0.366E-04    0.68      54.6  T
     SCC iter.                  ...        0 min,  0.014 sec
     gradient                   ...        0 min,  0.011 sec
 * total energy  :   -73.3214051 Eh     change       -0.4774332E-02 Eh
   gradient norm :     0.1551913 Eh/α   predicted    -0.4072071E-02 ( -14.71%)
   displ. norm   :     0.5685797 α      lambda       -0.7730570E-02
   maximum displ.:     0.2762798 α      in ANC's #12, #3, #13, ...

........................................................................
.............................. CYCLE   30 ..............................
........................................................................

 iter      E             dE          RMSdq      gap      omega  full diag
   1    -42.6497538 -0.426498E+02  0.497E-01    0.75       0.0  T
   2    -42.6505201 -0.766297E-03  0.312E-01    0.72       1.0  T
   3    -42.6517175 -0.119732E-02  0.199E-01    0.77       1.0  T
   4    -42.6516609  0.566052E-04  0.110E-01    0.69       1.0  T
   5    -42.6520066 -0.345794E-03  0.405E-02    0.76       1.0  T
   6    -42.6520641 -0.574451E-04  0.107E-02    0.74       1.9  T
   7    -42.6520651 -0.978075E-06  0.588E-03    0.74       3.4  T
   8    -42.6520653 -0.258851E-06  0.197E-03    0.74      10.1  T
   9    -42.6520654 -0.387591E-07  0.956E-04    0.74      20.9  T
  10    -42.6520654 -0.363845E-08  0.567E-04    0.74      35.3  T
     SCC iter.                  ...        0 min,  0.014 sec
     gradient                   ...        0 min,  0.011 sec
 * total energy  :   -73.3275222 Eh     change       -0.6117153E-02 Eh
   gradient norm :     0.1934146 Eh/α   predicted    -0.5114872E-02 ( -16.38%)
   displ. norm   :     0.6687701 α      lambda       -0.1053008E-01
   maximum displ.:     0.3110449 α      in ANC's #12, #13, #15, ...

........................................................................
.............................. CYCLE   31 ..............................
........................................................................

 iter      E             dE          RMSdq      gap      omega  full diag
   1    -42.6420613 -0.426421E+02  0.739E-01    0.78       0.0  T
   2    -42.6409102  0.115105E-02  0.638E-01    0.40       1.0  T
   3    -42.6486578 -0.774755E-02  0.340E-01    0.81       1.0  T
   4    -42.6478239  0.833886E-03  0.279E-01    0.54       1.0  T
   5    -42.6499218 -0.209791E-02  0.102E-01    0.69       1.0  T
   6    -42.6502994 -0.377581E-03  0.233E-02    0.68       1.0  T
   7    -42.6503052 -0.575212E-05  0.122E-02    0.68       1.6  T
   8    -42.6503058 -0.610527E-06  0.548E-03    0.68       3.7  T
   9    -42.6503062 -0.472922E-06  0.240E-03    0.68       8.3  T
  10    -42.6503064 -0.129148E-06  0.915E-04    0.68      21.9  T
  11    -42.6503064 -0.107760E-07  0.391E-04    0.68      51.1  T
     SCC iter.                  ...        0 min,  0.016 sec
     gradient                   ...        0 min,  0.012 sec
 * total energy  :   -73.3324534 Eh     change       -0.4931176E-02 Eh
   gradient norm :     0.1334456 Eh/α   predicted    -0.7619850E-02 (  54.52%)
   displ. norm   :     0.6091036 α      lambda       -0.1232880E-01
   maximum displ.:     0.2920444 α      in ANC's #7, #11, #10, ...

........................................................................
.............................. CYCLE   32 ..............................
........................................................................

 iter      E             dE          RMSdq      gap      omega  full diag
   1    -42.6636795 -0.426637E+02  0.460E-01    0.61       0.0  T
   2    -42.6637673 -0.878449E-04  0.291E-01    0.64       1.0  T
   3    -42.6630774  0.689923E-03  0.255E-01    0.56       1.0  T
   4    -42.6636931 -0.615728E-03  0.161E-01    0.70       1.0  T
   5    -42.6644434 -0.750219E-03  0.363E-02    0.60       1.0  T
   6    -42.6644857 -0.423076E-04  0.118E-02    0.62       1.7  T
   7    -42.6644879 -0.219723E-05  0.534E-03    0.62       3.7  T
   8    -42.6644881 -0.227166E-06  0.228E-03    0.62       8.8  T
   9    -42.6644882 -0.680331E-07  0.924E-04    0.62      21.6  T
  10    -42.6644882 -0.535557E-08  0.512E-04    0.62      39.1  T
     SCC iter.                  ...        0 min,  0.014 sec
     gradient                   ...        0 min,  0.011 sec
 * total energy  :   -73.3341154 Eh     change       -0.1661998E-02 Eh
   gradient norm :     0.2122810 Eh/α   predicted    -0.8451447E-02 ( 408.51%)
   displ. norm   :     0.2349853 α      lambda       -0.8466668E-02
   maximum displ.:     0.1107708 α      in ANC's #3, #12, #22, ...

........................................................................
.............................. CYCLE   33 ..............................
........................................................................

 iter      E             dE          RMSdq      gap      omega  full diag
   1    -42.6589528 -0.426590E+02  0.216E-01    0.70       0.0  T
   2    -42.6586473  0.305534E-03  0.174E-01    0.60       1.0  T
   3    -42.6587534 -0.106106E-03  0.154E-01    0.73       1.0  T
   4    -42.6591817 -0.428270E-03  0.453E-02    0.65       1.0  T
   5    -42.6592208 -0.390928E-04  0.178E-02    0.67       1.1  T
   6    -42.6592309 -0.101642E-04  0.615E-03    0.66       3.3  T
   7    -42.6592313 -0.401004E-06  0.302E-03    0.66       6.6  T
   8    -42.6592315 -0.136412E-06  0.154E-03    0.66      13.0  T
   9    -42.6592315 -0.512682E-07  0.380E-04    0.66      52.6  T
  10    -42.6592315 -0.158319E-08  0.229E-04    0.66      87.2  T
     SCC iter.                  ...        0 min,  0.014 sec
     gradient                   ...        0 min,  0.011 sec
 * total energy  :   -73.3391490 Eh     change       -0.5033643E-02 Eh
   gradient norm :     0.0692537 Eh/α   predicted    -0.4467106E-02 ( -11.26%)
   displ. norm   :     0.3842636 α      lambda       -0.4571631E-02
   maximum displ.:     0.2502772 α      in ANC's #3, #7, #6, ...

........................................................................
.............................. CYCLE   34 ..............................
........................................................................

 iter      E             dE          RMSdq      gap      omega  full diag
   1    -42.6551972 -0.426552E+02  0.254E-01    0.57       0.0  T
   2    -42.6555027 -0.305454E-03  0.179E-01    0.59       1.0  T
   3    -42.6556633 -0.160634E-03  0.104E-01    0.56       1.0  T
   4    -42.6553296  0.333748E-03  0.117E-01    0.64       1.0  T
   5    -42.6557599 -0.430338E-03  0.210E-02    0.57       1.0  T
   6    -42.6557717 -0.118397E-04  0.113E-02    0.58       1.8  T
   7    -42.6557735 -0.172610E-05  0.510E-03    0.58       3.9  T
   8    -42.6557738 -0.291328E-06  0.269E-03    0.58       7.4  T
   9    -42.6557739 -0.163475E-06  0.699E-04    0.58      28.6  T
  10    -42.6557739 -0.187013E-08  0.408E-04    0.58      49.0  T
     SCC iter.                  ...        0 min,  0.014 sec
     gradient                   ...        0 min,  0.012 sec
 * total energy  :   -73.3404374 Eh     change       -0.1288354E-02 Eh
   gradient norm :     0.1583926 Eh/α   predicted    -0.2623346E-02 ( 103.62%)
   displ. norm   :     0.3162069 α      lambda       -0.4398304E-02
   maximum displ.:     0.1429003 α      in ANC's #6, #7, #3, ...

........................................................................
.............................. CYCLE   35 ..............................
........................................................................

 iter      E             dE          RMSdq      gap      omega  full diag
   1    -42.6435998 -0.426436E+02  0.216E-01    0.70       0.0  T
   2    -42.6411835  0.241627E-02  0.348E-01    0.40       1.0  T
   3    -42.6446927 -0.350915E-02  0.932E-02    0.60       1.0  T
   4    -42.6446526  0.400307E-04  0.516E-02    0.59       1.0  T
   5    -42.6446955 -0.428984E-04  0.255E-02    0.60       1.0  T
   6    -42.6447131 -0.175404E-04  0.812E-03    0.60       2.5  T
   7    -42.6447136 -0.483894E-06  0.509E-03    0.60       3.9  T
   8    -42.6447139 -0.378937E-06  0.142E-03    0.60      14.1  T
   9    -42.6447140 -0.339201E-07  0.605E-04    0.60      33.1  T
  10    -42.6447140 -0.173235E-08  0.235E-04    0.60      85.2  T
     SCC iter.                  ...        0 min,  0.014 sec
     gradient                   ...        0 min,  0.011 sec
 * total energy  :   -73.3416878 Eh     change       -0.1250374E-02 Eh
   gradient norm :     0.0448760 Eh/α   predicted    -0.2419045E-02 (  93.47%)
   displ. norm   :     0.2096684 α      lambda       -0.2713885E-02
   maximum displ.:     0.1198155 α      in ANC's #12, #5, #11, ...

........................................................................
.............................. CYCLE   36 ..............................
........................................................................

 iter      E             dE          RMSdq      gap      omega  full diag
   1    -42.6534752 -0.426535E+02  0.159E-01    0.57       0.0  T
   2    -42.6533247  0.150437E-03  0.148E-01    0.66       1.0  T
   3    -42.6536001 -0.275355E-03  0.861E-02    0.57       1.0  T
   4    -42.6535959  0.422679E-05  0.610E-02    0.63       1.0  T
   5    -42.6536941 -0.982818E-04  0.182E-02    0.60       1.1  T
   6    -42.6537062 -0.121079E-04  0.469E-03    0.61       4.3  T
   7    -42.6537065 -0.232579E-06  0.286E-03    0.61       7.0  T
   8    -42.6537066 -0.755613E-07  0.125E-03    0.61      16.1  T
   9    -42.6537066 -0.257879E-07  0.386E-04    0.61      51.8  T
  10    -42.6537066 -0.140615E-08  0.208E-04    0.61      96.3  T
     SCC iter.                  ...        0 min,  0.014 sec
     gradient                   ...        0 min,  0.011 sec
 * total energy  :   -73.3425986 Eh     change       -0.9107954E-03 Eh
   gradient norm :     0.0877606 Eh/α   predicted    -0.1416594E-02 (  55.53%)
   displ. norm   :     0.2092705 α      lambda       -0.1705277E-02
   maximum displ.:     0.1142358 α      in ANC's #3, #10, #11, ...

........................................................................
.............................. CYCLE   37 ..............................
........................................................................

 iter      E             dE          RMSdq      gap      omega  full diag
   1    -42.6606816 -0.426607E+02  0.173E-01    0.58       0.0  T
   2    -42.6606636  0.180686E-04  0.145E-01    0.60       1.0  T
   3    -42.6609473 -0.283726E-03  0.841E-02    0.57       1.0  T
   4    -42.6608773  0.699758E-04  0.739E-02    0.62       1.0  T
   5    -42.6610053 -0.127957E-03  0.252E-02    0.57       1.0  T
   6    -42.6610279 -0.226105E-04  0.586E-03    0.59       3.4  T
   7    -42.6610285 -0.586245E-06  0.295E-03    0.59       6.8  T
   8    -42.6610286 -0.790100E-07  0.122E-03    0.59      16.3  T
   9    -42.6610286 -0.203882E-07  0.323E-04    0.59      61.9  T
  10    -42.6610286 -0.308518E-09  0.212E-04    0.59      94.5  T
     SCC iter.                  ...        0 min,  0.014 sec
     gradient                   ...        0 min,  0.011 sec
 * total energy  :   -73.3429819 Eh     change       -0.3832991E-03 Eh
   gradient norm :     0.0549423 Eh/α   predicted    -0.8899805E-03 ( 132.19%)
   displ. norm   :     0.1054185 α      lambda       -0.9956082E-03
   maximum displ.:     0.0456319 α      in ANC's #3, #9, #5, ...

........................................................................
.............................. CYCLE   38 ..............................
........................................................................

 iter      E             dE          RMSdq      gap      omega  full diag
   1    -42.6568179 -0.426568E+02  0.685E-02    0.58       0.0  T
   2    -42.6567540  0.638389E-04  0.629E-02    0.54       1.0  T
   3    -42.6568074 -0.533639E-04  0.456E-02    0.59       1.0  T
   4    -42.6568443 -0.369173E-04  0.917E-03    0.57       2.2  T
   5    -42.6568465 -0.219665E-05  0.374E-03    0.57       5.3  T
   6    -42.6568468 -0.323513E-06  0.176E-03    0.57      11.4  T
   7    -42.6568469 -0.303617E-07  0.853E-04    0.57      23.4  T
   8    -42.6568469 -0.161973E-07  0.300E-04    0.57      66.6  T
     SCC iter.                  ...        0 min,  0.011 sec
     gradient                   ...        0 min,  0.011 sec
 * total energy  :   -73.3435331 Eh     change       -0.5512446E-03 Eh
   gradient norm :     0.0557684 Eh/α   predicted    -0.5033442E-03 (  -8.69%)
   displ. norm   :     0.0734083 α      lambda       -0.2819447E-03
   maximum displ.:     0.0314074 α      in ANC's #8, #13, #1, ...

........................................................................
.............................. CYCLE   39 ..............................
........................................................................

 iter      E             dE          RMSdq      gap      omega  full diag
   1    -42.6570032 -0.426570E+02  0.455E-02    0.58       0.0  T
   2    -42.6570032 -0.253532E-07  0.400E-02    0.56       1.0  T
   3    -42.6570188 -0.155942E-04  0.222E-02    0.58       1.0  T
   4    -42.6570109  0.785835E-05  0.238E-02    0.56       1.0  T
   5    -42.6570243 -0.133997E-04  0.535E-03    0.57       3.7  T
   6    -42.6570254 -0.105473E-05  0.170E-03    0.57      11.8  T
   7    -42.6570254 -0.380041E-07  0.978E-04    0.57      20.5  T
   8    -42.6570254 -0.126006E-07  0.293E-04    0.57      68.1  T
     SCC iter.                  ...        0 min,  0.011 sec
     gradient                   ...        0 min,  0.012 sec
 * total energy  :   -73.3437121 Eh     change       -0.1790298E-03 Eh
   gradient norm :     0.0420124 Eh/α   predicted    -0.1417371E-03 ( -20.83%)
   displ. norm   :     0.1420382 α      lambda       -0.3769910E-03
   maximum displ.:     0.0767078 α      in ANC's #3, #8, #1, ...

........................................................................
.............................. CYCLE   40 ..............................
........................................................................

 iter      E             dE          RMSdq      gap      omega  full diag
   1    -42.6567620 -0.426568E+02  0.749E-02    0.59       0.0  T
   2    -42.6566853  0.766515E-04  0.698E-02    0.54       1.0  T
   3    -42.6567744 -0.891084E-04  0.458E-02    0.59       1.0  T
   4    -42.6567957 -0.212584E-04  0.220E-02    0.57       1.0  T
   5    -42.6568107 -0.149721E-04  0.589E-03    0.57       3.4  T
   6    -42.6568117 -0.105168E-05  0.190E-03    0.57      10.5  T
   7    -42.6568118 -0.591263E-07  0.970E-04    0.57      20.6  T
   8    -42.6568118 -0.520144E-08  0.365E-04    0.57      54.9  T
     SCC iter.                  ...        0 min,  0.012 sec
     gradient                   ...        0 min,  0.011 sec
 * total energy  :   -73.3439083 Eh     change       -0.1961879E-03 Eh
   gradient norm :     0.0312985 Eh/α   predicted    -0.1923027E-03 (  -1.98%)
   displ. norm   :     0.1056288 α      lambda       -0.2528350E-03
   maximum displ.:     0.0631872 α      in ANC's #1, #8, #3, ...

........................................................................
.............................. CYCLE   41 ..............................
........................................................................

 iter      E             dE          RMSdq      gap      omega  full diag
   1    -42.6585961 -0.426586E+02  0.438E-02    0.57       0.0  T
   2    -42.6585965 -0.358278E-06  0.263E-02    0.57       1.0  T
   3    -42.6585852  0.112674E-04  0.195E-02    0.58       1.0  T
   4    -42.6585965 -0.113393E-04  0.629E-03    0.57       3.2  T
   5    -42.6585977 -0.113962E-05  0.176E-03    0.57      11.4  T
   6    -42.6585977 -0.727088E-07  0.116E-03    0.57      17.3  T
   7    -42.6585978 -0.210484E-07  0.436E-04    0.57      45.9  T
   8    -42.6585978 -0.269501E-08  0.128E-04    0.57     156.3  T
     SCC iter.                  ...        0 min,  0.011 sec
     gradient                   ...        0 min,  0.011 sec
 * total energy  :   -73.3440423 Eh     change       -0.1339581E-03 Eh
   gradient norm :     0.0631956 Eh/α   predicted    -0.1278305E-03 (  -4.57%)
   displ. norm   :     0.0737472 α      lambda       -0.1769521E-03
   maximum displ.:     0.0486429 α      in ANC's #1, #11, #5, ...

........................................................................
.............................. CYCLE   42 ..............................
........................................................................

 iter      E             dE          RMSdq      gap      omega  full diag
   1    -42.6590040 -0.426590E+02  0.257E-02    0.57       0.0  T
   2    -42.6590002  0.383988E-05  0.223E-02    0.58       1.0  T
   3    -42.6590029 -0.267881E-05  0.159E-02    0.57       1.3  T
   4    -42.6590074 -0.454480E-05  0.665E-03    0.57       3.0  T
   5    -42.6590083 -0.879063E-06  0.270E-03    0.57       7.4  T
   6    -42.6590085 -0.206633E-06  0.705E-04    0.57      28.4  T
   7    -42.6590085 -0.326993E-08  0.411E-04    0.57      48.7  T
     SCC iter.                  ...        0 min,  0.010 sec
     gradient                   ...        0 min,  0.011 sec
 * total energy  :   -73.3441550 Eh     change       -0.1126642E-03 Eh
   gradient norm :     0.0166040 Eh/α   predicted    -0.8898295E-04 ( -21.02%)
   displ. norm   :     0.1213505 α      lambda       -0.2015960E-03
   maximum displ.:     0.0732638 α      in ANC's #1, #5, #11, ...
 * RMSD in coord.:     0.7253963 α      energy gain  -0.7193025E-01 Eh

generating ANC from model Hessian ...
Using Lindh-Hessian (1995)
 Shifting diagonal of input Hessian by    7.0721994458647214E-003
 Lowest  eigenvalues of input Hessian
    0.000000    0.000000    0.000000    0.000000    0.000000    0.000000
    0.010000    0.011743    0.014078    0.016269    0.016943    0.018485
    0.021472    0.024276    0.025682    0.030204    0.041819    0.043072
 Highest eigenvalues
    2.181873    2.225785    2.291876    2.460990   26.184189   30.084873


........................................................................
.............................. CYCLE   43 ..............................
........................................................................

 iter      E             dE          RMSdq      gap      omega  full diag
   1    -42.6588666 -0.426589E+02  0.427E-02    0.59       0.0  T
   2    -42.6588528  0.137864E-04  0.345E-02    0.57       1.0  T
   3    -42.6588561 -0.330446E-05  0.295E-02    0.60       1.0  T
   4    -42.6588734 -0.173202E-04  0.877E-03    0.58       2.3  T
   5    -42.6588752 -0.180906E-05  0.147E-03    0.58      13.6  T
   6    -42.6588753 -0.306084E-07  0.793E-04    0.58      25.2  T
   7    -42.6588753 -0.752962E-09  0.320E-04    0.58      62.6  T
     SCC iter.                  ...        0 min,  0.010 sec
     gradient                   ...        0 min,  0.011 sec
 * total energy  :   -73.3443064 Eh     change       -0.1514420E-03 Eh
   gradient norm :     0.0159552 Eh/α   predicted     0.0000000E+00 (-100.00%)
   displ. norm   :     0.0755141 α      lambda       -0.2159410E-03
   maximum displ.:     0.0430898 α      in ANC's #7, #2, #5, ...

........................................................................
.............................. CYCLE   44 ..............................
........................................................................

 iter      E             dE          RMSdq      gap      omega  full diag
   1    -42.6585271 -0.426585E+02  0.609E-02    0.59       0.0  T
   2    -42.6585273 -0.140472E-06  0.369E-02    0.58       1.0  T
   3    -42.6584979  0.293436E-04  0.286E-02    0.60       1.0  T
   4    -42.6585273 -0.293257E-04  0.763E-03    0.58       2.6  T
   5    -42.6585288 -0.150888E-05  0.166E-03    0.58      12.0  T
   6    -42.6585288 -0.515453E-07  0.523E-04    0.58      38.2  T
   7    -42.6585288  0.753452E-09  0.358E-04    0.58      55.8  T
     SCC iter.                  ...        0 min,  0.010 sec
     gradient                   ...        0 min,  0.011 sec
 * total energy  :   -73.3443982 Eh     change       -0.9185418E-04 Eh
   gradient norm :     0.0926011 Eh/α   predicted    -0.1086019E-03 (  18.23%)
   displ. norm   :     0.6328824 α      lambda       -0.1954710E-02
   maximum displ.:     0.3669986 α      in ANC's #7, #2, #5, ...

........................................................................
.............................. CYCLE   45 ..............................
........................................................................

 iter      E             dE          RMSdq      gap      omega  full diag
   1    -42.6470568 -0.426471E+02  0.527E-01    0.62       0.0  T
   2    -42.6469881  0.687864E-04  0.323E-01    0.56       1.0  T
   3    -42.6427446  0.424347E-02  0.348E-01    0.81       1.0  T
   4    -42.6471258 -0.438125E-02  0.556E-02    0.59       1.0  T
   5    -42.6472061 -0.802472E-04  0.168E-02    0.61       1.2  T
   6    -42.6472104 -0.432749E-05  0.704E-03    0.61       2.8  T
   7    -42.6472108 -0.386867E-06  0.312E-03    0.60       6.4  T
   8    -42.6472109 -0.122450E-06  0.120E-03    0.60      16.6  T
   9    -42.6472110 -0.488770E-07  0.528E-04    0.60      37.9  T
  10    -42.6472110 -0.381775E-08  0.145E-04    0.60     137.5  T
     SCC iter.                  ...        0 min,  0.014 sec
     gradient                   ...        0 min,  0.012 sec
 * total energy  :   -73.3385665 Eh     change        0.5831778E-02 Eh
   gradient norm :     0.4931881 Eh/α   predicted    -0.1368857E-02 (-123.47%)
   displ. norm   :     0.3182950 α      lambda       -0.1166432E-01
   maximum displ.:     0.1860236 α      in ANC's #7, #2, #5, ...

........................................................................
.............................. CYCLE   46 ..............................
........................................................................

 iter      E             dE          RMSdq      gap      omega  full diag
   1    -42.6571508 -0.426572E+02  0.287E-01    0.58       0.0  T
   2    -42.6571572 -0.639978E-05  0.178E-01    0.61       1.0  T
   3    -42.6562589  0.898302E-03  0.158E-01    0.50       1.0  T
   4    -42.6571516 -0.892735E-03  0.485E-02    0.61       1.0  T
   5    -42.6572140 -0.623358E-04  0.125E-02    0.59       1.6  T
   6    -42.6572167 -0.279050E-05  0.414E-03    0.59       4.8  T
   7    -42.6572167  0.467493E-07  0.280E-03    0.59       7.1  T
   8    -42.6572169 -0.172190E-06  0.861E-04    0.59      23.2  T
   9    -42.6572169 -0.229285E-07  0.324E-04    0.59      61.8  T
     SCC iter.                  ...        0 min,  0.013 sec
     gradient                   ...        0 min,  0.012 sec
 * total energy  :   -73.3445619 Eh     change       -0.5995467E-02 Eh
   gradient norm :     0.0323589 Eh/α   predicted    -0.6423016E-02 (   7.13%)
   displ. norm   :     0.0825054 α      lambda       -0.3014981E-03
   maximum displ.:     0.0501594 α      in ANC's #7, #2, #5, ...

........................................................................
.............................. CYCLE   47 ..............................
........................................................................

 iter      E             dE          RMSdq      gap      omega  full diag
   1    -42.6593247 -0.426593E+02  0.719E-02    0.59       0.0  T
   2    -42.6593245  0.211844E-06  0.432E-02    0.60       1.0  T
   3    -42.6592842  0.403332E-04  0.347E-02    0.57       1.0  T
   4    -42.6593256 -0.414724E-04  0.419E-03    0.60       4.8  T
   5    -42.6593260 -0.408343E-06  0.168E-03    0.59      11.9  T
   6    -42.6593261 -0.355006E-07  0.778E-04    0.59      25.7  T
   7    -42.6593261 -0.375606E-08  0.457E-04    0.59      43.7  T
     SCC iter.                  ...        0 min,  0.010 sec
     gradient                   ...        0 min,  0.012 sec
 * total energy  :   -73.3447389 Eh     change       -0.1769374E-03 Eh
   gradient norm :     0.0209155 Eh/α   predicted    -0.1518368E-03 ( -14.19%)
   displ. norm   :     0.0379094 α      lambda       -0.8856865E-04
   maximum displ.:     0.0156762 α      in ANC's #3, #6, #9, ...

........................................................................
.............................. CYCLE   48 ..............................
........................................................................

 iter      E             dE          RMSdq      gap      omega  full diag
   1    -42.6594304 -0.426594E+02  0.227E-02    0.60       0.0  T
   2    -42.6594284  0.200336E-05  0.155E-02    0.60       1.3  T
   3    -42.6594233  0.509352E-05  0.182E-02    0.61       1.1  T
   4    -42.6594310 -0.770460E-05  0.407E-03    0.60       4.9  T
   5    -42.6594316 -0.562604E-06  0.940E-04    0.60      21.3  T
   6    -42.6594316 -0.180294E-07  0.414E-04    0.60      48.4  T
     SCC iter.                  ...        0 min,  0.009 sec
     gradient                   ...        0 min,  0.011 sec
 * total energy  :   -73.3448084 Eh     change       -0.6953758E-04 Eh
   gradient norm :     0.0104635 Eh/α   predicted    -0.4436061E-04 ( -36.21%)
   displ. norm   :     0.0980370 α      lambda       -0.1658652E-03
   maximum displ.:     0.0516759 α      in ANC's #3, #9, #4, ...

........................................................................
.............................. CYCLE   49 ..............................
........................................................................

 iter      E             dE          RMSdq      gap      omega  full diag
   1    -42.6592938 -0.426593E+02  0.415E-02    0.62       0.0  T
   2    -42.6592815  0.123415E-04  0.315E-02    0.60       1.0  T
   3    -42.6592773  0.413332E-05  0.315E-02    0.63       1.0  T
   4    -42.6592984 -0.210758E-04  0.763E-03    0.61       2.6  T
   5    -42.6593001 -0.169956E-05  0.199E-03    0.61      10.1  T
   6    -42.6593002 -0.102775E-06  0.888E-04    0.61      22.5  T
   7    -42.6593002 -0.588507E-08  0.511E-04    0.61      39.1  T
     SCC iter.                  ...        0 min,  0.010 sec
     gradient                   ...        0 min,  0.011 sec
 * total energy  :   -73.3449302 Eh     change       -0.1218378E-03 Eh
   gradient norm :     0.0086464 Eh/α   predicted    -0.8376589E-04 ( -31.25%)
   displ. norm   :     0.1343147 α      lambda       -0.1585167E-03
   maximum displ.:     0.0724123 α      in ANC's #3, #1, #4, ...

........................................................................
.............................. CYCLE   50 ..............................
........................................................................

 iter      E             dE          RMSdq      gap      omega  full diag
   1    -42.6588721 -0.426589E+02  0.437E-02    0.63       0.0  T
   2    -42.6588539  0.181650E-04  0.373E-02    0.61       1.0  T
   3    -42.6588644 -0.104336E-04  0.293E-02    0.64       1.0  T
   4    -42.6588799 -0.155008E-04  0.975E-03    0.62       2.1  T
   5    -42.6588822 -0.237348E-05  0.249E-03    0.63       8.0  T
   6    -42.6588824 -0.186566E-06  0.111E-03    0.63      18.0  T
   7    -42.6588824 -0.850780E-08  0.690E-04    0.63      29.0  T
[...]
H            4.34229522848557        0.75781508228500        0.40497022501836
H            0.29562608800756        1.53141379339710       -0.96333796933902
H            2.99422578401494        2.00767898023370        0.01509769818942
H            3.55648164916207       -1.74860430264576        0.62095962629525
H           -1.43557473054021        2.99208243253020        0.47440042088178
H           -2.46897050909753        2.54274865743054       -0.90647251734965
H           -2.86553716568081        1.93244763228315        0.71097520088161
H           -1.23423194291274       -3.08958496825353        0.81924964576606
H           -0.99851055348855       -3.22609902963763       -0.94852064242697
H           -2.49581569374745       -2.52717941117377       -0.28811498252270
H            1.31677088169762       -2.95687694311919        0.41561430343701

 Bond Distances (Angstroems)
 ---------------------------
C1-N2=1.3328         C1-H15=1.0737        C1-H17=1.0763        N2-C1=1.3328         N2-C3=1.3580         N2-C6=1.3831         
C3-N2=1.3580         C3-N4=1.3563         C3-H18=1.0702        N4-C3=1.3563         N4-C5=1.3685         N4-H25=1.0093        
C5-N4=1.3685         C5-C6=1.3767         C5-N13=1.3527        C6-N2=1.3831         C6-C5=1.3767         C6-C7=1.5665         
C7-C6=1.5665         C7-O8=1.3275         C7-N9=1.6268         C7-H16=0.3836        O8-C7=1.3275         N9-C7=1.6268         
N9-C10=1.4348        N9-C11=1.3508        C10-N9=1.4348        C10-H19=1.0933       C10-H20=1.0955       C10-H21=1.0905       
C11-N9=1.3508        C11-O12=1.2094       C11-N13=1.4194       O12-C11=1.2094       N13-C5=1.3527        N13-C11=1.4194       
N13-C14=1.4451       C14-N13=1.4451       C14-H22=1.0924       C14-H23=1.0907       C14-H24=1.0904       H15-C1=1.0737        
H16-C7=0.3836        H17-C1=1.0763        H18-C3=1.0702        H19-C10=1.0933       H20-C10=1.0955       H21-C10=1.0905       
H22-C14=1.0924       H23-C14=1.0907       H24-C14=1.0904       H25-N4=1.0093        
 C  H  Rav=1.0157 sigma=0.2109  Rmin=0.3836  Rmax=1.0955    10
 C  C  Rav=1.4716 sigma=0.0949  Rmin=1.3767  Rmax=1.5665     2
 N  H  Rav=1.0093 sigma=0.0000  Rmin=1.0093  Rmax=1.0093     1
 N  C  Rav=1.4026 sigma=0.0793  Rmin=1.3328  Rmax=1.6268    11
 O  C  Rav=1.2685 sigma=0.0590  Rmin=1.2094  Rmax=1.3275     2

 selected bond angles (degree)
 --------------------
H15-C1-N2=119.43               H17-C1-N2=118.56               H17-C1-H15=121.87              C3-N2-C1=127.34                
C6-N2-C1=125.88                C6-N2-C3=106.78                N4-C3-N2=109.50                H18-C3-N2=125.23               
H18-C3-N4=125.27               C5-N4-C3=108.17                H25-N4-C3=124.96               H25-N4-C5=126.87               
C6-C5-N4=107.27                N13-C5-N4=127.71               N13-C5-C6=124.95               C5-C6-N2=108.26                
C7-C6-N2=128.00                C7-C6-C5=123.73                O8-C7-C6=108.78                N9-C7-C6= 99.37                
N9-C7-O8=107.71                H16-C7-C6=113.79               H16-C7-O8=121.02               H16-C7-N9=103.56               
C10-N9-C7=112.54               C11-N9-C7=128.45               C11-N9-C10=118.50              H19-C10-N9=107.65              
H20-C10-N9=111.05              H20-C10-H19=109.03             H21-C10-N9=110.06              H21-C10-H19=110.60             
H21-C10-H20=108.46             

 selected dihedral angles (degree)
 ---------------------------------
C3-N2-C1-H15=  0.67           C3-N2-C1-H17=184.85           C6-N2-C1-H15=179.84           C6-N2-C1-H17=  4.02           
N4-C3-N2-C1=178.27            N4-C3-N2-C6=358.97            H18-C3-N2-C1=358.66           H18-C3-N2-C6=179.36           
C5-N4-C3-N2=  0.03            C5-N4-C3-H18=179.64           H25-N4-C3-N2=180.91           H25-N4-C3-H18=  0.52          
C6-C5-N4-C3=  0.98            C6-C5-N4-H25=180.08           N13-C5-N4-C3=183.88           N13-C5-N4-H25=  2.98          
C5-C6-N2-C1=182.32            C5-C6-N2-C3=  1.63            C7-C6-N2-C1=  3.04            C7-C6-N2-C3=182.35            
N2-C6-C5-N4=358.38            N2-C6-C5-N13=175.59           C7-C6-C5-N4=177.70            C7-C6-C5-N13=354.90           
O8-C7-C6-N2=314.80            O8-C7-C6-C5=135.62            N9-C7-C6-N2=202.36            N9-C7-C6-C5= 23.18            
H16-C7-C6-N2= 92.94           H16-C7-C6-C5=273.76           C10-N9-C7-C6=158.62           C10-N9-C7-O8= 45.35           
C10-N9-C7-H16=276.03          C11-N9-C7-C6=330.20           C11-N9-C7-O8=216.92           C11-N9-C7-H16= 87.61          
H19-C10-N9-C7=325.04          H19-C10-N9-C11=152.53         H20-C10-N9-C7= 84.31          H20-C10-N9-C11=271.81         
H21-C10-N9-C7=204.43          H21-C10-N9-C11= 31.92         
           -------------------------------------------------
          |                Final Singlepoint                |
           -------------------------------------------------

          ...................................................
          :                      SETUP                      :
          :.................................................:
          :  # basis functions                  67          :
          :  # atomic orbitals                  67          :
          :  # shells                           39          :
          :  # electrons                        74          :
          :  max. iterations                   250          :
          :  Hamiltonian                  GFN2-xTB          :
          :  restarted?                      false          :
          :  GBSA solvation                  false          :
          :  PC potential                    false          :
          :  electronic temp.         7500.0000000     K    :
          :  accuracy                    1.0000000          :
          :  -> integral cutoff          0.2500000E+02      :
          :  -> integral neglect         0.1000000E-07      :
          :  -> SCF convergence          0.1000000E-05 Eh   :
          :  -> wf. convergence          0.1000000E-03 e    :
          :  Broyden damping             0.4000000          :
          ...................................................

 iter      E             dE          RMSdq      gap      omega  full diag
   1    -42.6597383 -0.426597E+02  0.174E-04    0.64       0.0  T
   2    -42.6597383  0.508670E-09  0.198E-04    0.64     100.8  T
   3    -42.6597383 -0.121951E-08  0.552E-05    0.64     362.5  T

   *** convergence criteria satisfied after 3 iterations ***

         #    Occupation            Energy/Eh            Energy/eV
      -------------------------------------------------------------
         1        2.0000           -0.9116070             -24.8061
       ...           ...                  ...                  ...
        31        1.9852           -0.6211673             -16.9028
        32        1.9725           -0.6063106             -16.4986
        33        1.9394           -0.5871095             -15.9761
        34        1.8545           -0.5652275             -15.3806
        35        1.8009           -0.5570832             -15.1590
        36        1.7321           -0.5491156             -14.9422
        37        1.5644           -0.5351466             -14.5621 (HOMO)
        38        1.1464           -0.5117885             -13.9265 (LUMO)
        39        0.0287           -0.4042886             -11.0013
        40        0.0109           -0.3810899             -10.3700
        41        0.0018           -0.3377423              -9.1904
        42        0.0001           -0.2758541              -7.5064
       ...           ...                  ...                  ...
        67                         13.7299622             373.6113
      -------------------------------------------------------------
                  HL-Gap            0.0233581 Eh            0.6356 eV
             Fermi-level           -0.5047824 Eh          -13.7358 eV

 SCC (total)                   0 d,  0 h,  0 min,  0.021 sec
 SCC setup                      ...        0 min,  0.000 sec (  0.887%)
 Dispersion                     ...        0 min,  0.000 sec (  0.951%)
 classical contributions        ...        0 min,  0.000 sec (  0.319%)
 integral evaluation            ...        0 min,  0.004 sec ( 20.807%)
 iterations                     ...        0 min,  0.005 sec ( 22.477%)
 molecular gradient             ...        0 min,  0.011 sec ( 53.841%)
 printout                       ...        0 min,  0.000 sec (  0.655%)

         :::::::::::::::::::::::::::::::::::::::::::::::::::::
         ::                     SUMMARY                     ::
         :::::::::::::::::::::::::::::::::::::::::::::::::::::
         :: total energy             -73.345153158588 Eh    ::
         :: gradient norm              0.003844620379 Eh/a0 ::
         :: HOMO-LUMO gap              0.635606413578 eV    ::
         ::.................................................::
         :: SCC energy               -42.659738306901 Eh    ::
         :: -> isotropic ES            0.147363801201 Eh    ::
         :: -> anisotropic ES         -0.005508720652 Eh    ::
         :: -> anisotropic XC          0.012092917186 Eh    ::
         :: -> dispersion             -0.022786872791 Eh    ::
         :: repulsion energy           2.787653165829 Eh    ::
         :: add. restraining         -33.473207539316 Eh    ::
         :: total charge               1.000000000003 e     ::
         :::::::::::::::::::::::::::::::::::::::::::::::::::::

           -------------------------------------------------
          |                Property Printout                |
           -------------------------------------------------

    * Orbital Energies and Occupations

         #    Occupation            Energy/Eh            Energy/eV
      -------------------------------------------------------------
         1        2.0000           -0.9116070             -24.8061
       ...           ...                  ...                  ...
        25        1.9983           -0.6723084             -18.2944
        26        1.9978           -0.6664038             -18.1338
        27        1.9971           -0.6601241             -17.9629
        28        1.9928           -0.6384429             -17.3729
        29        1.9926           -0.6375876             -17.3496
        30        1.9898           -0.6301356             -17.1469
        31        1.9852           -0.6211673             -16.9028
        32        1.9725           -0.6063106             -16.4986
        33        1.9394           -0.5871095             -15.9761
        34        1.8545           -0.5652275             -15.3806
        35        1.8009           -0.5570832             -15.1590
        36        1.7321           -0.5491156             -14.9422
        37        1.5644           -0.5351466             -14.5621 (HOMO)
        38        1.1464           -0.5117885             -13.9265 (LUMO)
        39        0.0287           -0.4042886             -11.0013
        40        0.0109           -0.3810899             -10.3700
        41        0.0018           -0.3377423              -9.1904
        42        0.0001           -0.2758541              -7.5064
        43        0.0000           -0.2036906              -5.5427
        44        0.0000           -0.1764797              -4.8023
        45        0.0000           -0.1720893              -4.6828
        46                         -0.0922676              -2.5107
        47                         -0.0777014              -2.1144
        48                         -0.0446872              -1.2160
       ...                                ...                  ...
        67                         13.7299622             373.6113
      -------------------------------------------------------------
                  HL-Gap            0.0233581 Eh            0.6356 eV
             Fermi-level           -0.5047824 Eh          -13.7358 eV

     #   Z          covCN         q      C6AA      α(0)
     1   6 C        2.789    -0.062    29.533     8.902
     2   7 N        2.816     0.128    19.052     6.483
     3   6 C        3.036     0.028    27.339     8.576
     4   7 N        2.784    -0.059    22.389     7.028
     5   6 C        3.016     0.112    25.509     8.285
     6   6 C        3.099    -0.019    28.345     8.725
     7   6 C        3.631     0.150    18.527     6.197
     8   8 O        0.861    -0.426    22.203     6.318
     9   7 N        2.703    -0.124    23.698     7.230
    10   6 C        3.700    -0.053    21.689     6.660
    11   6 C        2.719     0.319    21.570     7.603
    12   8 O        0.860    -0.346    20.636     6.091
    13   7 N        2.738    -0.055    22.300     7.014
    14   6 C        3.697    -0.071    22.033     6.714
    15   1 H        0.926     0.115     1.657     2.013
    16   1 H        0.944     0.189     1.157     1.681
    17   1 H        0.926     0.145     1.428     1.869
    18   1 H        0.927     0.125     1.572     1.961
    19   1 H        0.924     0.132     1.520     1.928
    20   1 H        0.924     0.112     1.682     2.028
    21   1 H        0.924     0.118     1.632     1.998
    22   1 H        0.924     0.090     1.884     2.146
    23   1 H        0.924     0.091     1.872     2.140
    24   1 H        0.924     0.132     1.519     1.927
    25   1 H        0.860     0.230     0.966     1.539

 Mol. C6AA /au·bohr⁶  :       6508.847289
 Mol. C8AA /au·bohr⁸  :     149996.278020
 Mol. α(0) /au        :        123.054963


Wiberg/Mayer (AO) data.
largest (>0.10) Wiberg bond orders for each atom

 ---------------------------------------------------------------------------
     #   Z sym  total        # sym  WBO       # sym  WBO       # sym  WBO
 ---------------------------------------------------------------------------
     1   6 C    3.324 --     2 N    1.306    15 H    0.963    17 H    0.950
     2   7 N    3.750 --     1 C    1.306     3 C    1.224     6 C    1.123
     3   6 C    3.615 --     4 N    1.260     2 N    1.224    18 H    0.953
     4   7 N    3.504 --     3 C    1.260     5 C    1.167    25 H    0.918
     5   6 C    3.900 --     6 C    1.398    13 N    1.181     4 N    1.167
     6   6 C    3.676 --     5 C    1.398     2 N    1.123     7 C    0.896
     7   6 C    3.873 --     8 O    1.248    16 H    0.907     6 C    0.896
                             9 N    0.750
     8   8 O    1.397 --     7 C    1.248
     9   7 N    3.250 --    11 C    1.218    10 C    1.016     7 C    0.750
                            12 O    0.131
    10   6 C    3.844 --     9 N    1.016    21 H    0.940    19 H    0.932
                            20 H    0.920
    11   6 C    3.938 --    12 O    1.630     9 N    1.218    13 N    1.010
    12   8 O    1.922 --    11 C    1.630     9 N    0.131
    13   7 N    3.416 --     5 C    1.181    11 C    1.010    14 C    0.985
    14   6 C    3.899 --    13 N    0.985    23 H    0.961    22 H    0.956
                            24 H    0.955
    15   1 H    0.982 --     1 C    0.963
    16   1 H    0.932 --     7 C    0.907
    17   1 H    0.974 --     1 C    0.950
    18   1 H    0.983 --     3 C    0.953
    19   1 H    0.954 --    10 C    0.932
    20   1 H    0.934 --    10 C    0.920
    21   1 H    0.956 --    10 C    0.940
    22   1 H    0.971 --    14 C    0.956
    23   1 H    0.975 --    14 C    0.961
    24   1 H    0.976 --    14 C    0.955
    25   1 H    0.946 --     4 N    0.918
 ---------------------------------------------------------------------------

Topologies differ in total number of bonds
Writing topology from bond orders to xtbtopo.mol

molecular dipole:
                 x           y           z       tot (Debye)
 q only:        2.147      -2.035      -0.265
   full:        2.328      -2.431      -0.286       8.585
molecular quadrupole (traceless):
                xx          xy          yy          xz          yz          zz
 q only:       10.374      -9.949       6.712       2.525      -4.207     -17.087
  q+dip:        8.837     -12.785       6.968       3.215      -6.139     -15.805
   full:        7.978     -12.733       6.400       2.823      -5.638     -14.378

           -------------------------------------------------
          |                Geometry Summary                 |
           -------------------------------------------------

      molecular mass/u    :      195.1988581
   center of mass at/Å    :        0.1104727      -0.0131431      -0.0142098
  moments of inertia/u·Å² :        0.4818108E+03   0.7109529E+03   0.1168598E+04
rotational constants/cm⁻¹ :        0.3498807E-01   0.2371132E-01   0.1442552E-01

 * 23 selected distances

     #   Z          #   Z                                           value/Å
     1   6 C        2   7 N                                       1.3328230
     2   7 N        3   6 C                                       1.3580416
     3   6 C        4   7 N                                       1.3563452
     4   7 N        5   6 C                                       1.3685232
     2   7 N        6   6 C                                       1.3830888
     5   6 C        6   6 C                                       1.3766706
     9   7 N       10   6 C                                       1.4348410
     9   7 N       11   6 C                                       1.3508435
    11   6 C       12   8 O                                       1.2094496
     5   6 C       13   7 N                                       1.3526567
    11   6 C       13   7 N                                       1.4194037
    13   7 N       14   6 C                                       1.4451312 (max)
     1   6 C       15   1 H                                       1.0737042
     7   6 C       16   1 H                                       0.3835599 (min)
     1   6 C       17   1 H                                       1.0762514
     3   6 C       18   1 H                                       1.0702443
    10   6 C       19   1 H                                       1.0933480
    10   6 C       20   1 H                                       1.0954745
    10   6 C       21   1 H                                       1.0905288
    14   6 C       22   1 H                                       1.0923661
    14   6 C       23   1 H                                       1.0907180
    14   6 C       24   1 H                                       1.0904155
     4   7 N       25   1 H                                       1.0092518

 * 5 distinct bonds (by element types)

   Z      Z             #   av. dist./Å        max./Å        min./Å
   1 H    6 C          10     1.0156611     1.0954745     0.3835599
   6 C    6 C           1     1.3766706     1.3766706     1.3766706
   1 H    7 N           1     1.0092518     1.0092518     1.0092518
   6 C    7 N          10     1.3801698     1.4451312     1.3328230
   6 C    8 O           1     1.2094496     1.2094496     1.2094496


optimized geometry written to: xtbopt.xyz


           -------------------------------------------------
          | TOTAL ENERGY              -73.345153158588 Eh   |
          | GRADIENT NORM               0.003844620379 Eh/α |
          | HOMO-LUMO GAP               0.635606413578 eV   |
           -------------------------------------------------

------------------------------------------------------------------------
 * finished run on 2024/06/05 at 19:59:00.390     
------------------------------------------------------------------------
 total:
 * wall-time:     0 d,  0 h,  0 min,  1.709 sec
 *  cpu-time:     0 d,  0 h,  0 min,  1.692 sec
 * ratio c/w:     0.990 speedup
 SCF:
 * wall-time:     0 d,  0 h,  0 min,  0.036 sec
 *  cpu-time:     0 d,  0 h,  0 min,  0.036 sec
 * ratio c/w:     1.000 speedup
 ANC optimizer:
 * wall-time:     0 d,  0 h,  0 min,  1.647 sec
 *  cpu-time:     0 d,  0 h,  0 min,  1.644 sec
 * ratio c/w:     0.998 speedup

