      -----------------------------------------------------------      
     |                   =====================                   |     
     |                           x T B                           |     
     |                   =====================                   |     
     |                         S. Grimme                         |     
     |          Mulliken Center for Theoretical Chemistry        |     
     |                    University of Bonn                     |     
      -----------------------------------------------------------      

   * xtb version 6.6.1 (8d0f1dd) compiled by 'conda@1efc2f54142f' on 2023-08-01

   xtb is free software: you can redistribute it and/or modify it under
   the terms of the GNU Lesser General Public License as published by
   the Free Software Foundation, either version 3 of the License, or
   (at your option) any later version.
   
   xtb is distributed in the hope that it will be useful,
   but WITHOUT ANY WARRANTY; without even the implied warranty of
   MERCHANTABILITY or FITNESS FOR A PARTICULAR PURPOSE.  See the
   GNU Lesser General Public License for more details.
   
   Cite this work as:
   * C. Bannwarth, E. Caldeweyher, S. Ehlert, A. Hansen, P. Pracht,
     J. Seibert, S. Spicher, S. Grimme, WIREs Comput. Mol. Sci., 2020, 11,
     e01493. DOI: 10.1002/wcms.1493
   
   for GFN2-xTB:
   * C. Bannwarth, S. Ehlert and S. Grimme., J. Chem. Theory Comput., 2019,
     15, 1652-1671. DOI: 10.1021/acs.jctc.8b01176
   for GFN1-xTB:
   * S. Grimme, C. Bannwarth, P. Shushkov, J. Chem. Theory Comput., 2017,
     13, 1989-2009. DOI: 10.1021/acs.jctc.7b00118
   for GFN0-xTB:
   * P. Pracht, E. Caldeweyher, S. Ehlert, S. Grimme, ChemRxiv, 2019, preprint.
     DOI: 10.26434/chemrxiv.8326202.v1
   for GFN-FF:
   * S. Spicher and S. Grimme, Angew. Chem. Int. Ed., 2020, 59, 15665-15673.
     DOI: 10.1002/anie.202004239
   
   for ALPB and GBSA implicit solvation:
   * S. Ehlert, M. Stahn, S. Spicher, S. Grimme, J. Chem. Theory Comput.,
     2021, 17, 4250-4261. DOI: 10.1021/acs.jctc.1c00471
   
   for DFT-D4:
   * E. Caldeweyher, C. Bannwarth and S. Grimme, J. Chem. Phys., 2017,
     147, 034112. DOI: 10.1063/1.4993215
   * E. Caldeweyher, S. Ehlert, A. Hansen, H. Neugebauer, S. Spicher,
     C. Bannwarth and S. Grimme, J. Chem. Phys., 2019, 150, 154122.
     DOI: 10.1063/1.5090222
   * E. Caldeweyher, J.-M. Mewes, S. Ehlert and S. Grimme, Phys. Chem. Chem. Phys.
     2020, 22, 8499-8512. DOI: 10.1039/D0CP00502A
   
   for sTDA-xTB:
   * S. Grimme and C. Bannwarth, J. Chem. Phys., 2016, 145, 054103.
     DOI: 10.1063/1.4959605
   
   in the mass-spec context:
   * V. Asgeirsson, C. Bauer and S. Grimme, Chem. Sci., 2017, 8, 4879.
     DOI: 10.1039/c7sc00601b
   * J. Koopman and S. Grimme, ACS Omega 2019, 4, 12, 15120-15133.
     DOI: 10.1021/acsomega.9b02011
   
   for metadynamics refer to:
   * S. Grimme, J. Chem. Theory Comput., 2019, 155, 2847-2862
     DOI: 10.1021/acs.jctc.9b00143
   
   for SPH calculations refer to:
   * S. Spicher and S. Grimme, J. Chem. Theory Comput., 2021, 17, 1701-1714
     DOI: 10.1021/acs.jctc.0c01306
   
   with help from (in alphabetical order)
   P. Atkinson, C. Bannwarth, F. Bohle, G. Brandenburg, E. Caldeweyher
   M. Checinski, S. Dohm, S. Ehlert, S. Ehrlich, I. Gerasimov, C. Hölzer
   A. Katbashev, J. Koopman, C. Lavigne, S. Lehtola, F. März, M. Müller,
   F. Musil, H. Neugebauer, J. Pisarek, C. Plett, P. Pracht, F. Pultar,
   J. Seibert, P. Shushkov, S. Spicher, M. Stahn, M. Steiner, T. Strunk,
   J. Stückrath, T. Rose, and J. Unsleber
   
 * started run on 2024/06/05 at 19:57:57.118     

           -------------------------------------------------
          |                Calculation Setup                |
           -------------------------------------------------

          program call               : xtb struc.xyz --opt loose --input .xc1 --gfn2
          hostname                   : n-62-30-26
          coordinate file            : struc.xyz
          omp threads                :                     1

   ID    Z sym.   atoms
    1    6 C      1, 3, 5-7, 10, 11, 14
    2    7 N      2, 4, 9, 13
    3    8 O      8, 12
    4    1 H      15-25
constraining bond 11 24 to    3.7133300 Å, actual value:    2.4695195 Å

           -------------------------------------------------
          |                 G F N 2 - x T B                 |
           -------------------------------------------------

        Reference                      10.1021/acs.jctc.8b01176
      * Hamiltonian:
        H0-scaling (s, p, d)           1.850000    2.230000    2.230000
        zeta-weighting                 0.500000
      * Dispersion:
        s8                             2.700000
        a1                             0.520000
        a2                             5.000000
        s9                             5.000000
      * Repulsion:
        kExp                           1.500000    1.000000
        rExp                           1.000000
      * Coulomb:
        alpha                          2.000000
        third order                    shell-resolved
        anisotropic                    true
        a3                             3.000000
        a5                             4.000000
        cn-shift                       1.200000
        cn-exp                         4.000000
        max-rad                        5.000000


          ...................................................
          :                      SETUP                      :
          :.................................................:
          :  # basis functions                  67          :
          :  # atomic orbitals                  67          :
          :  # shells                           39          :
          :  # electrons                        74          :
          :  max. iterations                   250          :
          :  Hamiltonian                  GFN2-xTB          :
          :  restarted?                      false          :
          :  GBSA solvation                  false          :
          :  PC potential                    false          :
          :  electronic temp.         5000.0000000     K    :
          :  accuracy                    1.0000000          :
          :  -> integral cutoff          0.2500000E+02      :
          :  -> integral neglect         0.1000000E-07      :
          :  -> SCF convergence          0.1000000E-05 Eh   :
          :  -> wf. convergence          0.1000000E-03 e    :
          :  Broyden damping             0.4000000          :
          ...................................................

 iter      E             dE          RMSdq      gap      omega  full diag
   1    -42.5894031 -0.425894E+02  0.445E+00    3.52       0.0  T
   2    -42.7683054 -0.178902E+00  0.251E+00    3.36       1.0  T
   3    -42.7759211 -0.761567E-02  0.147E+00    3.35       1.0  T
   4    -42.7728404  0.308066E-02  0.553E-01    3.33       1.0  T
   5    -42.7789548 -0.611444E-02  0.112E-01    3.35       1.0  T
   6    -42.7790473 -0.924914E-04  0.614E-02    3.33       1.0  T
   7    -42.7790721 -0.247928E-04  0.258E-02    3.34       1.0  T
   8    -42.7790772 -0.508996E-05  0.938E-03    3.34       2.1  T
   9    -42.7790779 -0.669422E-06  0.448E-03    3.34       4.5  T
  10    -42.7790780 -0.821510E-07  0.115E-03    3.34      17.4  T
  11    -42.7790780 -0.322663E-08  0.553E-04    3.34      36.2  T
  12    -42.7790780 -0.287051E-08  0.180E-04    3.34     111.1  T

   *** convergence criteria satisfied after 12 iterations ***

         #    Occupation            Energy/Eh            Energy/eV
      -------------------------------------------------------------
         1        2.0000           -0.9185990             -24.9964
       ...           ...                  ...                  ...
        31        1.9996           -0.6230278             -16.9534
        32        1.9995           -0.6194601             -16.8564
        33        1.9979           -0.5974976             -16.2587
        34        1.9932           -0.5789629             -15.7544
        35        1.9817           -0.5631863             -15.3251
        36        1.9779           -0.5602245             -15.2445
        37        1.9748           -0.5581234             -15.1873 (HOMO)
        38        0.0652           -0.4353579             -11.8467 (LUMO)
        39        0.0099           -0.4050467             -11.0219
        40        0.0013           -0.3732218             -10.1559
        41        0.0000           -0.2886859              -7.8555
        42                         -0.2065804              -5.6213
       ...                                ...                  ...
        67                          0.5625656              15.3082
      -------------------------------------------------------------
                  HL-Gap            0.1227656 Eh            3.3406 eV
             Fermi-level           -0.4890455 Eh          -13.3076 eV

 SCC (total)                   0 d,  0 h,  0 min,  0.035 sec
 SCC setup                      ...        0 min,  0.000 sec (  0.796%)
 Dispersion                     ...        0 min,  0.000 sec (  0.929%)
 classical contributions        ...        0 min,  0.000 sec (  0.250%)
 integral evaluation            ...        0 min,  0.006 sec ( 16.238%)
 iterations                     ...        0 min,  0.017 sec ( 46.861%)
 molecular gradient             ...        0 min,  0.012 sec ( 34.512%)
 printout                       ...        0 min,  0.000 sec (  0.380%)

         :::::::::::::::::::::::::::::::::::::::::::::::::::::
         ::                     SUMMARY                     ::
         :::::::::::::::::::::::::::::::::::::::::::::::::::::
         :: total energy             -47.772525252069 Eh    ::
         :: gradient norm              6.648077043278 Eh/a0 ::
         :: HOMO-LUMO gap              3.340621582928 eV    ::
         ::.................................................::
         :: SCC energy               -42.779077977399 Eh    ::
         :: -> isotropic ES            0.141123876439 Eh    ::
         :: -> anisotropic ES         -0.005230418907 Eh    ::
         :: -> anisotropic XC          0.011966818540 Eh    ::
         :: -> dispersion             -0.022657731803 Eh    ::
         :: repulsion energy           0.531105277918 Eh    ::
         :: add. restraining          -5.524666711597 Eh    ::
         :: total charge               1.000000000002 e     ::
         :::::::::::::::::::::::::::::::::::::::::::::::::::::

      ----------------------------------------------------------- 
     |                   =====================                   |
     |                        A N C O P T                        |
     |                   =====================                   |
     |               Approximate Normal Coordinate               |
     |                Rational Function Optimizer                |
      ----------------------------------------------------------- 

          ...................................................
          :                      SETUP                      :
          :.................................................:
          :   optimization level             loose          :
          :   max. optcycles                   200          :
          :   ANC micro-cycles                  20          :
          :   degrees of freedom                69          :
          :.................................................:
          :   RF solver                   davidson          :
          :   write xtbopt.log                true          :
          :   linear?                        false          :
          :   energy convergence         0.5000000E-04 Eh   :
          :   grad. convergence          0.4000000E-02 Eh/α :
          :   maxmium RF displ.          1.0000000          :
          :   Hlow (freq-cutoff)         0.1000000E-01      :
          :   Hmax (freq-cutoff)         5.0000000          :
          :   S6 in model hess.         20.0000000          :
          ...................................................

generating ANC from model Hessian ...
Using Lindh-Hessian (1995)
 Shifting diagonal of input Hessian by    3.4558564827146845     
 Lowest  eigenvalues of input Hessian
    0.010000    0.000000    0.000000    0.000000    0.000000    0.000000
    0.000000    3.458960    3.460292    3.462410    3.464650    3.466696
    3.468958    3.474128    3.478196    3.480544    3.491446    3.496840
 Highest eigenvalues
    5.545535    5.607612    5.673087    5.786815    5.895946    6.946274


........................................................................
.............................. CYCLE    1 ..............................
........................................................................

 iter      E             dE          RMSdq      gap      omega  full diag
   1    -42.7790780 -0.427791E+02  0.626E-05    3.34       0.0  T
   2    -42.7790780 -0.124416E-10  0.329E-05    3.34     607.4  T
   3    -42.7790780  0.127898E-12  0.193E-05    3.34    1034.2  T
     SCC iter.                  ...        0 min,  0.005 sec
     gradient                   ...        0 min,  0.012 sec
 * total energy  :   -47.7725253 Eh     change       -0.6650680E-10 Eh
   gradient norm :     6.6480769 Eh/α   predicted     0.0000000E+00 (-100.00%)
   displ. norm   :     0.9952867 α      lambda       -0.6579011E+01
   maximum displ.:     0.9898109 α      in ANC's #1, #62, #61, ...

........................................................................
.............................. CYCLE    2 ..............................
........................................................................

 iter      E             dE          RMSdq      gap      omega  full diag
   1    -42.7031562 -0.427032E+02  0.154E+00    3.20       0.0  T
   2    -42.7319145 -0.287584E-01  0.900E-01    2.48       1.0  T
   3    -42.7362150 -0.430049E-02  0.453E-01    2.83       1.0  T
   4    -42.7360388  0.176276E-03  0.254E-01    2.56       1.0  T
   5    -42.7367767 -0.737980E-03  0.712E-02    2.73       1.0  T
   6    -42.7368800 -0.103257E-03  0.155E-02    2.70       1.3  T
   7    -42.7368808 -0.780617E-06  0.639E-03    2.70       3.1  T
   8    -42.7368809 -0.173880E-06  0.170E-03    2.70      11.8  T
   9    -42.7368810 -0.210517E-07  0.652E-04    2.70      30.7  T
  10    -42.7368810 -0.145855E-08  0.188E-04    2.70     106.2  T
     SCC iter.                  ...        0 min,  0.013 sec
     gradient                   ...        0 min,  0.012 sec
 * total energy  :   -56.2411357 Eh     change       -0.8468610E+01 Eh
   gradient norm :    10.4294967 Eh/α   predicted    -0.6567071E+01 ( -22.45%)
   displ. norm   :     0.9965533 α      lambda       -0.1037956E+02
   maximum displ.:     0.9900861 α      in ANC's #1, #62, #61, ...

........................................................................
.............................. CYCLE    3 ..............................
........................................................................

 iter      E             dE          RMSdq      gap      omega  full diag
   1    -42.5259189 -0.425259E+02  0.119E+00    2.50       0.0  T
   2    -42.5311388 -0.521990E-02  0.134E+00    1.40       1.0  T
   3    -42.5571863 -0.260475E-01  0.562E-01    1.97       1.0  T
   4    -42.5509802  0.620614E-02  0.546E-01    1.60       1.0  T
   5    -42.5578701 -0.688995E-02  0.163E-01    1.84       1.0  T
   6    -42.5583112 -0.441089E-03  0.372E-02    1.90       1.0  T
   7    -42.5583296 -0.184149E-04  0.175E-02    1.89       1.1  T
   8    -42.5583329 -0.333389E-05  0.480E-03    1.89       4.2  T
   9    -42.5583334 -0.413003E-06  0.192E-03    1.89      10.4  T
  10    -42.5583334 -0.610753E-07  0.844E-04    1.89      23.7  T
  11    -42.5583334 -0.314715E-08  0.324E-04    1.89      61.7  T
     SCC iter.                  ...        0 min,  0.015 sec
     gradient                   ...        0 min,  0.012 sec
 * total energy  :   -68.5462434 Eh     change       -0.1230511E+02 Eh
   gradient norm :    14.2505232 Eh/α   predicted    -0.1034386E+02 ( -15.94%)
   displ. norm   :     0.9966148 α      lambda       -0.1418804E+02
   maximum displ.:     0.9875746 α      in ANC's #1, #62, #61, ...

........................................................................
.............................. CYCLE    4 ..............................
........................................................................

 iter      E             dE          RMSdq      gap      omega  full diag
   1    -42.3258574 -0.423259E+02  0.273E+00    0.60       0.0  T
   2    -42.3453253 -0.194679E-01  0.172E+00    2.33       1.0  T
   3    -42.4484541 -0.103129E+00  0.603E-01    1.27       1.0  T
   4    -42.4476855  0.768676E-03  0.395E-01    1.42       1.0  T
   5    -42.4481347 -0.449229E-03  0.297E-01    1.24       1.0  T
   6    -42.4510346 -0.289994E-02  0.549E-02    1.38       1.0  T
   7    -42.4510630 -0.283366E-04  0.277E-02    1.39       1.0  T
   8    -42.4510841 -0.211053E-04  0.143E-02    1.38       1.4  T
   9    -42.4510865 -0.237586E-05  0.643E-03    1.38       3.1  T
  10    -42.4510871 -0.626067E-06  0.144E-03    1.38      13.9  T
  11    -42.4510871 -0.152988E-07  0.888E-04    1.38      22.5  T
  12    -42.4510871 -0.164835E-07  0.407E-04    1.38      49.2  T
     SCC iter.                  ...        0 min,  0.015 sec
     gradient                   ...        0 min,  0.012 sec
 * total energy  :   -78.7351209 Eh     change       -0.1018888E+02 Eh
   gradient norm :    16.2224050 Eh/α   predicted    -0.1414010E+02 (  38.78%)
   displ. norm   :     0.4317308 α      lambda       -0.7000237E+01
   maximum displ.:     0.4244260 α      in ANC's #1, #61, #62, ...

........................................................................
.............................. CYCLE    5 ..............................
........................................................................

 iter      E             dE          RMSdq      gap      omega  full diag
   1    -42.4805277 -0.424805E+02  0.957E-01    1.45       0.0  T
   2    -42.4841284 -0.360073E-02  0.651E-01    1.61       1.0  T
   3    -42.4915231 -0.739476E-02  0.363E-01    1.28       1.0  T
   4    -42.4930769 -0.155374E-02  0.311E-01    1.64       1.0  T
   5    -42.4955510 -0.247416E-02  0.451E-02    1.48       1.0  T
   6    -42.4955784 -0.273965E-04  0.236E-02    1.48       1.0  T
   7    -42.4955891 -0.106787E-04  0.988E-03    1.46       2.0  T
   8    -42.4955911 -0.202621E-05  0.489E-03    1.47       4.1  T
   9    -42.4955915 -0.404616E-06  0.172E-03    1.47      11.6  T
  10    -42.4955916 -0.346482E-07  0.831E-04    1.47      24.1  T
  11    -42.4955916 -0.962152E-08  0.320E-04    1.47      62.4  T
     SCC iter.                  ...        0 min,  0.014 sec
     gradient                   ...        0 min,  0.012 sec
 * total energy  :   -76.7045215 Eh     change        0.2030599E+01 Eh
   gradient norm :    13.2479698 Eh/α   predicted    -0.4152510E+01 (-304.50%)
   displ. norm   :     0.1915141 α      lambda       -0.2487015E+01
   maximum displ.:     0.1801714 α      in ANC's #1, #62, #61, ...

........................................................................
.............................. CYCLE    6 ..............................
........................................................................

 iter      E             dE          RMSdq      gap      omega  full diag
   1    -42.4759704 -0.424760E+02  0.499E-01    1.21       0.0  T
   2    -42.4736784  0.229203E-02  0.478E-01    1.68       1.0  T
   3    -42.4806741 -0.699571E-02  0.201E-01    1.25       1.0  T
   4    -42.4818992 -0.122507E-02  0.103E-01    1.41       1.0  T
   5    -42.4821123 -0.213147E-03  0.333E-02    1.36       1.0  T
   6    -42.4821245 -0.121553E-04  0.160E-02    1.36       1.3  T
   7    -42.4821343 -0.984101E-05  0.361E-03    1.36       5.5  T
   8    -42.4821344 -0.977452E-07  0.194E-03    1.36      10.3  T
   9    -42.4821344 -0.372444E-07  0.646E-04    1.36      30.9  T
  10    -42.4821344 -0.171245E-08  0.396E-04    1.36      50.6  T
     SCC iter.                  ...        0 min,  0.013 sec
     gradient                   ...        0 min,  0.012 sec
 * total energy  :   -78.8373727 Eh     change       -0.2132851E+01 Eh
   gradient norm :     8.6488525 Eh/α   predicted    -0.1289120E+01 ( -39.56%)
   displ. norm   :     0.3266115 α      lambda       -0.2766474E+01
   maximum displ.:     0.3133768 α      in ANC's #1, #62, #61, ...

........................................................................
.............................. CYCLE    7 ..............................
........................................................................

 iter      E             dE          RMSdq      gap      omega  full diag
   1    -42.4350311 -0.424350E+02  0.101E+00    0.99       0.0  T
   2    -42.4306169  0.441419E-02  0.834E-01    1.70       1.0  T
   3    -42.4494137 -0.187968E-01  0.344E-01    1.15       1.0  T
   4    -42.4503286 -0.914955E-03  0.243E-01    1.36       1.0  T
   5    -42.4521519 -0.182323E-02  0.520E-02    1.28       1.0  T
   6    -42.4522098 -0.579678E-04  0.184E-02    1.28       1.1  T
   7    -42.4522174 -0.755710E-05  0.597E-03    1.29       3.3  T
   8    -42.4522177 -0.338901E-06  0.278E-03    1.29       7.2  T
   9    -42.4522178 -0.481755E-07  0.981E-04    1.29      20.4  T
  10    -42.4522178 -0.137735E-07  0.407E-04    1.29      49.1  T
     SCC iter.                  ...        0 min,  0.013 sec
     gradient                   ...        0 min,  0.012 sec
 * total energy  :   -76.8984429 Eh     change        0.1938930E+01 Eh
   gradient norm :    39.2955360 Eh/α   predicted    -0.1530800E+01 (-178.95%)
   displ. norm   :     0.2461702 α      lambda       -0.9432480E+01
   maximum displ.:     0.2213851 α      in ANC's #1, #60, #59, ...

........................................................................
.............................. CYCLE    8 ..............................
........................................................................

 iter      E             dE          RMSdq      gap      omega  full diag
   1    -42.4730514 -0.424731E+02  0.554E-01    1.39       0.0  T
   2    -42.4749857 -0.193428E-02  0.270E-01    1.42       1.0  T
   3    -42.4756901 -0.704450E-03  0.194E-01    1.37       1.0  T
   4    -42.4755700  0.120143E-03  0.155E-01    1.52       1.0  T
   5    -42.4763046 -0.734594E-03  0.436E-02    1.42       1.0  T
   6    -42.4763643 -0.596771E-04  0.938E-03    1.44       2.1  T
   7    -42.4763656 -0.134936E-05  0.400E-03    1.44       5.0  T
   8    -42.4763658 -0.178076E-06  0.267E-03    1.44       7.5  T
   9    -42.4763660 -0.167873E-06  0.846E-04    1.44      23.6  T
  10    -42.4763660 -0.132450E-07  0.335E-04    1.44      59.7  T
     SCC iter.                  ...        0 min,  0.013 sec
     gradient                   ...        0 min,  0.012 sec
 * total energy  :   -79.3401099 Eh     change       -0.2441667E+01 Eh
   gradient norm :     5.0123021 Eh/α   predicted    -0.5002055E+01 ( 104.86%)
   displ. norm   :     0.2076447 α      lambda       -0.2356802E+00
   maximum displ.:     0.1490234 α      in ANC's #60, #62, #61, ...

........................................................................
.............................. CYCLE    9 ..............................
........................................................................

 iter      E             dE          RMSdq      gap      omega  full diag
   1    -42.4725836 -0.424726E+02  0.546E-01    1.06       0.0  T
   2    -42.4518862  0.206974E-01  0.937E-01    1.88       1.0  T
   3    -42.4828636 -0.309774E-01  0.215E-01    1.31       1.0  T
   4    -42.4821432  0.720437E-03  0.210E-01    1.38       1.0  T
   5    -42.4829579 -0.814781E-03  0.637E-02    1.25       1.0  T
   6    -42.4831622 -0.204228E-03  0.181E-02    1.29       1.1  T
   7    -42.4831698 -0.766157E-05  0.474E-03    1.29       4.2  T
   8    -42.4831698  0.269211E-07  0.327E-03    1.29       6.1  T
   9    -42.4831700 -0.153327E-06  0.105E-03    1.29      19.0  T
  10    -42.4831700 -0.339466E-07  0.391E-04    1.29      51.2  T
  11    -42.4831700 -0.260115E-08  0.180E-04    1.29     111.3  T
     SCC iter.                  ...        0 min,  0.014 sec
     gradient                   ...        0 min,  0.012 sec
 * total energy  :   -79.4493963 Eh     change       -0.1092864E+00 Eh
   gradient norm :     3.5863908 Eh/α   predicted    -0.1229184E+00 (  12.47%)
   displ. norm   :     0.0949216 α      lambda       -0.1902301E+00
   maximum displ.:     0.0527368 α      in ANC's #1, #59, #50, ...

........................................................................
.............................. CYCLE   10 ..............................
........................................................................

 iter      E             dE          RMSdq      gap      omega  full diag
   1    -42.4801553 -0.424802E+02  0.235E-01    1.13       0.0  T
   2    -42.4732155  0.693973E-02  0.483E-01    1.56       1.0  T
   3    -42.4824743 -0.925882E-02  0.946E-02    1.26       1.0  T
   4    -42.4824097  0.646790E-04  0.871E-02    1.29       1.0  T
   5    -42.4826029 -0.193277E-03  0.147E-02    1.25       1.4  T
   6    -42.4826057 -0.279255E-05  0.732E-03    1.25       2.7  T
   7    -42.4826071 -0.139437E-05  0.442E-03    1.25       4.5  T
   8    -42.4826076 -0.490245E-06  0.145E-03    1.25      13.8  T
   9    -42.4826077 -0.506952E-07  0.463E-04    1.25      43.2  T
  10    -42.4826077  0.407184E-09  0.346E-04    1.25      57.8  T
     SCC iter.                  ...        0 min,  0.013 sec
     gradient                   ...        0 min,  0.012 sec
 * total energy  :   -79.5365742 Eh     change       -0.8717794E-01 Eh
   gradient norm :     0.5939941 Eh/α   predicted    -0.9597221E-01 (  10.09%)
   displ. norm   :     0.0382112 α      lambda       -0.6462793E-02
   maximum displ.:     0.0167864 α      in ANC's #61, #62, #32, ...

........................................................................
.............................. CYCLE   11 ..............................
........................................................................

 iter      E             dE          RMSdq      gap      omega  full diag
   1    -42.4841609 -0.424842E+02  0.126E-01    1.13       0.0  T
   2    -42.4800594  0.410144E-02  0.348E-01    1.44       1.0  T
   3    -42.4849096 -0.485014E-02  0.821E-02    1.25       1.0  T
   4    -42.4850077 -0.981304E-04  0.495E-02    1.24       1.0  T
   5    -42.4850728 -0.651076E-04  0.993E-03    1.22       2.0  T
   6    -42.4850736 -0.807811E-06  0.232E-03    1.22       8.6  T
   7    -42.4850736  0.119043E-07  0.207E-03    1.22       9.7  T
   8    -42.4850737 -0.122650E-06  0.481E-04    1.22      41.6  T
   9    -42.4850737 -0.442543E-08  0.172E-04    1.22     116.3  T
     SCC iter.                  ...        0 min,  0.012 sec
     gradient                   ...        0 min,  0.012 sec
 * total energy  :   -79.5418440 Eh     change       -0.5269804E-02 Eh
   gradient norm :     0.1751572 Eh/α   predicted    -0.3236425E-02 ( -38.59%)
   displ. norm   :     0.1531247 α      lambda       -0.1715612E-01
   maximum displ.:     0.0595199 α      in ANC's #61, #62, #32, ...

........................................................................
.............................. CYCLE   12 ..............................
........................................................................

 iter      E             dE          RMSdq      gap      omega  full diag
   1    -42.4725408 -0.424725E+02  0.608E-01    0.66       0.0  T
   2    -42.3916025  0.809384E-01  0.159E+00    2.24       1.0  T
   3    -42.4862742 -0.946717E-01  0.499E-01    1.32       1.0  T
   4    -42.4930005 -0.672626E-02  0.242E-01    1.15       1.0  T
   5    -42.4943389 -0.133843E-02  0.661E-02    1.01       1.0  T
   6    -42.4944961 -0.157249E-03  0.235E-02    1.04       1.0  T
   7    -42.4945247 -0.285668E-04  0.864E-03    1.05       2.3  T
   8    -42.4945261 -0.141186E-05  0.432E-03    1.05       4.6  T
   9    -42.4945265 -0.373055E-06  0.142E-03    1.05      14.1  T
  10    -42.4945265 -0.525136E-07  0.715E-04    1.05      28.0  T
  11    -42.4945265 -0.992471E-08  0.317E-04    1.05      63.2  T
     SCC iter.                  ...        0 min,  0.014 sec
     gradient                   ...        0 min,  0.012 sec
 * total energy  :   -79.5545043 Eh     change       -0.1266030E-01 Eh
   gradient norm :     0.5574057 Eh/α   predicted    -0.8779302E-02 ( -30.65%)
   displ. norm   :     0.2159665 α      lambda       -0.1844901E-01
   maximum displ.:     0.0712982 α      in ANC's #59, #34, #32, ...

........................................................................
.............................. CYCLE   13 ..............................
........................................................................

 iter      E             dE          RMSdq      gap      omega  full diag
   1    -42.4591643 -0.424592E+02  0.890E-01    0.29       0.0  T
   2    -42.2676865  0.191478E+00  0.246E+00    2.74       1.0  T
   3    -42.4775965 -0.209910E+00  0.902E-01    1.33       1.0  T
   4    -42.5029459 -0.253495E-01  0.394E-01    0.99       1.0  T
   5    -42.5062622 -0.331625E-02  0.129E-01    0.75       1.0  T
   6    -42.5069379 -0.675749E-03  0.570E-02    0.80       1.0  T
   7    -42.5071082 -0.170280E-03  0.118E-02    0.83       1.7  T
   8    -42.5071058  0.245035E-05  0.117E-02    0.82       1.7  T
   9    -42.5071101 -0.432098E-05  0.505E-03    0.83       4.0  T
  10    -42.5071111 -0.987493E-06  0.120E-03    0.83      16.6  T
  11    -42.5071111 -0.415013E-07  0.326E-04    0.83      61.3  T
  12    -42.5071111 -0.207855E-08  0.117E-04    0.83     170.2  T
     SCC iter.                  ...        0 min,  0.015 sec
     gradient                   ...        0 min,  0.012 sec
 * total energy  :   -79.5684012 Eh     change       -0.1389684E-01 Eh
   gradient norm :     0.8794480 Eh/α   predicted    -0.9656202E-02 ( -30.52%)
   displ. norm   :     0.2842638 α      lambda       -0.2341435E-01
   maximum displ.:     0.1161410 α      in ANC's #59, #34, #32, ...

........................................................................
.............................. CYCLE   14 ..............................
........................................................................

 iter      E             dE          RMSdq      gap      omega  full diag
   1    -42.4662572 -0.424663E+02  0.939E-01    0.10       0.0  T
   2    -42.1744380  0.291819E+00  0.303E+00    2.82       1.0  T
   3    -42.4671165 -0.292679E+00  0.124E+00    1.25       1.0  T
   4    -42.5142509 -0.471344E-01  0.481E-01    0.81       1.0  T
   5    -42.5191809 -0.492992E-02  0.121E-01    0.57       1.0  T
   6    -42.5199158 -0.734918E-03  0.459E-02    0.62       1.0  T
   7    -42.5200029 -0.871081E-04  0.115E-02    0.64       1.7  T
   8    -42.5199973  0.559758E-05  0.137E-02    0.64       1.5  T
   9    -42.5200041 -0.681461E-05  0.296E-03    0.64       6.8  T
  10    -42.5200043 -0.205558E-06  0.112E-03    0.64      17.8  T
  11    -42.5200043 -0.149143E-08  0.898E-04    0.64      22.3  T
  12    -42.5200043 -0.280455E-07  0.382E-04    0.64      52.4  T
     SCC iter.                  ...        0 min,  0.015 sec
     gradient                   ...        0 min,  0.012 sec
 * total energy  :   -79.5863406 Eh     change       -0.1793942E-01 Eh
   gradient norm :     0.6918892 Eh/α   predicted    -0.1265334E-01 ( -29.47%)
   displ. norm   :     0.3190066 α      lambda       -0.2382230E-01
   maximum displ.:     0.1491367 α      in ANC's #59, #34, #50, ...

........................................................................
.............................. CYCLE   15 ..............................
........................................................................

 iter      E             dE          RMSdq      gap      omega  full diag
   1    -42.5051520 -0.425052E+02  0.612E-01    0.23       0.0  T
   2    -42.2791837  0.225968E+00  0.262E+00    2.02       1.0  T
   3    -42.4950386 -0.215855E+00  0.102E+00    0.97       1.0  T
   4    -42.5248538 -0.298151E-01  0.343E-01    0.65       1.0  T
   5    -42.5272701 -0.241632E-02  0.469E-02    0.55       1.0  T
   6    -42.5272843 -0.142720E-04  0.187E-02    0.55       1.1  T
   7    -42.5272910 -0.662890E-05  0.943E-03    0.55       2.1  T
   8    -42.5272917 -0.740435E-06  0.460E-03    0.55       4.4  T
   9    -42.5272921 -0.351759E-06  0.168E-03    0.55      11.9  T
  10    -42.5272921 -0.388249E-07  0.111E-03    0.54      18.0  T
  11    -42.5272921 -0.330869E-07  0.404E-04    0.55      49.6  T
  12    -42.5272921 -0.544202E-08  0.116E-04    0.55     172.7  T
     SCC iter.                  ...        0 min,  0.015 sec
     gradient                   ...        0 min,  0.012 sec
 * total energy  :   -79.6030910 Eh     change       -0.1675035E-01 Eh
   gradient norm :     0.1614411 Eh/α   predicted    -0.1312342E-01 ( -21.65%)
   displ. norm   :     0.2480034 α      lambda       -0.1254430E-01
   maximum displ.:     0.1248290 α      in ANC's #59, #34, #32, ...

........................................................................
.............................. CYCLE   16 ..............................
........................................................................

 iter      E             dE          RMSdq      gap      omega  full diag
   1    -42.5240911 -0.425241E+02  0.315E-01    0.44       0.0  T
   2    -42.4771778  0.469133E-01  0.121E+00    1.06       1.0  T
   3    -42.5243709 -0.471931E-01  0.373E-01    0.65       1.0  T
   4    -42.5252918 -0.920937E-03  0.309E-01    0.65       1.0  T
   5    -42.5276927 -0.240093E-02  0.635E-02    0.55       1.0  T
   6    -42.5277849 -0.921837E-04  0.232E-02    0.54       1.0  T
   7    -42.5277961 -0.111223E-04  0.110E-02    0.54       1.8  T
   8    -42.5277989 -0.281908E-05  0.436E-03    0.54       4.6  T
   9    -42.5277993 -0.466489E-06  0.104E-03    0.53      19.2  T
  10    -42.5277994 -0.219433E-07  0.476E-04    0.53      42.0  T
  11    -42.5277994 -0.578692E-08  0.188E-04    0.53     106.2  T
     SCC iter.                  ...        0 min,  0.014 sec
     gradient                   ...        0 min,  0.012 sec
 * total energy  :   -79.6125515 Eh     change       -0.9460589E-02 Eh
   gradient norm :     0.2321302 Eh/α   predicted    -0.6658156E-02 ( -29.62%)
   displ. norm   :     0.2574857 α      lambda       -0.1282042E-01
   maximum displ.:     0.1369629 α      in ANC's #59, #34, #17, ...

........................................................................
.............................. CYCLE   17 ..............................
........................................................................

 iter      E             dE          RMSdq      gap      omega  full diag
   1    -42.5224955 -0.425225E+02  0.337E-01    0.51       0.0  T
   2    -42.5135075  0.898799E-02  0.581E-01    0.77       1.0  T
   3    -42.5207904 -0.728285E-02  0.326E-01    0.41       1.0  T
   4    -42.5236722 -0.288184E-02  0.191E-01    0.61       1.0  T
   5    -42.5243417 -0.669532E-03  0.856E-02    0.58       1.0  T
   6    -42.5245103 -0.168589E-03  0.349E-02    0.56       1.0  T
   7    -42.5245408 -0.304897E-04  0.147E-02    0.55       1.4  T
   8    -42.5245462 -0.537340E-05  0.443E-03    0.55       4.5  T
   9    -42.5245466 -0.435434E-06  0.139E-03    0.55      14.4  T
  10    -42.5245467 -0.476100E-07  0.375E-04    0.55      53.3  T
  11    -42.5245467 -0.570623E-09  0.206E-04    0.55      97.2  T
     SCC iter.                  ...        0 min,  0.014 sec
     gradient                   ...        0 min,  0.012 sec
 * total energy  :   -79.6219289 Eh     change       -0.9377320E-02 Eh
   gradient norm :     0.2564920 Eh/α   predicted    -0.6835266E-02 ( -27.11%)
   displ. norm   :     0.1819685 α      lambda       -0.1137618E-01
   maximum displ.:     0.0985056 α      in ANC's #59, #47, #17, ...

........................................................................
.............................. CYCLE   18 ..............................
........................................................................

 iter      E             dE          RMSdq      gap      omega  full diag
   1    -42.5204323 -0.425204E+02  0.296E-01    0.52       0.0  T
   2    -42.5208014 -0.369049E-03  0.187E-01    0.47       1.0  T
   3    -42.5190176  0.178379E-02  0.263E-01    0.61       1.0  T
   4    -42.5202280 -0.121040E-02  0.189E-01    0.44       1.0  T
   5    -42.5213223 -0.109432E-02  0.448E-02    0.52       1.0  T
   6    -42.5213637 -0.413449E-04  0.144E-02    0.51       1.4  T
   7    -42.5213662 -0.258878E-05  0.927E-03    0.51       2.2  T
   8    -42.5213684 -0.216553E-05  0.280E-03    0.51       7.1  T
   9    -42.5213685 -0.122737E-06  0.106E-03    0.51      18.9  T
  10    -42.5213686 -0.245560E-07  0.348E-04    0.51      57.5  T
  11    -42.5213686 -0.411156E-09  0.193E-04    0.51     103.5  T
     SCC iter.                  ...        0 min,  0.014 sec
     gradient                   ...        0 min,  0.013 sec
 * total energy  :   -79.6301854 Eh     change       -0.8256555E-02 Eh
   gradient norm :     0.1566259 Eh/α   predicted    -0.5876614E-02 ( -28.82%)
   displ. norm   :     0.1265211 α      lambda       -0.8696049E-02
   maximum displ.:     0.0524946 α      in ANC's #47, #50, #59, ...

........................................................................
.............................. CYCLE   19 ..............................
........................................................................

 iter      E             dE          RMSdq      gap      omega  full diag
   1    -42.5205448 -0.425205E+02  0.261E-01    0.51       0.0  T
   2    -42.5148442  0.570059E-02  0.448E-01    0.31       1.0  T
   3    -42.5198329 -0.498872E-02  0.234E-01    0.56       1.0  T
   4    -42.5212354 -0.140250E-02  0.117E-01    0.44       1.0  T
   5    -42.5214445 -0.209050E-03  0.339E-02    0.47       1.0  T
   6    -42.5214707 -0.261803E-04  0.120E-02    0.47       1.7  T
   7    -42.5214752 -0.453650E-05  0.314E-03    0.47       6.4  T
   8    -42.5214753 -0.477502E-07  0.140E-03    0.47      14.3  T
   9    -42.5214753 -0.109152E-07  0.537E-04    0.47      37.3  T
  10    -42.5214753 -0.400086E-08  0.282E-04    0.47      70.9  T
     SCC iter.                  ...        0 min,  0.013 sec
     gradient                   ...        0 min,  0.012 sec
 * total energy  :   -79.6357941 Eh     change       -0.5608658E-02 Eh
   gradient norm :     0.0694478 Eh/α   predicted    -0.4417747E-02 ( -21.23%)
   displ. norm   :     0.0701290 α      lambda       -0.2711542E-02
   maximum displ.:     0.0350389 α      in ANC's #50, #40, #41, ...

........................................................................
.............................. CYCLE   20 ..............................
........................................................................

 iter      E             dE          RMSdq      gap      omega  full diag
   1    -42.5238851 -0.425239E+02  0.116E-01    0.49       0.0  T
   2    -42.5224434  0.144176E-02  0.225E-01    0.39       1.0  T
   3    -42.5239284 -0.148502E-02  0.899E-02    0.50       1.0  T
   4    -42.5240399 -0.111520E-03  0.629E-02    0.46       1.0  T
   5    -42.5241140 -0.740769E-04  0.151E-02    0.47       1.3  T
   6    -42.5241174 -0.345502E-05  0.843E-03    0.47       2.4  T
   7    -42.5241193 -0.180570E-05  0.374E-03    0.47       5.3  T
   8    -42.5241196 -0.370675E-06  0.950E-04    0.47      21.1  T
   9    -42.5241196 -0.114290E-07  0.288E-04    0.47      69.4  T
     SCC iter.                  ...        0 min,  0.012 sec
     gradient                   ...        0 min,  0.012 sec
 * total energy  :   -79.6377806 Eh     change       -0.1986565E-02 Eh
   gradient norm :     0.0774755 Eh/α   predicted    -0.1362520E-02 ( -31.41%)
   displ. norm   :     0.0810333 α      lambda       -0.2994909E-02
   maximum displ.:     0.0311931 α      in ANC's #40, #50, #62, ...
 * RMSD in coord.:     0.6743008 α      energy gain  -0.3186526E+02 Eh

generating ANC from model Hessian ...
Using Lindh-Hessian (1995)
 Shifting diagonal of input Hessian by    9.1028916798864094E-003
 Lowest  eigenvalues of input Hessian
    0.000000    0.000000    0.000000    0.000000    0.000000    0.000000
    0.010000    0.011124    0.012683    0.013680    0.013780    0.018175
    0.018662    0.018880    0.022012    0.026341    0.027574    0.030616
 Highest eigenvalues
    2.098734    2.137550    2.250579    2.350653   42.841000   56.081164


........................................................................
.............................. CYCLE   21 ..............................
........................................................................

 iter      E             dE          RMSdq      gap      omega  full diag
   1    -42.5289722 -0.425290E+02  0.108E-01    0.50       0.0  T
   2    -42.5286095  0.362682E-03  0.134E-01    0.45       1.0  T
   3    -42.5285911  0.183981E-04  0.125E-01    0.54       1.0  T
   4    -42.5289877 -0.396583E-03  0.693E-02    0.47       1.0  T
   5    -42.5290967 -0.109002E-03  0.147E-02    0.49       1.4  T
   6    -42.5291004 -0.366858E-05  0.939E-03    0.49       2.1  T
   7    -42.5291023 -0.195902E-05  0.422E-03    0.49       4.7  T
   8    -42.5291029 -0.524808E-06  0.764E-04    0.49      26.2  T
   9    -42.5291029 -0.865741E-08  0.279E-04    0.49      71.6  T
     SCC iter.                  ...        0 min,  0.012 sec
     gradient                   ...        0 min,  0.012 sec
 * total energy  :   -79.6400652 Eh     change       -0.2284520E-02 Eh
   gradient norm :     0.1000431 Eh/α   predicted     0.0000000E+00 (-100.00%)
   displ. norm   :     0.5279332 α      lambda       -0.4293199E-01
   maximum displ.:     0.3608879 α      in ANC's #24, #25, #4, ...

........................................................................
.............................. CYCLE   22 ..............................
........................................................................

 iter      E             dE          RMSdq      gap      omega  full diag
   1    -42.4742754 -0.424743E+02  0.676E-01    0.50       0.0  T
   2    -42.4742312  0.442720E-04  0.439E-01    0.47       1.0  T
   3    -42.4740375  0.193669E-03  0.377E-01    0.57       1.0  T
   4    -42.4567737  0.172638E-01  0.720E-01    0.21       1.0  T
   5    -42.4763286 -0.195549E-01  0.316E-02    0.50       1.0  T
   6    -42.4763363 -0.769927E-05  0.210E-02    0.49       1.0  T
   7    -42.4763422 -0.594288E-05  0.987E-03    0.49       2.0  T
   8    -42.4763437 -0.142637E-05  0.429E-03    0.49       4.7  T
   9    -42.4763441 -0.401826E-06  0.162E-03    0.50      12.4  T
  10    -42.4763441 -0.559282E-07  0.613E-04    0.50      32.6  T
  11    -42.4763441 -0.374547E-08  0.198E-04    0.50     100.9  T
     SCC iter.                  ...        0 min,  0.014 sec
     gradient                   ...        0 min,  0.013 sec
================
 final structure:
================
25
 xtb: 6.6.1 (8d0f1dd)
C            3.21786164340000        1.13591514650000        0.01837059260000
N            2.27034809790000        0.05199982890000        0.00038279530000
C            2.54167221030000       -1.23971668410000       -0.00834188300000
N            1.39367826450000       -1.95088267900000       -0.00850347120000
C            0.35269634020000       -1.06748964300000        0.00059917290000
C            0.90759959010000        0.20069750900000        0.00663590170000
C            0.07590235260000        1.39864294500000       -0.00284827040000
O            0.48715076820000        2.53168346660000       -0.01725767220000
N           -1.27221500230000        1.06666939660000        0.00165480230000
C           -2.23229981500000        2.16656245330000       -0.00245172030000
C           -1.84872931540000       -0.19179276200000        0.00496135950000
O           -3.03273030250000       -0.36103538130000        0.00858583760000
N           -0.96599111670000       -1.30060631840000        0.00174701630000
C           -1.52030655580000       -2.64076660390000       -0.00239033190000
H            3.71480285180000        1.18589984860000        0.98803183970000
H            3.97079415090000        0.99383197990000       -0.75543416370000
H            2.68321036910000        2.07051068580000       -0.15067179540000
H            3.52469367910000       -1.66989040330000       -0.01523639120000
H           -1.67672429040000        3.10039111610000        0.00486339690000
H           -2.85755792270000        2.10547813320000       -0.89185337000000
H           -2.87119733260000        2.09858159720000        0.87661144540000
H           -1.20589108080000       -3.18768007210000        0.88663215920000
H           -1.21982032550000       -3.17678505510000       -0.90288069810000
H           -2.60531402170000       -2.54255916880000        0.00649952960000
H            1.32879827740000       -2.95942079410000       -0.01653446370000

 Bond Distances (Angstroems)
 ---------------------------
C1-N2=1.4398         C1-H15=1.0907        C1-H16=1.0890        C1-H17=1.0899        N2-C1=1.4398         N2-C3=1.3199         
N2-C6=1.3709         C3-N2=1.3199         C3-N4=1.3504         C3-H18=1.0730        N4-C3=1.3504         N4-C5=1.3653         
N4-H25=1.0107        C5-N4=1.3653         C5-C6=1.3843         C5-N13=1.3391        C6-N2=1.3709         C6-C5=1.3843         
C6-C7=1.4584         C7-C6=1.4584         C7-O8=1.2055         C7-N9=1.3884         O8-C7=1.2055         N9-C7=1.3884         
N9-C10=1.4600        N9-C11=1.3842        C10-N9=1.4600        C10-H19=1.0866       C10-H20=1.0889       C10-H21=1.0888       
C11-N9=1.3842        C11-O12=1.1960       C11-N13=1.4173       O12-C11=1.1960       N13-C5=1.3391        N13-C11=1.4173       
N13-C14=1.4503       C14-N13=1.4503       C14-H22=1.0901       C14-H23=1.0902       C14-H24=1.0895       H15-C1=1.0907        
H16-C1=1.0890        H17-C1=1.0899        H18-C3=1.0730        H19-C10=1.0866       H20-C10=1.0889       H21-C10=1.0888       
H22-C14=1.0901       H23-C14=1.0902       H24-C14=1.0895       H25-N4=1.0107        
 C  H  Rav=1.0877 sigma=0.0050  Rmin=1.0730  Rmax=1.0907    10
 C  C  Rav=1.4213 sigma=0.0370  Rmin=1.3843  Rmax=1.4584     2
 N  H  Rav=1.0107 sigma=0.0000  Rmin=1.0107  Rmax=1.0107     1
 N  C  Rav=1.3896 sigma=0.0445  Rmin=1.3199  Rmax=1.4600    11
 O  C  Rav=1.2007 sigma=0.0047  Rmin=1.1960  Rmax=1.2055     2

 selected bond angles (degree)
 --------------------
H15-C1-N2=110.21               H16-C1-N2=110.36               H16-C1-H15=108.82              H17-C1-N2=108.71               
H17-C1-H15=108.79              H17-C1-H16=109.93              C3-N2-C1=126.98                C6-N2-C1=124.92                
C6-N2-C3=108.09                N4-C3-N2=109.91                H18-C3-N2=125.50               H18-C3-N4=124.59               
C5-N4-C3=107.90                H25-N4-C3=125.46               H25-N4-C5=126.64               C6-C5-N4=106.69                
N13-C5-N4=129.66               N13-C5-C6=123.66               C5-C6-N2=107.40                C7-C6-N2=130.99                
C7-C6-C5=121.59                O8-C7-C6=125.28                N9-C7-C6=110.94                N9-C7-O8=123.78                
C10-N9-C7=117.28               C11-N9-C7=128.45               C11-N9-C10=114.27              H19-C10-N9=108.13              
H20-C10-N9=109.73              H20-C10-H19=110.32             H21-C10-N9=109.67              H21-C10-H19=110.38             
H21-C10-H20=108.60             

 selected dihedral angles (degree)
 ---------------------------------
C3-N2-C1-H15=289.54           C3-N2-C1-H16= 49.76           C3-N2-C1-H17=170.39           C6-N2-C1-H15=108.66           
C6-N2-C1-H16=228.88           C6-N2-C1-H17=349.51           N4-C3-N2-C1=179.26            N4-C3-N2-C6=  0.00            
H18-C3-N2-C1=359.21           H18-C3-N2-C6=179.97           C5-N4-C3-N2=  0.00            C5-N4-C3-H18=180.05           
H25-N4-C3-N2=179.85           H25-N4-C3-H18=359.90          C6-C5-N4-C3=  0.00            C6-C5-N4-H25=180.14           
N13-C5-N4-C3=179.88           N13-C5-N4-H25=  0.03          C5-C6-N2-C1=180.71            C5-C6-N2-C3=359.97            
C7-C6-N2-C1=  1.78            C7-C6-N2-C3=181.03            N2-C6-C5-N4=  0.03            N2-C6-C5-N13=180.13           
C7-C6-C5-N4=179.08            C7-C6-C5-N13=359.18           O8-C7-C6-N2=359.91            O8-C7-C6-C5=181.10            
N9-C7-C6-N2=179.67            N9-C7-C6-C5=  0.86            C10-N9-C7-C6=179.81           C10-N9-C7-O8=359.58           
C11-N9-C7-C6=359.56           C11-N9-C7-O8=179.33           H19-C10-N9-C7=359.25          H19-C10-N9-C11=179.46         
H20-C10-N9-C7=119.63          H20-C10-N9-C11=299.84         H21-C10-N9-C7=238.84          H21-C10-N9-C11= 59.06         
           -------------------------------------------------
          |                Final Singlepoint                |
           -------------------------------------------------

          ...................................................
          :                      SETUP                      :
          :.................................................:
          :  # basis functions                  67          :
          :  # atomic orbitals                  67          :
          :  # shells                           39          :
          :  # electrons                        74          :
          :  max. iterations                   250          :
          :  Hamiltonian                  GFN2-xTB          :
          :  restarted?                      false          :
          :  GBSA solvation                  false          :
          :  PC potential                    false          :
          :  electronic temp.         5000.0000000     K    :
          :  accuracy                    1.0000000          :
          :  -> integral cutoff          0.2500000E+02      :
          :  -> integral neglect         0.1000000E-07      :
          :  -> SCF convergence          0.1000000E-05 Eh   :
          :  -> wf. convergence          0.1000000E-03 e    :
          :  Broyden damping             0.4000000          :
          ...................................................

 iter      E             dE          RMSdq      gap      omega  full diag
   1    -42.6473771 -0.426474E+02  0.283E+00    2.88       0.0  T
   2    -42.7563380 -0.108961E+00  0.190E+00    3.46       1.0  T
   3    -42.7781773 -0.218393E-01  0.103E+00    3.34       1.0  T
   4    -42.7773931  0.784213E-03  0.291E-01    3.41       1.0  T
   5    -42.7789837 -0.159063E-02  0.868E-02    3.32       1.0  T
   6    -42.7790612 -0.775256E-04  0.399E-02    3.35       1.0  T
   7    -42.7790762 -0.149761E-04  0.160E-02    3.34       1.2  T
   8    -42.7790776 -0.139666E-05  0.646E-03    3.34       3.1  T
   9    -42.7790779 -0.357761E-06  0.301E-03    3.34       6.6  T
  10    -42.7790780 -0.216359E-07  0.113E-03    3.34      17.7  T
  11    -42.7790780 -0.103347E-07  0.344E-04    3.34      58.1  T
  12    -42.7790780 -0.465320E-09  0.145E-04    3.34     137.6  T

   *** convergence criteria satisfied after 12 iterations ***

         #    Occupation            Energy/Eh            Energy/eV
      -------------------------------------------------------------
         1        2.0000           -0.9185982             -24.9963
       ...           ...                  ...                  ...
        31        1.9996           -0.6230274             -16.9534
        32        1.9995           -0.6194600             -16.8564
        33        1.9979           -0.5974984             -16.2588
        34        1.9932           -0.5789636             -15.7544
        35        1.9817           -0.5631866             -15.3251
        36        1.9779           -0.5602254             -15.2445
        37        1.9748           -0.5581231             -15.1873 (HOMO)
        38        0.0652           -0.4353575             -11.8467 (LUMO)
        39        0.0099           -0.4050462             -11.0219
        40        0.0013           -0.3732218             -10.1559
        41        0.0000           -0.2886860              -7.8555
        42                         -0.2065801              -5.6213
       ...                                ...                  ...
        67                          0.5625653              15.3082
      -------------------------------------------------------------
                  HL-Gap            0.1227656 Eh            3.3406 eV
             Fermi-level           -0.4890455 Eh          -13.3076 eV

 SCC (total)                   0 d,  0 h,  0 min,  0.033 sec
 SCC setup                      ...        0 min,  0.000 sec (  0.496%)
 Dispersion                     ...        0 min,  0.000 sec (  0.444%)
 classical contributions        ...        0 min,  0.000 sec (  0.176%)
 integral evaluation            ...        0 min,  0.004 sec ( 11.041%)
 iterations                     ...        0 min,  0.016 sec ( 47.815%)
 molecular gradient             ...        0 min,  0.013 sec ( 39.655%)
 printout                       ...        0 min,  0.000 sec (  0.340%)

         :::::::::::::::::::::::::::::::::::::::::::::::::::::
         ::                     SUMMARY                     ::
         :::::::::::::::::::::::::::::::::::::::::::::::::::::
         :: total energy             -47.772525252022 Eh    ::
         :: gradient norm              6.648076779073 Eh/a0 ::
         :: HOMO-LUMO gap              3.340621035229 eV    ::
         ::.................................................::
         :: SCC energy               -42.779077977352 Eh    ::
         :: -> isotropic ES            0.141124726529 Eh    ::
         :: -> anisotropic ES         -0.005230386357 Eh    ::
         :: -> anisotropic XC          0.011966821538 Eh    ::
         :: -> dispersion             -0.022657728967 Eh    ::
         :: repulsion energy           0.531105277918 Eh    ::
         :: add. restraining          -5.524666711597 Eh    ::
         :: total charge               1.000000000002 e     ::
         :::::::::::::::::::::::::::::::::::::::::::::::::::::


last geometry written to: xtblast.xyz

########################################################################
[ERROR] Program stopped due to fatal error
-5- Geometry optimization failed
-4- xtb_geoopt: Trying to recover from failed geometry optimization
-3- xtb_geoopt: Geometry optimization did not converge
-2- optimizer_ancopt: Could not relax structure
-1- optimizer_relax: |grad| > 500, something is totally wrong!
########################################################################
