25
 energy: -43.822856290780 gnorm: 0.204248548699 xtb: 6.6.1 (8d0f1dd)
C            3.24788756511686        1.17479882903713        0.08676349982762
N            2.30498918678924        0.09702789186045        0.03916694617175
C            2.59813317479440       -1.22334708751469        0.03264078532670
N            1.42168270185104       -1.93454656998174        0.00825513284439
C            0.36404356901960       -1.05625752173264       -0.00810596933811
C            0.91380171489517        0.21689641276155        0.01289480768832
C            0.08308925582522        1.36253028358148       -0.01363256837214
O            0.51162158180400        2.51185398770423       -0.03197366463493
N           -1.32258773293866        1.03699672219441       -0.03947382667967
C           -2.20148208036363        2.18170765707160       -0.03839222017180
C           -1.98227289370168       -0.20451781275172       -0.10017914973182
O           -3.10680337914729       -0.40459891015412       -0.10556978093850
N           -0.98041504599911       -1.29408777102718       -0.04526201637056
C           -1.44838302436286       -2.66379936456614       -0.05529954896690
H            3.73574861962040        1.21898711696835        1.06819615843327
H            4.02853207549034        1.03892951198974       -0.67387590752474
H            2.71243169486759        2.10506376798954       -0.08772874162258
H            3.58689605356681       -1.64145127904404        0.04707561708464
H           -1.61916012624107        3.11023076107738       -0.03273117371058
H           -2.81739362946442        2.16101968653360       -0.90795665365492
H           -2.82150113785170        2.14252341501260        0.85402204804671
H           -1.13658993769404       -3.20732858009771        0.83475330327132
H           -1.12033891490241       -3.18876288456801       -0.95048067417735
H           -2.53541156509575       -2.59518576001415       -0.06658816085679
H            1.40267303602372       -2.93820549897157       -0.00513773557550
25
 energy: -43.834674041408 gnorm: 0.053547908156 xtb: 6.6.1 (8d0f1dd)
C            3.24704759638004        1.17672949576760        0.08829614966019
N            2.30309468573336        0.10400430430812        0.03698210638181
C            2.59449465354422       -1.23522739811864        0.03348382896843
N            1.41174966161943       -1.93818279342889        0.00639795795113
C            0.37590109678238       -1.05783590466255       -0.00847252109957
C            0.91306190905690        0.22194067829953        0.01125967615603
C            0.09020828325940        1.36856838395559       -0.01756908600690
O            0.48723372880400        2.53825325170275       -0.03274415539115
N           -1.30534753270446        1.03830335153556       -0.03733027164645
C           -2.20854552808762        2.17521710896242       -0.03720429337718
C           -1.91692562955475       -0.19852754893932       -0.07582141840408
O           -3.09143297552948       -0.40851516213996       -0.11001258664574
N           -0.96349526146304       -1.29773915738952       -0.04417850985923
C           -1.45651771525550       -2.65755309605742       -0.05914859746675
H            3.73461669938676        1.22092992707430        1.06885324124178
H            4.02055376728979        1.04122014746425       -0.67456787347244
H            2.70974246226058        2.10626233239870       -0.08580275142834
H            3.57463218059300       -1.65702749171065        0.04882588311307
H           -1.60971250069085        3.08840728188854       -0.03249376443458
H           -2.83659366739198        2.15949017848546       -0.91932778623845
H           -2.83351027623444        2.14893447469504        0.85626022855900
H           -1.13528164880687       -3.20050470787854        0.83157485113693
H           -1.12062330620397       -3.18722646205492       -0.95259834337450
H           -2.54473073644488       -2.60104140164085       -0.06712022746057
H            1.37957081555976       -2.94240278915827       -0.00616123049460
25
 energy: -43.835596241479 gnorm: 0.015729644007 xtb: 6.6.1 (8d0f1dd)
C            3.24540128789411        1.17674372015353        0.08607437719707
N            2.29673371668045        0.10926235223504        0.03420854656517
C            2.59764975621147       -1.23253857514119        0.03377121199801
N            1.41222933100374       -1.93593738166530        0.00923908534739
C            0.37305140732696       -1.06520432839927       -0.00985016679912
C            0.90493185963931        0.21440231072890        0.01012656040671
C            0.08751617404513        1.35494543773254       -0.01809162655248
O            0.48700660719479        2.52416708040138       -0.02571994824015
N           -1.31082077252236        1.03412862122572       -0.04778666564384
C           -2.20352402211445        2.18171249828926       -0.03060978470794
C           -1.90201403526074       -0.19758543468513       -0.09471366045344
O           -3.09450127433264       -0.40399840565743       -0.12442286511529
N           -0.97273022903799       -1.29975737074028       -0.04886693137235
C           -1.46193242419579       -2.65835115419905       -0.05298183249380
H            3.73137799900089        1.21996609669139        1.06696965682666
H            4.02280635179901        1.03794013439459       -0.67159819288835
H            2.71178706629954        2.10796691171935       -0.09097816990893
H            3.58226447083054       -1.63895255358848        0.04443664438432
H           -1.61194160896157        3.09983973516604       -0.02065646096342
H           -2.83009796108005        2.16917982943190       -0.91617334552811
H           -2.82816215314992        2.13752609567580        0.85975958773088
H           -1.14105060442632       -3.20085452352936        0.84143291791524
H           -1.12048126738941       -3.19169964367648       -0.94399813155974
H           -2.54676252776430       -2.59657895533826       -0.06570230081397
H            1.39045361421136       -2.93984549386689       -0.00248799896268
25
 energy: -43.835376536284 gnorm: 0.019786406711 xtb: 6.6.1 (8d0f1dd)
C            3.24889544526689        1.17322144702305        0.08975135872970
N            2.29620356804225        0.10954851011559        0.03666661941793
C            2.59640266453482       -1.23589394154894        0.03581841367281
N            1.40754720962762       -1.93336848346127        0.00626810177057
C            0.37087966834122       -1.06293311653766       -0.00612301984084
C            0.90312822454442        0.21594436027829        0.01523350682708
C            0.08658025774066        1.35501014829291       -0.01602791156453
O            0.48831449078095        2.52349986031687       -0.03666592099167
N           -1.31713232895417        1.03446846094763       -0.03774533527884
C           -2.20708002520093        2.18300136770510       -0.03761435302802
C           -1.89926297553757       -0.19709307706145       -0.06771172455218
O           -3.09687018564128       -0.40267107158374       -0.08636919985780
N           -0.97876145412625       -1.29500229279197       -0.04162825003717
C           -1.45730673715283       -2.65581566151972       -0.06136966313200
H            3.73828441612966        1.21476881798874        1.06917991177306
H            4.02308926854844        1.03831168133149       -0.67218379834379
H            2.71444838175052        2.10527460617441       -0.08153591898348
H            3.57974367488287       -1.64400652542584        0.04744918823588
H           -1.61494866302298        3.09985472571869       -0.04946214787057
H           -2.83345075539026        2.14942149940415       -0.92227777976666
H           -2.83047390863713        2.15220025290977        0.85227771975556
H           -1.12737968002173       -3.20885652005422        0.82398487027286
H           -1.11790652851148       -3.17652962833277       -0.96142810104270
H           -2.54079726014939       -2.59820878922032       -0.06780394717409
H            1.38704399405747       -2.93766962731048       -0.00930211262330
25
 energy: -43.835963063366 gnorm: 0.005523573842 xtb: 6.6.1 (8d0f1dd)
C            3.24844598434074        1.17492747259165        0.08756384193120
N            2.29959593408294        0.10772111435277        0.03528846862935
C            2.59603565128661       -1.23827816324562        0.03609837010257
N            1.40777821803386       -1.93452277095507        0.00683261290963
C            0.37352699402599       -1.06037762526635       -0.00982423558606
C            0.90734288327876        0.21944159223421        0.01168193938748
C            0.08910722014813        1.36135453080756       -0.01709504976753
O            0.48870287491669        2.53090940445171       -0.03162829673677
N           -1.31492936572698        1.03503359471611       -0.04211624907682
C           -2.20837023422623        2.17920350927875       -0.03300270188639
C           -1.90074338291273       -0.19911350372034       -0.08310407376291
O           -3.09277366442978       -0.40584901961909       -0.10894369366322
N           -0.97517181412415       -1.29380933704520       -0.04836488233571
C           -1.45746082677637       -2.65486337475889       -0.05810477513982
H            3.73552874901596        1.22136776768826        1.06809862903241
H            4.02212682649089        1.04133522977168       -0.67520932389685
H            2.71048065781773        2.10481870370467       -0.08650272546900
H            3.57705801547108       -1.65312896349688        0.05003942176420
H           -1.60961238373388        3.09088132751719       -0.02994368432880
H           -2.83407426956361        2.15933583582728       -0.91751797810354
H           -2.83290560009522        2.14322273179508        0.85651431541221
H           -1.13426188757222       -3.19727580848100        0.83472622143884
H           -1.11799974764361       -3.18811985714857       -0.95013591979034
H           -2.54221967239493       -2.59823773794522       -0.06801506674698
H            1.38398360219210       -2.93949964969636       -0.00595465794933
25
 energy: -43.835949187539 gnorm: 0.005312129548 xtb: 6.6.1 (8d0f1dd)
C            3.24617889604228        1.17678091228929        0.08849176415653
N            2.29864417750724        0.10889266884775        0.03464504039307
C            2.59742025926020       -1.23526042395182        0.03248215478991
N            1.41140942053001       -1.93544182408389        0.00801527916956
C            0.37460985687637       -1.06350700596659       -0.00692669146769
C            0.90677167741414        0.21775840015368        0.01217595203702
C            0.08941270020598        1.35988127894878       -0.01627859844220
O            0.48802208771163        2.52919697809658       -0.02966012094961
N           -1.31410728245231        1.03435493600837       -0.04255819472616
C           -2.20566579218722        2.18077212088256       -0.03518648331621
C           -1.90077452368733       -0.20132342499104       -0.08234434394768
O           -3.09244981207977       -0.40581192197608       -0.11273488878707
N           -0.97480917867702       -1.29707032494199       -0.04409712179844
C           -1.46116667517232       -2.65776257354161       -0.05596332107496
H            3.73131011819655        1.21962260144185        1.06988553957260
H            4.02208340777902        1.03958749863703       -0.67094720779069
H            2.71148986462973        2.10852969391238       -0.08714140144831
H            3.58074966932294       -1.64450848927451        0.04062238350702
H           -1.60952362805102        3.09473195458871       -0.03166983238148
H           -2.83225306264412        2.16338065091393       -0.91928529243274
H           -2.82929544561611        2.14665395519124        0.85547719752623
H           -1.13896308969250       -3.20604875202763        0.83371697372815
H           -1.12403425807118       -3.18707335367554       -0.95079842815791
H           -2.54671091153112       -2.59925869440846       -0.06437271765471
H            1.39084228628771       -2.94059985771465       -0.00416713413644
25
 energy: -43.836006065061 gnorm: 0.002422078487 xtb: 6.6.1 (8d0f1dd)
C            3.24754690700985        1.17494658450202        0.08732468577184
N            2.29841775622697        0.10830616744605        0.03508179572942
C            2.59604165462231       -1.23636713914470        0.03598691642190
N            1.40925855064234       -1.93496983212893        0.00760566901016
C            0.37366856947603       -1.06248624351100       -0.00869475472030
C            0.90630502245657        0.21810414569480        0.01140246467117
C            0.08933267846088        1.35986397644406       -0.01805067388900
O            0.48816526411187        2.52886670149782       -0.03124613780186
N           -1.31492700385184        1.03494702447051       -0.04286069429006
C           -2.20717978424797        2.18056281734335       -0.03352549046563
C           -1.90110716156738       -0.20038468975669       -0.08269490772515
O           -3.09362701308150       -0.40385876417105       -0.10973461905625
N           -0.97588473167922       -1.29521322878872       -0.04661673896963
C           -1.45866850030065       -2.65651996662658       -0.05749465357625
H            3.73485832755943        1.21849234516262        1.06759855913226
H            4.02226069255187        1.03764296780879       -0.67343699256074
H            2.71286779969689        2.10662274184808       -0.08779389951134
H            3.57896905172658       -1.64625057690507        0.04901249712457
H           -1.61321622606145        3.09600443874943       -0.03064306133919
H           -2.83410166813713        2.16129013193455       -0.91735602582906
H           -2.83048670764153        2.14386076726065        0.85729676420995
H           -1.13504055812270       -3.20149795878936        0.83383172300418
H           -1.11796847285900       -3.18603321749215       -0.95105534372426
H           -2.54402087240642       -2.59942549344594       -0.06780574218462
H            1.38772718731698       -2.94002669604424       -0.00475083306428
25
 energy: -43.835994204493 gnorm: 0.002954408313 xtb: 6.6.1 (8d0f1dd)
C            3.24722187133400        1.17554026541939        0.08854272145852
N            2.29908868196807        0.10776026887655        0.03525408558313
C            2.59605061277984       -1.23766610108746        0.03426868063437
N            1.40846217092117       -1.93485115363592        0.00581914311133
C            0.37367087893270       -1.06207227602723       -0.00943187099681
C            0.90667463264496        0.21806712333029        0.01233398378626
C            0.08976876246272        1.35961352949331       -0.01598278389773
O            0.48855866528366        2.52861307700173       -0.03003869966474
N           -1.31495282572901        1.03420429119679       -0.04171303927430
C           -2.20644137217366        2.17951831629296       -0.03448390879611
C           -1.90074862991017       -0.20090006217808       -0.08223834835888
O           -3.09349475368764       -0.40419355445774       -0.10805134203498
N           -0.97610476360370       -1.29441803490620       -0.04733330333724
C           -1.45852171387868       -2.65565132659799       -0.05685095924896
H            3.73469376774721        1.22085190817240        1.06880875998080
H            4.02166146105359        1.04326744813529       -0.67365243626532
H            2.70908062723519        2.10546771714064       -0.08450694125264
H            3.57837848725037       -1.64943884362523        0.04582896368064
H           -1.60889871052813        3.09256454009101       -0.03214390241100
H           -2.83119190213830        2.15907034589182       -0.91973224623696
H           -2.83192704947460        2.14431802036946        0.85483188823356
H           -1.13463265459161       -3.19882940108351        0.83539223003750
H           -1.11979488852920       -3.18754366382118       -0.94983367760526
H           -2.54341401583317       -2.59701389104474       -0.06603929160070
H            1.38600342236620       -2.93980153958804       -0.00766719915667
25
 energy: -43.836015302260 gnorm: 0.001048365149 xtb: 6.6.1 (8d0f1dd)
C            3.24774031824301        1.17543288109375        0.08765330404310
N            2.29907029402837        0.10825872988806        0.03511284217188
C            2.59624356675912       -1.23689249026185        0.03527087907259
N            1.40910236427381       -1.93464350032096        0.00801928419342
C            0.37391848778110       -1.06209639377233       -0.00830938295628
C            0.90660177317023        0.21847905539683        0.01202079493773
C            0.08956584196552        1.36017872126838       -0.01712161139286
O            0.48800313408076        2.52928992456679       -0.03144864036673
N           -1.31514128962382        1.03459268212719       -0.04220522396442
C           -2.20703115301519        2.17991086683463       -0.03369054991172
C           -1.90076620524310       -0.20119751988664       -0.08246709706175
O           -3.09321765568221       -0.40454183592627       -0.10948999446722
N           -0.97586910528879       -1.29484282527628       -0.04658636658569
C           -1.45889602411397       -2.65630254848461       -0.05776429552602
H            3.73413492683149        1.22058101075248        1.06843565176077
H            4.02280649648776        1.03978586514209       -0.67323809344061
H            2.71171977710878        2.10623829504269       -0.08760672106208
H            3.57886027838960       -1.64803887477264        0.04665390719329
H           -1.61037734009723        3.09353526318536       -0.03128542898424
H           -2.83349387697614        2.16058113196628       -0.91778330168429
H           -2.83102585446943        2.14465473374303        0.85668618641474
H           -1.13573005880608       -3.20174545368867        0.83331002710822
H           -1.12020414072916       -3.18670313122264       -0.95154343645230
H           -2.54399343492467       -2.59837074763008       -0.06711294719920
H            1.38716964175201       -2.93966683640627       -0.00412927947251
25
 energy: -43.835996457096 gnorm: 0.002665324400 xtb: 6.6.1 (8d0f1dd)
C            3.24708771938088        1.17494774851681        0.08842463511507
N            2.29844707453541        0.10818519583970        0.03495304393995
C            2.59605229904373       -1.23645728302644        0.03444665065316
N            1.40954908548496       -1.93507874554490        0.00529177465038
C            0.37390480094243       -1.06267615987771       -0.00909750213203
C            0.90616363537477        0.21817538514003        0.01140818548936
C            0.08978775539359        1.36028574174921       -0.01739200320174
O            0.48851575929878        2.52918083262312       -0.03001832932724
N           -1.31492767908381        1.03541715903136       -0.04301592288889
C           -2.20717007110363        2.18087825723776       -0.03471767530646
C           -1.90084505993969       -0.20090645672397       -0.08272358078889
O           -3.09327882746787       -0.40343016628504       -0.11028297021035
N           -0.97594722449387       -1.29511937177458       -0.04618185416617
C           -1.45866100485602       -2.65683000326476       -0.05575528284518
H            3.73480810262395        1.21640952180353        1.06859572593939
H            4.02108327482139        1.03828738648793       -0.67315884087937
H            2.71240561516777        2.10704067208659       -0.08485658833059
H            3.57917794470526       -1.64611922890248        0.04720178190377
H           -1.61365499027462        3.09661682889167       -0.03122595358507
H           -2.83366990777157        2.16196069850960       -0.91887420646009
H           -2.83110409606176        2.14451971587496        0.85569005707387
H           -1.13503318360403       -3.20097127166800        0.83600367854976
H           -1.11766319335682       -3.18701323209927       -0.94871570320044
H           -2.54414794270343       -2.60062797397125       -0.06608606861421
H            1.38831087584598       -2.94019824729553       -0.00853254501019
25
 energy: -43.781312079023 gnorm: 0.412071636600 xtb: 6.6.1 (8d0f1dd)
C            3.26045081051800        1.17980425994452        0.09007717106889
N            2.30320885651652        0.11970302136603        0.03781127013286
C            2.61407043583715       -1.23191749042789        0.04062023258568
N            1.40467889126151       -1.93085476182546        0.01496635791709
C            0.33872788216068       -1.06203269151016       -0.01181840963554
C            0.89251041425287        0.21398761664247        0.00820420102885
C            0.06294034020027        1.32616796224790       -0.02849263635874
O            0.48827753292045        2.47959136429392       -0.06791997291839
N           -1.39559518013965        1.01571660644585       -0.05088710558995
C           -2.18489717504298        2.20906449952114       -0.02729793080926
C           -2.14722408000209       -0.20400714869448       -0.15362241314901
O           -3.20786584620949       -0.43583306956220       -0.15105635194742
N           -1.03398093196335       -1.28464108452338       -0.05545822128893
C           -1.42542235094216       -2.67934414164963       -0.05107691833250
H            3.75965895109507        1.21880392867529        1.06972654177610
H            4.04472961216821        1.03232123242901       -0.66698923180178
H            2.72637847679944        2.11088557068838       -0.08368707303753
H            3.60258629734626       -1.63286866256782        0.05776682376977
H           -1.56793773409643        3.12795384412500       -0.04316294086892
H           -2.82297310975293        2.23010994261752       -0.86586504911172
H           -2.77136882445991        2.21250861726612        0.89176425685979
H           -1.10196775381700       -3.21687840019727        0.83647781164783
H           -1.09481556933822       -3.20202830645562       -0.94432995704217
H           -2.51718975537491       -2.63474365569861       -0.05900259580980
H            1.42625549433212       -2.93844551844247        0.00003318742705
25
 energy: -43.820426541369 gnorm: 0.066565083221 xtb: 6.6.1 (8d0f1dd)
C            3.25284800482480        1.17617330280434        0.09087999576291
N            2.29342851778523        0.11592235549361        0.03655558738918
C            2.59346768680143       -1.23487471954717        0.04173165374450
N            1.39775397197057       -1.93515269015581        0.01293306259662
C            0.35071279266378       -1.06637491791116       -0.01240707990709
C            0.89239592788096        0.21389692202600        0.00675131094929
C            0.06770256124599        1.33815634029240       -0.03411679887405
O            0.46332252981499        2.50574033608177       -0.06700886772457
N           -1.36457022625056        1.02803797492470       -0.04948140547146
C           -2.19759458579684        2.20967216646270       -0.02458992758593
C           -2.03105583515853       -0.19139845456192       -0.11894733637102
O           -3.19057611874138       -0.44295796884109       -0.15813052659646
N           -1.00170571413126       -1.29738064981647       -0.05522059093227
C           -1.44087821029012       -2.67597856899067       -0.05643215095048
H            3.75050532202647        1.21745903123102        1.06914042383731
H            4.03180139251790        1.03276800212126       -0.66785010824375
H            2.72618055100104        2.11170427935561       -0.08311978655424
H            3.58009495311940       -1.64013344745437        0.05870975292700
H           -1.56414146126358        3.10581699158911       -0.04252374372783
H           -2.84922617525989        2.23262154119655       -0.88203393848896
H           -2.78539263776729        2.22155215267945        0.89552580188644
H           -1.10222584231713       -3.20870234587528        0.83398165053283
H           -1.09576544597311       -3.20289606973410       -0.94731519387188
H           -2.53070694320022       -2.64928883178320       -0.05951884822960
H            1.40686066876684       -2.94135919687911       -0.00073188958427
25
 energy: -43.822489400191 gnorm: 0.024793173605 xtb: 6.6.1 (8d0f1dd)
C            3.25126339198066        1.17580377883000        0.08949953495402
N            2.28772358470347        0.11609729469051        0.03513427023997
C            2.58968057899807       -1.23135916217697        0.04167792275347
N            1.39570774026446       -1.93151283346926        0.01479740440587
C            0.34669623069849       -1.06739058027758       -0.01221963373507
C            0.88759277795279        0.20945328526006        0.00619341692498
C            0.05878659798562        1.33087624214662       -0.03588431362640
O            0.45158225945074        2.50009454193830       -0.06256936661086
N           -1.36537346037963        1.01790620151352       -0.06082058513719
C           -2.19498235663163        2.20533690918600       -0.01799078744243
C           -1.99426215081348       -0.19379289303891       -0.13197431247542
O           -3.16861199624227       -0.43686854998016       -0.17133627730360
N           -1.00650226833200       -1.29470192292483       -0.05688381504967
C           -1.44892986607657       -2.66792472528577       -0.05078502439140
H            3.75003653247529        1.21726678237201        1.06656933984635
H            4.03151928032061        1.03248988117130       -0.66738741357332
H            2.72628170757575        2.11276143232402       -0.08483001037103
H            3.58068194602397       -1.63323909456559        0.05493630037599
H           -1.55971749416028        3.09839070414895       -0.03323430242741
H           -2.84621242482981        2.22912468809599       -0.87911915931016
H           -2.78305878275065        2.20063271078926        0.89793039864381
H           -1.10786755864320       -3.20150619246516        0.84198039572243
H           -1.09837946969833       -3.19640113464352       -0.94091553710663
H           -2.53384910731266       -2.63157199058313       -0.05765089537161
H            1.40342999171003       -2.93694183834750        0.00166349657754
25
 energy: -43.821944996328 gnorm: 0.026281173240 xtb: 6.6.1 (8d0f1dd)
C            3.25202994903633        1.17323948446820        0.09364678465179
N            2.28540086035524        0.11420402670524        0.03675696627794
C            2.58663643958737       -1.23324364450998        0.04426428623740
N            1.39291641595551       -1.93070736000406        0.01006087865290
C            0.34218148642279       -1.06670116903158       -0.01207978950158
C            0.88461816805742        0.20854960879073        0.00905968103307
C            0.05332574736709        1.33109451737069       -0.03501567879477
O            0.45502218512856        2.49849376922369       -0.07154937294437
N           -1.37356253556186        1.01853749874611       -0.05100902274062
C           -2.19808050159712        2.21545640378195       -0.02526552184072
C           -1.98267444499518       -0.19626792091360       -0.09358725908280
O           -3.16842436394711       -0.42843440598226       -0.12487746600036
N           -1.01656934882962       -1.29226260750997       -0.05338738449805
C           -1.44338038795529       -2.67109739942059       -0.06230176790901
H            3.74994016921649        1.21379557394609        1.07105402842772
H            4.03163559423015        1.03107220644087       -0.66403716335016
H            2.72676812658554        2.11060176733702       -0.07949906200550
H            3.57839748133294       -1.63795556508633        0.06063557584833
H           -1.56173761825109        3.10583623108169       -0.06276544425951
H           -2.85095818467101        2.22358030707530       -0.88717180066048
H           -2.78515616098539        2.23192178789284        0.88809145140953
H           -1.08885439732592       -3.21418111049996        0.82171125488196
H           -1.08916975074119       -3.19193682660565       -0.95774199427017
H           -2.52619193595238       -2.65390874101367       -0.06352697545679
H            1.39912269180720       -2.93666289757460       -0.00468415759349
25
 energy: -43.823065578046 gnorm: 0.009688030347 xtb: 6.6.1 (8d0f1dd)
C            3.25387845177673        1.17566232585031        0.09040727076646
N            2.29007002250165        0.11499781452804        0.03515673512235
C            2.59061108674486       -1.23405982211274        0.04359050893882
N            1.39701262103784       -1.93217201612045        0.01282754263732
C            0.34664950757476       -1.06632566739911       -0.01439356977763
C            0.88911896085861        0.21064934960408        0.00671052213710
C            0.05779067480918        1.33420102105217       -0.03441719490688
O            0.46168317993825        2.50163868091549       -0.06403561289406
N           -1.37259666333808        1.01920257924458       -0.05804463210730
C           -2.19978257646153        2.21288674529872       -0.01906680639619
C           -1.99097140973120       -0.19967657407534       -0.12091951994451
O           -3.17542076392947       -0.43189993647948       -0.15832262942398
N           -1.01449840299501       -1.29125972377119       -0.06073860958996
C           -1.44620833225232       -2.67046073578095       -0.05556286793906
H            3.75091715328790        1.21796000789417        1.06826333011327
H            4.03204537694120        1.03307203067751       -0.66864526488257
H            2.72632270904050        2.11145363818007       -0.08392751641070
H            3.58070546977861       -1.64018007180065        0.05915159146477
H           -1.56362937234574        3.10365419602318       -0.03854987286744
H           -2.85089129514726        2.23386919348166       -0.88105484121670