25
 energy: 0.000000000000 xtb: 6.6.1 (8d0f1dd)
C            3.23720132972391        1.16630909158653        0.08434468864950
N            2.29877796055224        0.07527476373246        0.03981602671198
C            2.58028186251803       -1.21425391179017        0.03006175752192
N            1.43813944744728       -1.93419254010258        0.00098261751768
C            0.39035684826767       -1.05887462812143       -0.00790371763344
C            0.93510047688824        0.21347817468824        0.01709077332874
C            0.09450143016486        1.40504290868848       -0.00410946993748
O            0.49712746915594        2.54126690785742       -0.00342325656480
N           -1.25076628431515        1.06271869620815       -0.03085477937476
C           -2.21907191394203        2.15522079838987       -0.05001256521996
C           -1.81739470187490       -0.20012724136556       -0.04692818139228
O           -2.99983858926755       -0.37846413507442       -0.07008877579474
N           -0.92618577614240       -1.30210203518959       -0.03682761236648
C           -1.46982251276835       -2.64643077634382       -0.06029819901142
H            3.71247229913541        1.21471443890471        1.06488839270555
H            4.00791460421487        1.03430799217987       -0.67357688121503
H            2.69909982127087        2.09770098766290       -0.09130154035862
H            3.56654087521359       -1.63682977417947        0.04233139674524
H           -1.67107945562430        3.09322822573871       -0.02552706696334
H           -2.82428927394145        2.09428605349656       -0.95318074103337
H           -2.87644002486466        2.07745706351925        0.81450059976605
H           -1.17061985538665       -3.19584861009707        0.83242224714061
H           -1.14560246782873       -3.17511580834413       -0.95688266944647
H           -2.55549768731684       -2.55659960601237       -0.07459039105944
H            1.38130842369251       -2.94313824728853       -0.01389874052104
25
 energy: -5.046470979166 xtb: 6.6.1 (8d0f1dd)
C            3.24702883632231        1.17534324795409        0.08788644464991
N            2.29869463387169        0.10809097995386        0.03503218485563
C            2.59612059299919       -1.23677180451476        0.03503483604282
N            1.40936322862285       -1.93507069657175        0.00660012457374
C            0.37391944221504       -1.06265312604328       -0.00884089316192
C            0.90631527612535        0.21804851662276        0.01170776176229
C            0.08986610883642        1.35997278861637       -0.01716384952332
O            0.48848255601638        2.52890399011312       -0.03034776468795
N           -1.31488041968060        1.03490080518975       -0.04249680562508
C           -2.20673662029142        2.18032758340482       -0.03422618860965
C           -1.90078741910380       -0.20118461143798       -0.08243977530946
O           -3.09331456663868       -0.40372393994647       -0.10958776672004
N           -0.97598157488680       -1.29499919907975       -0.04651558718349
C           -1.45891592800670       -2.65648925057862       -0.05686504640023
H            3.73438520859833        1.21884792121733        1.06818501136981
H            4.02148124905615        1.03955812134881       -0.67346703522718
H            2.71127686911823        2.10659321877327       -0.08627272815943
H            3.57907116420563       -1.64692630236047        0.04745307177564
H           -1.61182872882105        3.09515648997569       -0.03115166636106
H           -2.83293916933223        2.16111502284811       -0.91855213193625
H           -2.83084032225765        2.14435197839501        0.85607951957803
H           -1.13535655304025       -3.20099574759884        0.83467022919866
H           -1.11884588638922       -3.18663243574457       -0.95023624422144
H           -2.54421992905397       -2.59912438584189       -0.06678598803263
H            1.38783271341659       -2.94016216133629       -0.00631920627955
25
 energy: -0.561279380813 xtb: 6.6.1 (8d0f1dd)
C            3.25239932266444        1.17594540592606        0.09121825010510
N            2.28913323961585        0.11578880510066        0.03515602192447
C            2.58936962398384       -1.23341605087751        0.04242320735153
N            1.39662812714779       -1.93231605669191        0.01208980848530
C            0.34770798223577       -1.06624669773830       -0.01288627063804
C            0.88855961150512        0.21098214238862        0.00653714362137
C            0.05715964437405        1.33398640137838       -0.03490075491364
O            0.45909325133684        2.50136881616106       -0.06491730535651
N           -1.37040470100296        1.01903351731836       -0.05663200683271
C           -2.19745157368667        2.21027553074575       -0.02069695941496
C           -1.99027478130399       -0.20488662471963       -0.12000766203137
O           -3.17462456396794       -0.42965784900002       -0.15611806447055
N           -1.01471170359354       -1.29027440932972       -0.05794305822084
C           -1.44628336507140       -2.66981571374771       -0.05458517230327
H            3.74964161468992        1.21614825323797        1.06880812906288
H            4.03100161292666        1.03288891262985       -0.66704046009765
H            2.72544492205803        2.11211343192372       -0.08231686500255
H            3.57966801524392       -1.63731164775518        0.05727644364008
H           -1.56156742089722        3.10172149661944       -0.04186555726378
H           -2.84817500443186        2.22881594501399       -0.88223471535300
H           -2.78475825045109        2.21330171855416        0.89442460987429
H           -1.10160867514432       -3.20470955271267        0.83640632464998
H           -1.09451757477053       -3.19846610618144       -0.94495805782179
H           -2.53113909244210       -2.64353399908164       -0.05918544384052
H            1.40294542325087       -2.93871213445415       -0.00127053864160
25
 energy: 6.799820363803 xtb: 6.6.1 (8d0f1dd)
C            3.25258746314479        1.17120190627162        0.09732016247537
N            2.27145135129409        0.12014706088728        0.03940399390681
C            2.57590070977800       -1.22794149144122        0.05826587401061
N            1.38954578497185       -1.93657060906885        0.01636613839600
C            0.32334154486512       -1.07880803910062       -0.02274352151840
C            0.86587631936009        0.19797671043809       -0.00262425880278
C            0.02669756626117        1.31034736717070       -0.06525681928317
O            0.45079515812187        2.46958831554105       -0.10273396270391
N           -1.42803386053118        1.01259519610016       -0.08035123465764
C           -2.19125251028407        2.24317282753969       -0.00877473298439
C           -2.07925752501859       -0.19892378980562       -0.16092476050018
O           -3.25279674923865       -0.45414998868487       -0.20710890508020
N           -1.05240386136509       -1.29088250797192       -0.07749386860309
C           -1.43684268557804       -2.68397330977483       -0.05496742310268
H            3.76087298509924        1.20655612951555        1.07085576609460
H            4.02880984873413        1.01638093676019       -0.66001204521651
H            2.73906630937160        2.11467546316421       -0.07868577330424
H            3.57427651828208       -1.62114066670228        0.07206158717758
H           -1.51366921377934        3.10705330909134       -0.05444622086221
H           -2.87367481770037        2.30221101106665       -0.84133879863293
H           -2.73581469440100        2.28374104624537        0.93250758261441
H           -1.06813005279053       -3.20483578359441        0.83651888707035
H           -1.07106596890989       -3.21031272600046       -0.94143225451107
H           -2.52096908346924       -2.69125114996275       -0.05284338679793
H            1.42234797234202       -2.94280390677683        0.00474421815114
25
 energy: 17.201674919693 xtb: 6.6.1 (8d0f1dd)
C            3.24906310981221        1.16081104326369        0.10524955803877
N            2.25853730855239        0.11604835342024        0.04572882445512
C            2.56847686210102       -1.22328886165347        0.06480178465027
N            1.39324797031166       -1.94206495365258        0.01594198176072
C            0.31382681855353       -1.09407811111069       -0.02921909875319
C            0.85394047000588        0.18683161716823       -0.00605581013507
C            0.03367570974358        1.30482756946598       -0.07098322593525
O            0.46792437637386        2.45930477093465       -0.09846057300515
N           -1.47821210892696        1.01949448808873       -0.10353525539398
C           -2.18196798813911        2.27916233198617        0.00045595267348
C           -2.16809928268104       -0.16241064372588       -0.18596562215778
O           -3.32210678928039       -0.47472187573061       -0.25142283168446
N           -1.05702067302888       -1.30335509043205       -0.08302628461427
C           -1.41805961043714       -2.69940528704347       -0.05268266977425
H            3.75808755277281        1.18336559329551        1.07867907260726
H            4.02094740646818        0.99614429629702       -0.65384320168469
H            2.75127090835584        2.11398299672045       -0.07076352167059
H            3.57070822088884       -1.60787108211716        0.08420597921716
H           -1.46864542203849        3.11535568801340       -0.07347980979353
H           -2.89748121201777        2.36962294180462       -0.80007244551817
H           -2.68146149632082        2.34845968396456        0.96652286384514
H           -1.03314766535142       -3.20986181084365        0.83895192682361
H           -1.04441553985787       -3.22379383732785       -0.93740280284329
H           -2.50189400604257       -2.73030069291897       -0.04599329330233
H            1.44205132952483       -2.94735664684690        0.00565341210953
25
 energy: 35.155563587819 xtb: 6.6.1 (8d0f1dd)
C            3.24686683297106        1.15354604016103        0.10839156025854
N            2.25536139732425        0.10943156838843        0.04993644975309
C            2.57250032622544       -1.21649382348115        0.06923703370066
N            1.40979616657740       -1.94876682346182        0.01809781817607
C            0.31647460470503       -1.11393080022006       -0.02735922046653
C            0.85291063798452        0.17682260119895       -0.00207232790298
C            0.06735374809871        1.30565400306221       -0.05922553157558
O            0.48167515679531        2.46443112576727       -0.08037560194117
N           -1.54332410594049        1.03088096804128       -0.11831366636978
C           -2.17371058869076        2.32040448945072        0.01279710432186
C           -2.28970746026135       -0.07546472382935       -0.21364870553175
O           -3.40142826943714       -0.48811685454126       -0.31066751316333
N           -1.02927776647449       -1.33022609707099       -0.07418821574175
C           -1.39387011390461       -2.71965669026808       -0.04622788482596
H            3.75297361895731        1.16456379390866        1.08214468538184
H            4.02005460227731        0.99531533379968       -0.65175942990625
H            2.76226909644775        2.11485532410000       -0.06388523062137
H            3.57664078140795       -1.59023578751629        0.08988226658404
H           -1.42599817105964        3.12439921391767       -0.09619240199902
H           -2.92346054247312        2.43809066671383       -0.75147600696855
H           -2.62254497391851        2.41537205880494        1.00184495733253
H           -1.00126844256546       -3.22600438265906        0.84438386867384
H           -1.02037999660501       -3.24249593773710       -0.93181744469012
H           -2.47932761425299       -2.76460945685818       -0.03618673880808
H            1.46887896282217       -2.95239358891514        0.00725261998998
25
 energy: 60.786528467154 xtb: 6.6.1 (8d0f1dd)
C            3.24952081967973        1.14690734663896        0.11196301479916
N            2.26023927715406        0.10297371661975        0.05147042217322
C            2.58496689407416       -1.21025242314176        0.07621976988179
N            1.43782407244784       -1.95869526503628        0.01912328712118
C            0.32847760748102       -1.14178849041075       -0.02846272762327
C            0.86016285604209        0.16480832566126       -0.00357360857601
C            0.13815675898239        1.30716943700764       -0.05078980422556
O            0.51171216660310        2.46885938552135       -0.07183930923446
N           -1.65792187384841        1.03104504769226       -0.14121923672059
C           -2.17037844947546        2.36307797448042        0.01587263259866
C           -2.48817880005540        0.04898388927761       -0.22771239769107
O           -3.50708972446546       -0.52665974638296       -0.32148112626589
N           -0.97418770005978       -1.37297612818009       -0.06788515380710
C           -1.36226670189898       -2.74649703068786       -0.04723297511849
H            3.74709185391234        1.14969522915723        1.08814330920447
H            4.02873647763412        1.00292891794241       -0.64898547391530
H            2.77842103650760        2.11646216982564       -0.05431097448518
H            3.58920821333497       -1.57063538767334        0.09844210301613
H           -1.39523751602461        3.12402904299981       -0.15482744586068
H           -2.95595088668837        2.51563629500628       -0.70234503512039
H           -2.54339239867385        2.48412522960956        1.03036639644889
H           -0.96875038517913       -3.24589891402181        0.84424264959782
H           -0.99278920901799       -3.26508470188814       -0.93506196510756
H           -2.45180683070030       -2.79464931903472       -0.03630583031864
H            1.49762702213269       -2.95923346407962        0.00834125850372
25
 energy: 77.122071862309 xtb: 6.6.1 (8d0f1dd)
C            3.26353701652122        1.14544316780641        0.10783248472673
N            2.28881996554222        0.08497500495469        0.03581621261343
C            2.60563619561460       -1.20335538993953        0.07666694861474
N            1.48404185458299       -1.97034558670388        0.01441022319547
C            0.34718435795464       -1.15804850893843       -0.02457655306804
C            0.88916991781399        0.16078266377021       -0.01642740450111
C            0.23316280364376        1.33460237943940        0.01329363330791
O            0.60066685252801        2.48616318106394       -0.06431658146064
N           -1.79788363877617        0.98862991472158       -0.15147628283121
C           -2.16048877956590        2.38281138945476        0.01690106284753
C           -2.74343807494127        0.18791259174695       -0.26921932233615
O           -3.63730423269922       -0.56316747257224       -0.36043356694972
N           -0.90401599378534       -1.41584226223391       -0.04872877287993
C           -1.32459547813839       -2.77550682363713       -0.03812558155531
H            3.75455420179408        1.16855921697158        1.08643223967250
H            4.04406166361128        1.01250899491047       -0.65436785281875
H            2.78421455180600        2.11165532948008       -0.05177729007217
H            3.61036317159696       -1.55496854651338        0.11249384356759
H           -1.38385528184882        3.11230476546722       -0.20749964176444
H           -2.96083472623534        2.55340320239273       -0.67982116855852
H           -2.46879330920632        2.53472330081402        1.04555615987150
H           -0.92990815835102       -3.26673236601915        0.85271662984607
H           -0.96310845578513       -3.28727508918688       -0.92944101668149
H           -2.41811407576691       -2.82672789861541       -0.02322461768040
H            1.53131630094676       -2.96902069666476        0.01022886893360
25
 energy: 82.828808917013 xtb: 6.6.1 (8d0f1dd)
C            3.27952532241062        1.14951242001271        0.10918742282913
N            2.31308376440233        0.07916191693137        0.06045128858626
C            2.62417590811564       -1.19713686954732        0.07551702620754
N            1.51574232642368       -1.97222570292868        0.02594808807966
C            0.36739890040460       -1.15616487870737       -0.02133465831403
C            0.91098122720633        0.16841383435324        0.00241775818032
C            0.27753296992521        1.35897698948809       -0.04074378022724
O            0.68048446788020        2.50504660891154       -0.02267460739921
N           -1.88437741644058        0.97061630390208       -0.13976939693096
C           -2.16260718612298        2.39547476416094        0.00946383533584
C           -2.89277055158510        0.25997041945540       -0.26464305358762
O           -3.74165968910106       -0.54909724933601       -0.34672213752761
N           -0.86672466558278       -1.43281923489297       -0.05284203079575
C           -1.29420173048356       -2.78962850467300       -0.03742482932762
H            3.77406255916753        1.18020287166353        1.08481976541472
H            4.05584427538372        1.02539494769689       -0.65865618079991
H            2.78546527551388        2.10537070943538       -0.04689367345739
H            3.63182018466417       -1.54652440617957        0.09295687149908
H           -1.37673447829434        3.11868699479346       -0.20289048963171
H           -2.94202660382824        2.54834443555833       -0.71933027561005
H           -2.45001465482291        2.54744669847508        1.03919068986848
H           -0.89354936219575       -3.27327012868294        0.85316366103146
H           -0.93414569609136       -3.29867969781162       -0.92950626605367
H           -2.38879286688456       -2.85356698615499       -0.01918896597624
H            1.55927969060913       -2.97102307394341        0.00739410083801
25
 energy: 86.543126592171 xtb: 6.6.1 (8d0f1dd)
C            3.28942445192762        1.15878678667152        0.10521011778781
N            2.32879788762590        0.08170152935332        0.07661866676044
C            2.64374011068826       -1.19286004278437        0.07305683538358
N            1.53967573006519       -1.97160870436859        0.03183086965371
C            0.38859606955118       -1.15389054885075       -0.01751675187843
C            0.92334600415957        0.17758340077060        0.01628145053635
C            0.31146860117430        1.37766469306201       -0.07565160868355
O            0.72780677060896        2.51392105932421        0.00052842210641
N           -1.90241629543085        0.96767263799401       -0.09923652210514
C           -2.15302968816358        2.40681893216495        0.01928832362119
C           -2.96529081398102        0.32657927567557       -0.25260669136364
O           -3.81297324194741       -0.48660165468813       -0.31947536360310
N           -0.83716645169111       -1.44996423041705       -0.05092849819484
C           -1.26263301996841       -2.80790457522771       -0.03655048471579
H            3.78707059775679        1.19758658078598        1.07676009303251
H            4.06753118884699        1.04725640330388       -0.66201321303734
H            2.77958498140535        2.10486992131511       -0.05185461416373
H            3.65001772326669       -1.55045576944713        0.08137508983346
H           -1.37850635128599        3.15645871536657       -0.15643410376722
H           -2.88392638340075        2.55199869311897       -0.75727774755238
H           -2.52509136567734        2.54748960004328        1.03155461174560
H           -0.86040280691245       -3.29411932395270        0.85173080060578
H           -0.90110723211750       -3.31168133480341       -0.93173680318480
H           -2.35464669790639       -2.88818381727437       -0.01447762314008
H            1.58285220873065       -2.97190120875773        0.00611511810308
25
 energy: 92.863372055585 xtb: 6.6.1 (8d0f1dd)
C            3.29467891862025        1.16766360174800        0.10547128669389
N            2.34766902770673        0.08664583957523        0.06575510322017
C            2.66556865943253       -1.18501903404518        0.07510938006652
N            1.56343597422355       -1.96989605496703        0.03166425321070
C            0.40765202525842       -1.14648745372081       -0.01640535673411
C            0.95660651290468        0.19384703647548        0.00411390890421
C            0.37031110177495        1.40321775594821       -0.06645611705221
O            0.74600004898445        2.55378562997662       -0.00515889280873
N           -2.05916946854344        0.89449166321146       -0.08442880212211
C           -2.15989418588872        2.41107703379600        0.01487629382873
C           -3.03387080029591        0.31307156418446       -0.22129478285083
O           -3.86034067599850       -0.50091141616624       -0.32412000869282
N           -0.80529699669427       -1.47493198388843       -0.04553727827282
C           -1.23874897871581       -2.82877384581733       -0.03664013967411
H            3.79134294946032        1.21464103869617        1.07602111337533
H            4.06673550730283        1.05463074948044       -0.66968009783935
H            2.76775879694956        2.10749562064571       -0.05451168893016
H            3.67072439140948       -1.55185345136779        0.08856703637067
H           -1.37127559114064        3.16065125128237       -0.11061505199664
H           -2.83339790188232        2.51194505482032       -0.80462122569812
H           -2.58025415446240        2.49846610350510        1.00306750878118
H           -0.85503473462175       -3.33338450165585        0.85100040782135
H           -0.89192291267575       -3.33736771498293       -0.93696427336755
H           -2.32910868395066       -2.89062731923085       -0.01105564838883
H            1.61355467948068       -2.96973993478089        0.00916506633526
25
 energy: 118.736372325997 xtb: 6.6.1 (8d0f1dd)
C            3.29596514692431        1.17494239192077        0.09283880082122
N            2.32385142385188        0.09724152284056        0.05255501445159
C            2.67082250931203       -1.17855385613199        0.06596614725716
N            1.58805912090343       -1.97259356088973        0.02763828247849
C            0.42912620219587       -1.15623163831051       -0.00706969467961
C            0.93832883759042        0.17226874317629        0.01381455097412
C            0.12264263961502        1.37121521225599       -0.01059927308959
O            0.65534135322425        2.48576297273937       -0.02168901930979
N           -1.31847047629797        1.14527675609186        0.04234362473651
C           -2.04465928986927        2.37525327513041        0.02676262623136
C           -3.55960674920992        0.39462472806120       -0.37217092843927
O           -4.04558231612265       -0.63147248446701       -0.29424008244474
N           -0.78377175483459       -1.50274542939571       -0.03520559240923
C           -1.23465916705756       -2.84504257522176       -0.03466633503098
H            3.79986689170380        1.23328068076402        1.06109673482910
H            4.07664836467035        1.07524863484810       -0.67726963897475
H            2.76611648582007        2.11195193608135       -0.06497180908584
H            3.67940518179703       -1.54455845877654        0.09249087970066
H           -1.41037363222768        3.24959688772285       -0.05200495340772
H           -2.71636137643138        2.34238803786550       -0.82762317434753
H           -2.63226991084606        2.38605545325295        0.94600882089677
H           -0.86466595457459       -3.36031748769692        0.85079480542327
H           -0.89714858757586       -3.35457519723380       -0.93927777465550
H           -2.31742871080976       -2.88242627098590       -0.00868408720554
H            1.63822545429281       -2.97390296942461        0.00719166157374
25
 energy: 115.888667788134 xtb: 6.6.1 (8d0f1dd)
C            3.30222567993485        1.17641481894121        0.08646116262997
N            2.33675053986395        0.08965150977538        0.05089133589006
C            2.68567142224079       -1.18670478636313        0.06397191378049
N            1.59956055563938       -1.97878811747810        0.02867584029291
C            0.43431518010382       -1.16765201697752        0.00178703990293
C            0.95136887508938        0.16170863613456        0.01687910465104
C            0.12460057770229        1.36438875189343       -0.00720007703264
O            0.67005580822417        2.48000377073921       -0.02189029410058
N           -1.28814514237548        1.13051608758299        0.06194230054475
C           -2.04925080276498        2.33385560068159        0.02662329918416
C           -3.73830656437422        0.44094772927275       -0.41554298750696
O           -4.13954084371983       -0.60240360036553       -0.22880663723753
N           -0.78084177931955       -1.52201629487208       -0.03567540092569
C           -1.24812249442838       -2.85880991978672       -0.03666012666706
H            3.80785538061504        1.25270064943485        1.05356717451169
H            4.08304047639928        1.07871931365214       -0.68158601071550
H            2.76462994873045        2.10863609660930       -0.07645098579220
H            3.69668662929570       -1.54813405120038        0.08955317401708
H           -1.44669528980634        3.23702080950786        0.00294511721186
H           -2.65485688586114        2.27505241567663       -0.87426251782581
H           -2.70869779320706        2.30663809349626        0.89555271024234
H           -0.89446794215764       -3.38143273668650        0.85145368534972
H           -0.92042138868347       -3.37245629924405       -0.94332913737593
H           -2.32924997908630       -2.85061465610358       -0.01630421920329
H            1.64078998163160       -2.98123919214844        0.00570415459589
25
 energy: 114.850465524964 xtb: 6.6.1 (8d0f1dd)
C            3.30823705050790        1.17565510648651        0.07910450608565
N            2.34857640542212        0.08183641618743        0.04886417653369
C            2.69791620890927       -1.19414865529174        0.06135071374141
N            1.60706115245199       -1.98267243802550        0.03204732582650
C            0.43756990155363       -1.17380254456246        0.01692883059496
C            0.96237832483227        0.15606069261231        0.02329761887317
C            0.15125297842520        1.37139328468164        0.00552116866644
O            0.71476809685102        2.47717138645947       -0.00384916772064
N           -1.25512790272133        1.13628042747761        0.11832060383516
C           -2.04905054402743        2.30777356912302        0.03638841222037
C           -3.68414804656130        0.39853794331380       -0.42871102898845
O           -4.03046764311234       -0.65917418200900       -0.22822334439872
N           -0.77977608808684       -1.52407119921085       -0.03116501021351
C           -1.26070000108471       -2.86514704270242       -0.03308308876287
H            3.81150383267153        1.26428896498890        1.04715381340424
H            4.08312970582677        1.06199463607404       -0.68612059518111
H            2.76596807498103        2.10571630771169       -0.09465437512132
H            3.71295415552896       -1.54485149461987        0.08471347445609
H           -1.47733084662506        3.23338176079103        0.04946951151865
H           -2.60889715123833        2.23776330352159       -0.89666143825391
H           -2.76248647129784        2.25091499418571        0.86110270371640
H           -0.91629754292848       -3.40234514387785        0.85466900277319
H           -0.93944226401283       -3.38795207687279       -0.93975827915170
H           -2.34797086082504       -2.82887178552088       -0.02047982902454
H            1.62269214802977       -2.98643845419679        0.00645610778329
25
 energy: 116.114714657560 xtb: 6.6.1 (8d0f1dd)
C            3.31371372280104        1.17294855595143        0.07587743208628
N            2.35980830646143        0.07640590140263        0.04403835034690
C            2.71159615414825       -1.19810009966449        0.05705970378369
N            1.62045184247477       -1.98590145860722        0.03185293430144
C            0.45063660092999       -1.17772853441738        0.01943650959075
C            0.97037653987958        0.15313755248806        0.02664928446438
C            0.17182805775283        1.37742505158361        0.01946770005510
O            0.74711273300043        2.47602395457744        0.00671030743090
N           -1.25560298088105        1.15138999428574        0.09718558653028
C           -2.05246847216889        2.31565618324574        0.03363314520889
C           -3.51612412448747        0.26057034162050       -0.43066725486857
O           -4.14112667729660       -0.65483693466776       -0.19729195557881
N           -0.77192109778653       -1.51282780505956       -0.02889127273776
C           -1.25427603547470       -2.86221139003128       -0.02950405263525
H            3.80839695671304        1.24661872963257        1.04880643397012
H            4.08472111256123        1.05226082181018       -0.68776360036202
H            2.77160301366377        2.10353947020735       -0.09910936199088
H            3.72778274221923       -1.54721277488815        0.07600921681811
H           -1.48979678203984        3.24595730412749        0.03684307435075
H           -2.63537178727459        2.27580773899983       -0.88653163734929
H           -2.76170492188410        2.27260488703219        0.86402069544156
H           -0.92771289047527       -3.42134641378038        0.85584794497881
H           -0.94250607910178       -3.40602253894256       -0.93083947615177
H           -2.34974308550705       -2.80551399751337       -0.02477564962920
H            1.64166599661543       -2.99110367085951        0.00692225242597
25