72
 energy: -103.309618912824 gnorm: 0.104513086043 xtb: 6.6.1 (8d0f1dd)
N           -1.55891467913926        2.86934995458716        2.27885464131687
C           -1.59230660931721        2.13991368017027        1.24366541282386
C           -2.76104235204159        2.05861739116121        0.30451888222277
C           -3.33797661623413        0.66113318571304        0.34197462773032
C           -4.32154690352125        0.24118566424012       -0.55722585114902
C           -4.85496528321090       -1.03198852597533       -0.51111423954725
O           -5.80260177055903       -1.52689251288818       -1.37987778284843
C           -6.33981672492600       -0.64663739262690       -2.33192889634090
C           -4.41514808625141       -1.93416682634185        0.46092519119269
O           -5.00281687198320       -3.17788218882272        0.42722337314094
C           -4.65463924150173       -4.08219173039303        1.44463747354389
C           -3.46131486050623       -1.52176824462054        1.36972375481187
C           -2.93107324738880       -0.23955035658235        1.30679956170778
C           -2.19501880579437        2.30387855555983       -1.13069600172658
C           -1.26131129422763        1.18943705508527       -1.69074731086399
C            0.01702968420296        1.14895983167511       -0.93390980294362
N            0.65392599735351       -0.07566042504380       -0.58273280121271
C            2.01952631796057       -0.07290150587328       -0.20033597766469
C            2.96860319173513       -0.55682285580560       -1.31925499735442
C            4.38108742767639       -0.44368699057408       -0.87329590562584
C            5.10241888839816        0.72334214854250       -1.06533346704247
C            6.41277460168743        0.84227822907996       -0.59276114978139
C            7.02347566582394       -0.20935031118453        0.07557903558598
O            8.29436465595349       -0.20970939509294        0.54703549660415
C            9.06986619769250        0.94811620158336        0.34557685532660
C            6.30102035483469       -1.39879246040259        0.26976822586814
O            6.95658428656898       -2.38946351529892        0.95940906989896
C            6.28286830301463       -3.60185320552836        1.15675266975262
C            4.99166926562630       -1.49889649647816       -0.19683422867563
C           -0.05737632605191       -1.32137689811914       -0.64231547197147
C           -3.88216964637064        3.10125850154432        0.59599252123584
C           -4.53078553198637        2.80414867088566        1.93529558808503
C           -3.29041041535738        4.49692098031015        0.58427274337529
H           -4.62558591117106        0.91690518389292       -1.34247443275790
H           -6.79625336200766        0.22968953553658       -1.86187165709456
H           -7.10759791375984       -1.21548971839310       -2.85669180411480
H           -5.59155424524476       -0.30736855894161       -3.04723240568434
H           -4.88473126380951       -3.68144317876345        2.44004330993432
H           -5.26746947790760       -4.97292185771864        1.24720713603021
H           -3.59460001239695       -4.35623859344518        1.39532750988115
H           -3.12024816178230       -2.18597327469935        2.15550117413904
H           -2.21020302824140        0.06613302555714        2.04566017275394
H           -3.05382134059073        2.42244352873695       -1.82852810523839
H           -1.63281315447816        3.23852104158561       -1.11898250535995
H           -1.78105143729474        0.24177406355913       -1.65036401243591
H           -1.03103092826798        1.38763159734213       -2.74069449249908
H           -0.70513790749738        1.61467862690713        0.72984086207797
H            0.67263006142472        1.99083206365194       -1.02830307591621
H            2.17249257343679       -0.69810501661856        0.69882870843228
H            2.29255832152313        0.94321314016864        0.06459078874443
H            2.78791254277118        0.06325551026803       -2.22269773711050
H            2.71434345433048       -1.59083433764271       -1.57138335543242
H            4.65599250396433        1.55544634888742       -1.58284776769214
H            6.93093684160552        1.76518156149006       -0.76649844546560
H            8.63107908446734        1.82490054593946        0.83258612024438
H            9.18742297010846        1.15718403913491       -0.72493543897833
H           10.04541122121119        0.72748813048326        0.77250762013793
H            7.01531311743540       -4.24846770466300        1.66330129428815
H            5.40519824387783       -3.48485319910522        1.78543380965690
H            5.99750076349806       -4.06980768165531        0.20765466381342
H            4.42522889447564       -2.39781026611394       -0.05140685596915
H           -0.22476242698096       -1.65555304654644       -1.65597281858478
H           -1.02810728189093       -1.22758560136731       -0.14514581289180
H            0.54047715186249       -2.07449422102506       -0.11124582660968
H           -4.64200412780015        3.02769057226820       -0.21294780019405
H           -3.74334327003498        2.89797133246534        2.69877075126092
H           -4.93104784988810        1.79092534506234        1.97316568928166
H           -5.32428785127820        3.52910137712169        2.14879252206091
H           -2.54455264492490        4.57116848771113        1.28907433623086
H           -2.92934982035178        4.76291564496530       -0.40541517914893
H           -4.08276269847226        5.22727819980646        0.85366779608577
H           -0.71700044902057        2.77352119009451        2.82242840939102
72
 energy: -103.315357247653 gnorm: 0.032788695385 xtb: 6.6.1 (8d0f1dd)
N           -1.56533132660288        2.83321504575183        2.27843127109962
C           -1.58761258267536        2.14448438887026        1.22180075841176
C           -2.75859333265434        2.05551596711673        0.28055173752653
C           -3.34196558336969        0.65736385388101        0.34517660512495
C           -4.31226587829108        0.23969465825793       -0.56766368636893
C           -4.84982914347044       -1.03236740422510       -0.51980879013815
O           -5.80059856399195       -1.51875751656588       -1.37916352317978
C           -6.34074363986362       -0.64260433178792       -2.33267616078864
C           -4.41762349436369       -1.93663876766192        0.46604929075673
O           -5.00044103362225       -3.17561767360640        0.43167807343591
C           -4.65560655113614       -4.08590377691234        1.44348856894826
C           -3.46378640179243       -1.52488270163038        1.37677124625546
C           -2.93714519112508       -0.24178023653722        1.31560279542315
C           -2.19024747649325        2.30583044481881       -1.14574354338990
C           -1.26183339331370        1.18895594633507       -1.67594185273409
C            0.01877825095620        1.13645998875835       -0.91709409812090
N            0.64808054710170       -0.06830861268516       -0.58133224973942
C            2.02080760195036       -0.06511234740072       -0.20190250218695
C            2.96732437474618       -0.55642484843242       -1.32260310860087
C            4.38741576983461       -0.44437207501737       -0.87686811060690
C            5.10549838949434        0.72318207170553       -1.06343156181387
C            6.40969592211220        0.84049625521724       -0.59736881430268
C            7.01988338948670       -0.20952128595899        0.06950561207440
O            8.29288477280013       -0.20571676598653        0.54791027377063
C            9.07036914885938        0.94806194851205        0.34197800747214
C            6.29249723379646       -1.39846984898609        0.27491550329691
O            6.95309338044277       -2.38729251287182        0.95329148944235
C            6.28824319707282       -3.60523111776248        1.15601502368486
C            4.99299976420615       -1.49866213151116       -0.19513626195821
C           -0.05701211075979       -1.31835837166794       -0.63866389615646
C           -3.87418210475605        3.09699689688287        0.59004230853530
C           -4.52427377442510        2.80685162418229        1.93660547439643
C           -3.31365954998770        4.51344668617079        0.57988829047970
H           -4.63368844919128        0.92371412628447       -1.33692106859191
H           -6.80085023759654        0.23222825402442       -1.86126142941536
H           -7.10700356874073       -1.21411934988297       -2.85541317442857
H           -5.58765089354933       -0.30859369945210       -3.05218485770477
H           -4.88662567585053       -3.68925132284844        2.43800588584206
H           -5.26401605153711       -4.97230167910750        1.25376795684858
H           -3.59565651139175       -4.35880291928441        1.39729616341113
H           -3.11788862990299       -2.18984635286816        2.15384921077507
H           -2.20673955398054        0.05891863402232        2.04970744263772
H           -3.03667117701241        2.42637065627937       -1.83391858639668
H           -1.62822483254201        3.23901390973475       -1.13410264059629
H           -1.78678477872794        0.23853252999033       -1.63922534597731
H           -1.05428018216560        1.40784074726487       -2.73273819746868
H           -0.70912976950398        1.59772337602753        0.76333931313173
H            0.68546923492340        1.97467107535530       -1.02685120784319
H            2.17046071882747       -0.69928239705528        0.68615272348515
H            2.30338962683764        0.95212225966314        0.06968739900780
H            2.79030444113621        0.06050216324052       -2.21317990537628
H            2.71582996544680       -1.58955393600312       -1.57330479694328
H            4.65750436868902        1.55616342694777       -1.58233131397867
H            6.93231745688917        1.76600055693591       -0.76758725077718
H            8.63426553389024        1.82271539758925        0.83506336255745
H            9.19137552924140        1.15969417987108       -0.72684087837970
H           10.04360134226954        0.72945923409993        0.77653536716958
H            7.01115797984449       -4.24896092226912        1.66337875530529
H            5.40512378250344       -3.48596282020788        1.78750958962330
H            5.99906460364910       -4.07241053048719        0.20811483558006
H            4.42666446439530       -2.40265969477660       -0.04904109304229
H           -0.22180249250378       -1.65662033229258       -1.66265202753184
H           -1.02727442853392       -1.23257366702079       -0.14060189173438
H            0.53369441781832       -2.07243724507028       -0.11370379760559
H           -4.63468451045657        3.01647552862635       -0.20353571700572
H           -3.76219495926261        2.89815511329974        2.71059262026996
H           -4.93512746956670        1.80039371978750        1.96973745145839
H           -5.32079533915655        3.52115691037912        2.14283827438235
H           -2.53061736336232        4.59069711532580        1.30354994391966
H           -2.94523372755247        4.78038370237189       -0.40665310374922
H           -4.09814837977398        5.23085047980757        0.84567163748937
H           -0.69479434160608        2.78291237086758        2.80133056634490
72
 energy: -103.315667443126 gnorm: 0.023370633949 xtb: 6.6.1 (8d0f1dd)
N           -1.57225377871241        2.84905315007546        2.27622074390149
C           -1.59394465227084        2.15413660124789        1.22690445310316
C           -2.76393545792267        2.05554566654421        0.28183574786009
C           -3.34614127656297        0.65630988627553        0.34752476977816
C           -4.31531605881519        0.24132953200594       -0.56726114099645
C           -4.85465504688979       -1.03076519447432       -0.51959704550983
O           -5.80001196235967       -1.51894036373863       -1.37663484169164
C           -6.34226219321397       -0.64612182816492       -2.33169038401673
C           -4.41658357870348       -1.93812205102664        0.46597449715866
O           -4.99868893965611       -3.17230711850037        0.43145515007448
C           -4.65642038701447       -4.08406573472933        1.44129667902117
C           -3.46049503452324       -1.52515516101908        1.37491044309383
C           -2.93497915220328       -0.24185871535113        1.31384034341709
C           -2.19419266952481        2.29597629800886       -1.14226270289832
C           -1.26043496513814        1.19112697817838       -1.68633887439845
C            0.02123510721569        1.13150923631303       -0.92893570161658
N            0.64401207036193       -0.06289501623096       -0.58929190765886
C            2.01832171064160       -0.06630077085476       -0.20152501572764
C            2.96457683101060       -0.55601887361858       -1.32529790247197
C            4.38826169392874       -0.44255820531910       -0.87572091700156
C            5.10592243622182        0.72413866373472       -1.06058114284605
C            6.40679811291221        0.84069374637283       -0.59419261421056
C            7.01813680714502       -0.20914642558768        0.07036942876518
O            8.29356456980691       -0.20513337040065        0.55090480004456
C            9.06957494756291        0.94700481457720        0.34095496481801
C            6.29052976692497       -1.40071796715436        0.27469961894748
O            6.95266829176646       -2.38563704120304        0.95102199523247
C            6.29061565244480       -3.60534800700410        1.15645164652525
C            4.99440652573443       -1.49777310047019       -0.19558920693607
C           -0.05571206524269       -1.31634531382968       -0.63660284364814
C           -3.88244503691256        3.09180045219443        0.58644629679951
C           -4.52348776175964        2.80514138424826        1.94083548795676
C           -3.30722533958820        4.50244057245839        0.57580890116666
H           -4.62882585903520        0.91939539539041       -1.34250000846978
H           -6.80192111718430        0.22843407814677       -1.85990662337960
H           -7.10655245296114       -1.21802435198802       -2.85622603612485
H           -5.58708752296457       -0.30974685783835       -3.05017709112941
H           -4.88463958057839       -3.68413790991878        2.43542010504022
H           -5.26414471654696       -4.96753169617811        1.25235764949662
H           -3.59605669928598       -4.35595531759405        1.39501851143967
H           -3.11920866936903       -2.18592058217958        2.15413111187417
H           -2.20799877822924        0.06368356845648        2.04967111332176
H           -3.04150362380430        2.41842644706516       -1.81903997100810
H           -1.63787725814211        3.23267850203422       -1.11958267343393
H           -1.78055785988286        0.23601212934323       -1.65515744141811
H           -1.04388099753115        1.40205116490938       -2.74697035363238
H           -0.71734167877662        1.64501821975952        0.75723541461335
H            0.67966888460056        1.98170778667046       -1.03431368177875
H            2.16385017874172       -0.69587879355711        0.68888282718748
H            2.30008067764840        0.95256642045290        0.06680079529965
H            2.79026008510660        0.05684350278482       -2.21255972998672
H            2.71651665538711       -1.59035885392149       -1.57008842168387
H            4.65659348304232        1.55640431725795       -1.58212780882251
H            6.93363490189988        1.76621015089056       -0.76380666212710
H            8.63422381622045        1.82236404500360        0.83502525167471
H            9.18694851493942        1.15792351771597       -0.72716887520298
H           10.04472174168203        0.72934054288059        0.77318747385727
H            7.00990515161489       -4.24693279326884        1.66324068186131
H            5.40353724780439       -3.48351679397511        1.78809933620921
H            5.99780202934418       -4.06980980850879        0.20844513938766
H            4.42600253931290       -2.40260979598245       -0.04901470501741
H           -0.22166301528246       -1.66070844420466       -1.66366523278510
H           -1.02776505325610       -1.22777730529496       -0.14382758860524
H            0.53351925889010       -2.06873949476888       -0.11196532514091
H           -4.64243658681820        3.02338154547324       -0.20279535835310
H           -3.75121753796479        2.89499623426820        2.69720038399568
H           -4.93463474208316        1.79822521992325        1.97602720209626
H           -5.31602631676896        3.52101655709566        2.15139788649661
H           -2.50905237383851        4.56042004372663        1.30921424609871
H           -2.91722213858758        4.75882928647974       -0.40552506380828
H           -4.07022086086879        5.22553564425292        0.84778738324229
H           -0.71970814007915        2.78303980406291        2.82972679742227
72
 energy: -103.316400696708 gnorm: 0.012605259555 xtb: 6.6.1 (8d0f1dd)
N           -1.54851419364133        2.84694464678693        2.27237881212696
C           -1.58606377276163        2.14034663256491        1.23029043981614
C           -2.76109861897320        2.05880608266285        0.28928617782498
C           -3.34327716795901        0.65829118557752        0.34695368366038
C           -4.31779792689236        0.24354384815648       -0.56286230235974
C           -4.85647044788435       -1.02964242242587       -0.51754694582293
O           -5.79945667787016       -1.51937822404524       -1.37642614761383
C           -6.34119114574223       -0.64530766862274       -2.33125768422524
C           -4.41597794976122       -1.93834308904373        0.46487165460014
O           -4.99860674447779       -3.17260403400194        0.43073723123238
C           -4.65709289633350       -4.08436795247363        1.44168870745362
C           -3.45980602024152       -1.52392217912901        1.37277302177186
C           -2.93152640205913       -0.24113317026887        1.31028403354863
C           -2.19432674067140        2.30121509879786       -1.13802525273537
C           -1.26160973892605        1.19266017621146       -1.68127272931860
C            0.02268453905249        1.13148014843247       -0.92843395055495
N            0.64540237005147       -0.06545220253554       -0.58592564044577
C            2.02017835402733       -0.07187693330591       -0.19865525515403
C            2.96430259116853       -0.55577287483470       -1.32636156365449
C            4.38748674114720       -0.44257402738394       -0.87601957420477
C            5.10619767281803        0.72326437317826       -1.06315281497369
C            6.40816298915107        0.83998648857450       -0.59533212218272
C            7.01993903030365       -0.20959047554205        0.07018772633855
O            8.29553920380845       -0.20628948755692        0.55047148959265
C            9.06999699318999        0.94699215924138        0.34268979323156
C            6.29348766338196       -1.40254260877913        0.27242736651375
O            6.95400758185633       -2.38596529133789        0.95249216539759
C            6.29081270470282       -3.60550328070613        1.15643489478032
C            4.99544988335807       -1.49805604214540       -0.19725169898976
C           -0.05405565335230       -1.31894113452144       -0.63452055039021
C           -3.88192770139897        3.09580275411223        0.58786942199870
C           -4.52773287392913        2.80597911700544        1.93896432803671
C           -3.32252693193348        4.51208682221271        0.57315302421833
H           -4.62857948518941        0.91957213218505       -1.34076183219938
H           -6.79736185584259        0.23103746097518       -1.86030717166774
H           -7.10712007065253       -1.21466352782525       -2.85602519822605
H           -5.58768890630977       -0.30785470726920       -3.04969825854737
H           -4.88548778394516       -3.68435516796603        2.43688523536762
H           -5.26460792011326       -4.96907811099946        1.24953138234222
H           -3.59619928401537       -4.35620298219206        1.39613563413538
H           -3.11968287080505       -2.18487938109039        2.15341796829528
H           -2.20702573805132        0.06545012720182        2.04729130098297
H           -3.04080289970239        2.42370531019703       -1.82150344964493
H           -1.63290299554412        3.23638955251367       -1.11872213470042
H           -1.78346461648884        0.23934583719457       -1.64584983577112
H           -1.03836393098662        1.39241314491313       -2.74176835849400
H           -0.72041203501367        1.61207242909758        0.75574757099665
H            0.67543528340667        1.98689011630203       -1.02690366554788
H            2.16949453940141       -0.69984095166272        0.69276248728425
H            2.29892839240613        0.94679285726065        0.06824692867744
H            2.78911603833379        0.05981082023359       -2.21423617614393
H            2.71638727973435       -1.59023480514120       -1.57149785617146
H            4.65595598803569        1.55539178537097       -1.58388177895346
H            6.93491108141950        1.76475113813868       -0.76645524349966
H            8.63280570099104        1.82332799329221        0.83433572375794
H            9.18883572547843        1.15784086510499       -0.72511062013629
H           10.04528550965331        0.72917929257534        0.77475114023990
H            7.01191387615014       -4.24684195840732        1.66291710799225
H            5.40351803151077       -3.48462713345124        1.78698198081658
H            5.99851337272900       -4.06972359623653        0.20798297610584
H            4.42568024607254       -2.40120239053970       -0.05003626725616
H           -0.22345437426684       -1.65818458184398       -1.66132994645004
H           -1.02654735380078       -1.23041622123077       -0.14245766775315
H            0.53790479796747       -2.07336220320518       -0.11385630330906
H           -4.63865458437862        3.02286850575765       -0.20602292049650
H           -3.75493427551712        2.90022974701461        2.69705820158060
H           -4.93231291523171        1.79520815765337        1.97148674976931
H           -5.32429089193570        3.52192518931241        2.14318441919052
H           -2.53187690447506        4.58434659981894        1.30282962817758
H           -2.93591368954792        4.77260581533984       -0.40758264664931
H           -4.09557791967446        5.22472525162294        0.84757859945150
H           -0.69685052195129        2.77330320355291        2.82235694167894
72
 energy: -103.316446722576 gnorm: 0.012100676940 xtb: 6.6.1 (8d0f1dd)
N           -1.56870544314232        2.84486685135046        2.27330735905525
C           -1.58857879691433        2.14183989158113        1.22650172046388
C           -2.76000654153831        2.05663230494703        0.28375634120090
C           -3.34066041532746        0.65518326692080        0.34368101377599
C           -4.31529416917070        0.23924213856378       -0.56542503187356
C           -4.85428259752258       -1.03364232291245       -0.52015285019221
O           -5.79958015474872       -1.52179414151357       -1.37869355067187
C           -6.34169303548602       -0.64597848896076       -2.33230944307194
C           -4.41799754223124       -1.94069409766367        0.46497377340185
O           -5.00020328151782       -3.17620009688002        0.43145375193398
C           -4.65673478269157       -4.08691033454831        1.44370363470553
C           -3.46422355634381       -1.52548002927007        1.37452562148020
C           -2.93479719050947       -0.24289141259587        1.31152203008786
C           -2.19434998463474        2.30615728584168       -1.14455823316657
C           -1.26348590540695        1.19321207809624       -1.67890377550354
C            0.02185592510544        1.13423377082967       -0.92641895739958
N            0.64537250867240       -0.06504284060301       -0.58384799506828
C            2.02073241765876       -0.06851759687959       -0.20011667937618
C            2.96468780479975       -0.55563538707733       -1.32536738604749
C            4.38643856299195       -0.44282491524530       -0.87514346452692
C            5.10514284365343        0.72333889016108       -1.06326692963670
C            6.40822848802144        0.84059645706749       -0.59547210684319
C            7.01967881010578       -0.20886323791588        0.07075112523396
O            8.29536698880437       -0.20621313520672        0.54892431042971
C            9.06990809020120        0.94738782666493        0.34207935207050
C            6.29336547937875       -1.40156299665867        0.27475740487613
O            6.95332137881520       -2.38610867744871        0.95468151851567
C            6.28913376194165       -3.60566272138868        1.15677247030894
C            4.99409107168746       -1.49760007247120       -0.19481318998088
C           -0.05589839260138       -1.31763949179035       -0.63595560722866
C           -3.87601331204436        3.09580866536151        0.59061694053294
C           -4.52348308276796        2.80615718779540        1.94098676203285
C           -3.30970941453339        4.50904943410156        0.57857330439627
H           -4.63201379849668        0.91899686429326       -1.33873681276399
H           -6.79915625960795        0.23004847063144       -1.86163499742777
H           -7.10778768125216       -1.21541580705757       -2.85655349396235
H           -5.58960682526671       -0.30848329231091       -3.05148004636579
H           -4.88542397096925       -3.68773597003962        2.43938286176763
H           -5.26434146834978       -4.97319250652764        1.25283210824730
H           -3.59561021898213       -4.35881780503177        1.39753384158242
H           -3.12087435604095       -2.18900978369875        2.15337702137262
H           -2.20913939317684        0.06081900806490        2.04833121931106
H           -3.03937594690467        2.42455372684644       -1.83505510547937
H           -1.63038352550207        3.24049667715883       -1.13319738169506
H           -1.78635183883941        0.24061304923605       -1.64319664112265
H           -1.04699280943350        1.40118156026291       -2.73766092981085
H           -0.71375637595024        1.60834647043831        0.76213211649811
H            0.67862033702401        1.98443858709607       -1.02820998996755
H            2.17113945338896       -0.69762314886663        0.68982477993308
H            2.29947765521565        0.95019383713469        0.06679178169055
H            2.79017868318210        0.06110042177859       -2.21468810458306
H            2.71574893697648       -1.58986115246098       -1.57173297761857
H            4.65494278163283        1.55603872421929       -1.58219195875524
H            6.93296010180839        1.76582729957839       -0.76622950600330
H            8.63347324773699        1.82381461450671        0.83410303344231
H            9.19003429353435        1.15918920203686       -0.72592079402045
H           10.04459273032578        0.72887962962006        0.77467384169693
H            7.01140724104746       -4.24800411863150        1.66298854703541
H            5.40343647938027       -3.48591085430802        1.78773618023187
H            5.99765624471975       -4.07072643501154        0.20833534293817
H            4.42522960141969       -2.40091577125754       -0.04903513362928
H           -0.22372129274123       -1.65541077836632       -1.66204944845909
H           -1.02875583563223       -1.23025272111463       -0.14381926184426
H            0.53538542819283       -2.07206098299966       -0.11393615320201
H           -4.63457034363646        3.02168710118009       -0.20372195802816
H           -3.75348063856720        2.89442923433216        2.70593845575680
H           -4.93458087773920        1.79801935989820        1.97093624357148
H           -5.31714578631613        3.52553464107777        2.14634047090218
H           -2.52199471564773        4.57954825394904        1.30253817794533
H           -2.93034913236102        4.77240719262644       -0.40350568614730
H           -4.08186252031771        5.22692010576390        0.85342799099929
H           -0.70947338349941        2.79374509212309        2.81259351679066
72
 energy: -103.316680269542 gnorm: 0.005104425082 xtb: 6.6.1 (8d0f1dd)
N           -1.56419178416427        2.84069761501302        2.27828841101311
C           -1.58721788065577        2.14623668017707        1.22618111609127
C           -2.76109650506490        2.05825347341473        0.28592188198109
C           -3.34228126614097        0.65765389751241        0.34712833666370
C           -4.31429907032616        0.24217610268966       -0.56485628265094
C           -4.85360035269898       -1.03025052096454       -0.51937336414252
O           -5.79890887910055       -1.51851192065460       -1.37688363234082
C           -6.34124712065312       -0.64423731006644       -2.33148827206736
C           -4.41673296546918       -1.93762293720166        0.46596906179369
O           -4.99902968530425       -3.17223293005718        0.43094497937699
C           -4.65619660614841       -4.08395274295994        1.44198081919519
C           -3.46219644330546       -1.52350734932862        1.37542338458347
C           -2.93486975623467       -0.24029483202951        1.31437383447983
C           -2.19291536988357        2.30094472742497       -1.14092454316103
C           -1.26192273733663        1.19110067479219       -1.68142984447467
C            0.02285528997202        1.13172297342489       -0.92806497676498
N            0.64531554910544       -0.06563109176118       -0.58535523193297
C            2.02071680856834       -0.06835989515170       -0.20044394813332
C            2.96507929279249       -0.55655638447444       -1.32496172115814