25
 energy: 0.000000000000 xtb: 6.6.1 (8d0f1dd)
C            3.23720132972391        1.16630909158653        0.08434468864950
N            2.29877796055224        0.07527476373246        0.03981602671198
C            2.58028186251803       -1.21425391179017        0.03006175752192
N            1.43813944744728       -1.93419254010258        0.00098261751768
C            0.39035684826767       -1.05887462812143       -0.00790371763344
C            0.93510047688824        0.21347817468824        0.01709077332874
C            0.09450143016486        1.40504290868848       -0.00410946993748
O            0.49712746915594        2.54126690785742       -0.00342325656480
N           -1.25076628431515        1.06271869620815       -0.03085477937476
C           -2.21907191394203        2.15522079838987       -0.05001256521996
C           -1.81739470187490       -0.20012724136556       -0.04692818139228
O           -2.99983858926755       -0.37846413507442       -0.07008877579474
N           -0.92618577614240       -1.30210203518959       -0.03682761236648
C           -1.46982251276835       -2.64643077634382       -0.06029819901142
H            3.71247229913541        1.21471443890471        1.06488839270555
H            4.00791460421487        1.03430799217987       -0.67357688121503
H            2.69909982127087        2.09770098766290       -0.09130154035862
H            3.56654087521359       -1.63682977417947        0.04233139674524
H           -1.67107945562430        3.09322822573871       -0.02552706696334
H           -2.82428927394145        2.09428605349656       -0.95318074103337
H           -2.87644002486466        2.07745706351925        0.81450059976605
H           -1.17061985538665       -3.19584861009707        0.83242224714061
H           -1.14560246782873       -3.17511580834413       -0.95688266944647
H           -2.55549768731684       -2.55659960601237       -0.07459039105944
H            1.38130842369251       -2.94313824728853       -0.01389874052104
25
 energy: -5.927539185105 xtb: 6.6.1 (8d0f1dd)
C            3.25044284507702        1.19708304040413        0.09227114265780
N            2.32686660904118        0.10692527190796        0.02643464006523
C            2.63001373447824       -1.24367839710112        0.03786133732740
N            1.44540985291793       -1.94186965203760        0.00879712491537
C            0.41511149708814       -1.07567677716252       -0.00938611592665
C            0.93438210120928        0.21848186485475        0.00637471790162
C            0.12632134516464        1.37265745304040       -0.00930418993384
O            0.48526823107678        2.55485332144352       -0.00665748386299
N           -1.26305822849933        1.02656858680939       -0.03254579240065
C           -2.21562172701323        2.12237536035166       -0.04975421065513
C           -1.80654188170471       -0.21674919213881       -0.04794817280817
O           -3.00783716627212       -0.40523518986707       -0.07010915830584
N           -0.93040627711040       -1.32304313274525       -0.03722680610398
C           -1.55313135659725       -2.62987009295373       -0.06224835148922
H            3.74310379421489        1.24004385195066        1.06923937843364
H            4.01696760687490        1.09814178241172       -0.68087537349329
H            2.69104709420757        2.12076044975509       -0.05887604798202
H            3.60414895328575       -1.67261880094476        0.04445919016781
H           -1.64752980144728        3.05097821257049       -0.02585806775626
H           -2.82187348013528        2.06778118069234       -0.95390750719871
H           -2.87161988440414        2.05134794670153        0.81754074400634
H           -1.30812687821987       -3.21263003838334        0.82763719065386
H           -1.28825770471647       -3.18807617935735       -0.96231825190005
H           -2.62749682654062       -2.45347769967779       -0.07294402483254
H            1.39106189117410       -2.94565547947457        0.00551688817641
25
 energy: -3.530977469740 xtb: 6.6.1 (8d0f1dd)
C            3.25226164523661        1.21927774505911        0.09725413498160
N            2.34590561812211        0.10988097739662        0.02395642594192
C            2.66314910460216       -1.23952301002676        0.03958518140663
N            1.48518342240288       -1.95089992036928        0.01385420720869
C            0.43599904578140       -1.10410143100703       -0.01002211524896
C            0.94903907797050        0.19922437522876        0.00147588508971
C            0.13906305988633        1.35272447943504       -0.01484165594484
O            0.48677789228352        2.53893873271030       -0.01454679109685
N           -1.24633391555686        1.00378514277018       -0.03475916525241
C           -2.20316279878110        2.09560095953388       -0.05015139910018
C           -1.78285401188197       -0.23836175294678       -0.04782572310436
O           -2.98726175269687       -0.41246485481243       -0.06674796672599
N           -0.91814812001127       -1.35821450781474       -0.03803151312177
C           -1.63156540076280       -2.62773044646600       -0.06449444972774
H            3.76103775000376        1.25832126104742        1.06645888618444
H            4.01186354036738        1.15417195609594       -0.68741909701084
H            2.67426608345622        2.13671914082068       -0.02689666227130
H            3.64169530390112       -1.66364753711749        0.05296057551019
H           -1.63635169484613        3.02553199815505       -0.02723667633996
H           -2.81066167232190        2.03634296949810       -0.95309071630477
H           -2.85646836224748        2.02035927680614        0.81864992457358
H           -1.44803097887249       -3.23415866777667        0.82323025253922
H           -1.43417578181064       -3.20449299984813       -0.96917899965221
H           -2.68746541492134       -2.36065046195909       -0.07031532060416
H            1.44929440718611       -2.95569408975808        0.01783217544779
25
 energy: 0.487247922834 xtb: 6.6.1 (8d0f1dd)
C            3.24908299447077        1.24168875386698        0.10149028850756
N            2.36211379964844        0.11228492087985        0.02293517164174
C            2.69310329450012       -1.23404733675171        0.04074874231054
N            1.52219279665798       -1.95958841562760        0.01849620038374
C            0.45249062401171       -1.13324948684677       -0.01083883663219
C            0.96165115084324        0.17842152782474       -0.00315658155020
C            0.15605896047114        1.33469410888923       -0.02276562708931
O            0.49933995283675        2.52272231101689       -0.02796832580758
N           -1.22381953705752        0.98690639559749       -0.03814180748262
C           -2.18631926700865        2.07337862518539       -0.05105209952398
C           -1.75914140406525       -0.25196688421424       -0.04740880738296
O           -2.96913480798031       -0.39251619359163       -0.06123025085647
N           -0.91396873940578       -1.39203977370898       -0.03935858340757
C           -1.71343446440211       -2.62413753411798       -0.06706076404382
H            3.77737128041128        1.27749889521850        1.06084054051270
H            3.99797355652308        1.21102991177417       -0.69669135314146
H            2.64991456021670        2.14986583958182        0.00574258526754
H            3.67871560195152       -1.64551847305841        0.06210640955326
H           -1.62253893923758        3.00503189096896       -0.02927659968642
H           -2.79626578612514        2.00756752039355       -0.95195635620132
H           -2.83712870806334        1.99205695952039        0.81912064696778
H           -1.58912892710189       -3.24981827594169        0.81708490264336
H           -1.58168371855071       -3.21346300349679       -0.97521396951322
H           -2.74454615925041       -2.27200027623954       -0.06692300112180
H            1.50743840070933       -2.96516616564789        0.02858288023519
25
 energy: 6.139142870280 xtb: 6.6.1 (8d0f1dd)
C            3.24357343849846        1.26299583856566        0.10497614914889
N            2.37651668620474        0.11399183406655        0.02270489540572
C            2.72073203344132       -1.22819636821907        0.04267309295873
N            1.55725415783943       -1.96817689722898        0.02260934749317
C            0.46666437198319       -1.16295657060258       -0.01243474979180
C            0.97311997597166        0.15668032519089       -0.00815029227454
C            0.17475656368475        1.31680250547106       -0.03108428104835
O            0.51831579299352        2.50532209059780       -0.04056273094544
N           -1.19965681706106        0.97127639758370       -0.04246475956176
C           -2.16739123343996        2.05284568167026       -0.05224846170639
C           -1.73633381474029       -0.26418945920216       -0.04625745815184
O           -2.95140604284137       -0.36986247006856       -0.05230799943592
N           -0.91389615593515       -1.42573135171898       -0.04136161734168
C           -1.79524929757846       -2.62076793920714       -0.07020507687081
H            3.79308660865053        1.29641646408193        1.05277866695072
H            3.97881744758848        1.26640571673870       -0.70746365084990
H            2.62338580653060        2.16044262205285        0.03817484774500
H            3.71390199806078       -1.62402486227307        0.07103966904832
H           -1.60699014858654        2.98601731092233       -0.03171735154335
H           -2.78045884751780        1.98040226219280       -0.95067598105564
H           -2.81567753566427        1.96550307457737        0.81941011253525
H           -1.72761070710988       -3.26093510081349        0.80933952618320
H           -1.72669617581690       -3.21572263153904       -0.98131456508550
H           -2.79669831119182       -2.19156498336829       -0.06295229055651
H            1.56561513931425       -2.97409443104921        0.03838891798128
25
 energy: 13.395173745192 xtb: 6.6.1 (8d0f1dd)
C            3.23652627058039        1.28393582472510        0.10815099878314
N            2.38993897978699        0.11620095075386        0.02326528317544
C            2.74678571786265       -1.22107137643994        0.04424319479570
N            1.59166608436694       -1.97571621286569        0.02638530144889
C            0.48047483326412       -1.19193657282789       -0.01433225392528
C            0.98383508745572        0.13585968766445       -0.01334247607692
C            0.19265799980282        1.29928607645369       -0.03926071901363
O            0.53679988265059        2.48835938522519       -0.05132711233546
N           -1.17650841510634        0.95482471234454       -0.04757748267462
C           -2.14833705385504        2.03242203730602       -0.05365663403899
C           -1.71434607779794       -0.27893360436139       -0.04241565047946
O           -2.93310137515998       -0.35267736346433       -0.03570754831194
N           -0.91613307831548       -1.46029867081283       -0.04310098304752
C           -1.87544359154443       -2.62057162193746       -0.07465769013357
H            3.80850832639096        1.31542533937046        1.04291358725122
H            3.95536138066372        1.32057060398081       -0.71899566411950
H            2.59609976505286        2.16956675891157        0.07072594789402
H            3.74718610407659       -1.60075424835865        0.08058711108797
H           -1.59072983424387        2.96677854751405       -0.03479424657291
H           -2.76470502677341        1.95415810652516       -0.94939331623863
H           -2.79347136688153        1.94034795061663        0.81996540455660
H           -1.86031188358402       -3.27067157841592        0.79990321672378
H           -1.86677139620843       -3.21527922678910       -0.98850149317726
H           -2.84705549151527       -2.12310766001234       -0.05869271185298
H            1.62262057524765       -2.98143987004822        0.04718367325455
25
 energy: 22.114753437565 xtb: 6.6.1 (8d0f1dd)
C            3.22911511581467        1.30535145774543        0.11124455596783
N            2.40297189797060        0.12038186458275        0.02430336131342
C            2.77275446084881       -1.21200830762044        0.04678768029985
N            1.62769163903500       -1.98111859161859        0.02980421549223
C            0.49686279143936       -1.21945379035839       -0.01746638818699
C            0.99455263546296        0.11700712146693       -0.01878343219242
C            0.20911160458973        1.28152174824030       -0.04761733680492
O            0.55241881598976        2.47174208220257       -0.06122718269992
N           -1.15580187760182        0.93621040835233       -0.05310544015523
C           -2.12989066730514        2.01128056848950       -0.05524513701515
C           -1.69339425750793       -0.29640588857708       -0.03825068407164
O           -2.91519910180597       -0.34432232076816       -0.01759168879433
N           -0.91709487576999       -1.49448402439739       -0.04655076709091
C           -1.95170602768775       -2.62405788361625       -0.07870367059122
H            3.82393724310845        1.33496056244177        1.03185181486362
H            3.92897699174368        1.37398440607200       -0.73076852323956
H            2.56959431830023        2.17814439492282        0.10319805232979
H            3.77992655128252       -1.57467307866937        0.09048647644353
H           -1.57395985406925        2.94614583624444       -0.03882438092324
H           -2.74946147853478        1.92818760864319       -0.94806363122015
H           -2.77102977780759        1.91613274819031        0.82082675910563
H           -1.98675239756049       -3.28104527514021        0.78968749019057
H           -1.99693253419863       -3.21026905878662       -0.99591027438658
H           -2.89500128568818       -2.06737944586507       -0.05300382292510
H            1.67986121875578       -2.98642368438377        0.05490113825151
25
 energy: 50.907131641732 xtb: 6.6.1 (8d0f1dd)
C            3.27043852145571        1.36876492352641        0.11467977084074
N            2.48323145844118        0.15660639562804        0.03613718101486
C            2.85574336024536       -1.13154987879419        0.05599182839753
N            1.74017325075627       -1.92608074360642        0.03078856319908
C            0.60387849129540       -1.13519981267788       -0.01371649243683
C            1.10985614533875        0.17695943912821       -0.01863897942462
C            0.25141186201800        1.32789450041829       -0.05254054530340
O            0.59646101328979        2.50565649915941       -0.07046173669906
N           -1.06023084704078        0.94997147070978       -0.05727419921386
C           -2.08570573186020        1.97936127673084       -0.05773322172659
C           -1.54416083887050       -0.36482483940067       -0.03185084687695
O           -2.75951041571155       -0.39350001653964       -0.00082095418137
N           -0.69458867275731       -1.44471968575153       -0.03058911161785
C           -2.59828149509190       -2.93621854181479       -0.10094936707178
H            3.87893138265291        1.39369350153355        1.02062965491836
H            3.93718093716515        1.46297294228698       -0.74590966829235
H            2.57022740689119        2.21205581522000        0.13681496156498
H            3.86517968641138       -1.49709079219845        0.09988116963174
H           -1.57210605192474        2.93777812623731       -0.04319895953602
H           -2.70994866070473        1.87315594959675       -0.94573260655853
H           -2.72436595410940        1.86286726652076        0.81882823398513
H           -2.34436084640464       -3.42681783927411        0.80518578619120
H           -2.36656042794731       -3.34447953331110       -1.05222206149538
H           -3.18761214645369       -2.06088290048946       -0.05625522515084
H            1.76181857866348       -2.93430840267334        0.06242027742797
25
 energy: 51.360838131383 xtb: 6.6.1 (8d0f1dd)
C            3.27517850624568        1.40593021738667        0.11868167251670
N            2.51582530162222        0.17673231378274        0.03994362743287
C            2.90362291524111       -1.10281618225967        0.06208391448852
N            1.80232314751248       -1.91293289225446        0.03524082966103
C            0.65531331186239       -1.13560811984710       -0.01262008619850
C            1.14653071865760        0.18228091326127       -0.01929095131112
C            0.27462147288171        1.32302686544228       -0.05893752284454
O            0.60925651183677        2.50393432559633       -0.07938879407338
N           -1.02898132489972        0.93030486334540       -0.06308643049502
C           -2.06521316172199        1.94945710439852       -0.05989967385275
C           -1.49328625620040       -0.39730423467564       -0.02810460713016
O           -2.70619250332323       -0.43614640473024        0.01181143629622
N           -0.63237033519728       -1.46479225939306       -0.02742141764761
C           -2.81756496494376       -2.96416744197419       -0.10971208103467
H            3.90555625481494        1.43006910156894        1.00839328678807
H            3.91591721347713        1.52840334702382       -0.75752759259899
H            2.55252325451733        2.22983470456599        0.17071276885314
H            3.91755682762531       -1.45446679839617        0.10953578982149
H           -1.55953419800937        2.91234674335996       -0.04826317339622
H           -2.69243447301705        1.83799770217434       -0.94492928020413
H           -2.69898711040381        1.83019020322824        0.81990737228795
H           -2.52423524492015       -3.44140521141491        0.79146686994893
H           -2.55505474305704       -3.34909319034981       -1.06251029046440
H           -3.32102566565289       -2.03800244658078       -0.05640225688863
H            1.83309279649499       -2.92176904911778        0.06879549587271
25
 energy: 51.086141367101 xtb: 6.6.1 (8d0f1dd)
C            3.27899653090634        1.44446879585985        0.12324486883274
N            2.54690217597276        0.19993748489101        0.04367251708422
C            2.95132518479495       -1.07285529830285        0.06822863875773
N            1.86267431805170       -1.89844527061653        0.03970423838418
C            0.70671588042152       -1.13547803302420       -0.01137430038484
C            1.18008638914404        0.18823945816176       -0.01954568047387
C            0.29490679518288        1.31691193191132       -0.06526280425125
O            0.61752163095022        2.50136498997907       -0.08878974189707
N           -1.00255621447033        0.90903050964842       -0.06831594146418
C           -2.04721712646905        1.91954938803822       -0.06192263239561
C           -1.44642080686541       -0.42873662532454       -0.02553556550537
O           -2.65650734378143       -0.48824099883252        0.02037680690312
N           -0.57293871380455       -1.48334377462023       -0.02568499766276
C           -3.00353161114890       -2.97574493603183       -0.11690990999110
H            3.93100996162387        1.46824220502841        0.99601068107777
H            3.89225810446451        1.59359343250215       -0.76806424704479
H            2.53622693417957        2.24867510329106        0.20519605902610
H            3.96901269516788       -1.41075295237084        0.11886974047667
H           -1.54758153445050        2.88601308088135       -0.05392400556631
H           -2.67704388291360        1.80339258503114       -0.94408377410728
H           -2.67548410483409        1.79876799315721        0.82152778007208
H           -2.70367821129494       -3.45861178447327        0.77919531196743
H           -2.74302348646440       -3.35985683697566       -1.07043324012842
H           -3.45598940663548       -2.02470662949092       -0.05789052982838
H            1.90274604913791       -2.90754361215860        0.07460825023597
25
 energy: 50.262335992281 xtb: 6.6.1 (8d0f1dd)
C            3.28371386526131        1.48360110290320        0.12838155963710
N            2.57724990540380        0.22502214740706        0.04781697650050
C            2.99818333256354       -1.04128346744169        0.07419608911493
N            1.92199188851740       -1.88203717602181        0.04359177390736
C            0.75757733342170       -1.13354513916465       -0.01001792735815
C            1.21246753483344        0.19558200586201       -0.01938793165508
C            0.31270650566372        1.31012522364689       -0.07148398690671
O            0.62256463299420        2.49814143538839       -0.09874676538252
N           -0.97918947405143        0.88629251073215       -0.07300316050115
C           -2.03068849087192        1.88941774974640       -0.06363283271728
C           -1.40276813608637       -0.46070971714603       -0.02530346955900
O           -2.60937919129191       -0.54831839579898        0.02392384266405
N           -0.51405761315627       -1.50072341010918       -0.02417381549616
C           -3.16894281480827       -2.98711704718855       -0.12291928582426
H            3.95666842310068        1.50747384397143        0.98371891065121
H            3.86761527343989        1.65785114955842       -0.77749567412773
H            2.52324058101212        2.26844679890611        0.24055633413747
H            4.01935011249155       -1.36563562719802        0.12721886214184
H           -1.53595757070963        2.85896267819729       -0.05995984185063
H           -2.66299514509629        1.76895871435668       -0.94295180789719
H           -2.65309131660913        1.76809397075127        0.82371410444185
H           -2.88315298067497       -3.48561712118454        0.76900058240758
H           -2.93241735530096       -3.38359235811521       -1.07715372633651
H           -3.57865771008342       -2.01906374928160       -0.05980101844415
H            1.97175252597816       -2.89119485501728        0.07944126046449
25
 energy: 49.226193498591 xtb: 6.6.1 (8d0f1dd)
C            3.29239503877819        1.52193275730780        0.13317289691853
N            2.60698980612649        0.25188165318882        0.05183194200137
C            3.04380378435622       -1.00799803685873        0.07958553720818
N            1.98024471542022       -1.86362380944789        0.04696127590586
C            0.80743115523335       -1.12994314893344       -0.00853771949572
C            1.24400087118599        0.20445668694765       -0.01875974153180
C            0.32928917166849        1.30364453288327       -0.07771159144989
O            0.62658380375865        2.49482092278501       -0.10985653905719
N           -0.95739091128446        0.86346511199352       -0.07673614252462
C           -2.01469345833687        1.86008992717799       -0.06503655129843
C           -1.36159748795355       -0.49172331909462       -0.02599287065342
O           -2.56442568086353       -0.60954967435429        0.02370422725436
N           -0.45612120438882       -1.51628943095726       -0.02318789300441
C           -3.32529650753829       -2.99774978323112       -0.12770704338535
H            3.98526307333214        1.54530194916786        0.97094527452252
H            3.84452591600323        1.71931922780469       -0.78687463610087
H            2.52058107355187        2.29170034493191        0.27618745915832
H            4.06825819528964       -1.31905981275295        0.13386378824305
H           -1.52403308543602        2.83235474666724       -0.06647289365351
H           -2.64951558859985        1.73502954970950       -0.94138972166141
H           -2.63104432641883        1.73887633856274        0.82633165944452
H           -3.06657638830601       -3.51687518659417        0.76052109849711
H           -3.12516507992914       -3.41213324664431       -1.08252293869644
H           -3.68307676909268       -2.01030088688041       -0.06140310691420
H            2.03990747002911       -2.87268518048701        0.08325292736086
25
 energy: 47.955794591658 xtb: 6.6.1 (8d0f1dd)
C            3.30775420696837        1.55771462542594        0.13305176276667
N            2.63677341780306        0.27984158486554        0.05488959263778
C            3.08833169859413       -0.97384304929169        0.08408938818519
N            2.03738757255004       -1.84367671846926        0.05015574947834
C            0.85626113958890       -1.12388340864560       -0.00666418797507
C            1.27563614487039        0.21506919417174       -0.01776208058770
C            0.34531902578885        1.29805909468624       -0.08402953044379
O            0.63065800422476        2.49173544373820       -0.12321951717523
N           -0.93610885889172        0.84117503780802       -0.07934630184665
C           -1.99884382514759        1.83148799869543       -0.06611084047249
C           -1.32277051681194       -0.52180783456680       -0.02730962553746
O           -2.52105420603297       -0.67011366887705        0.02015855761733
N           -0.39875350019965       -1.53014574995221       -0.02236982439358
C           -3.47673442869126       -3.01025016295123       -0.13160759405003
H            4.01627744759758        1.58256734203900        0.95633056659218
H            3.82953653806333        1.77261650192534       -0.79925044812492
H            2.53470602269515        2.32130769933714        0.29636411845664
H            4.11598379061040       -1.27178727765964        0.13829242643980
H           -1.51207229187627        2.80635198295883       -0.07308838863326
H           -2.63631608614649        1.70132177763518       -0.93949263047883
H           -2.60938786103966        1.71065625897013        0.82919965980363
H           -3.25226116338257       -3.55043568138858        0.75335658774254
H           -3.31958881298233       -3.44347647339032       -1.08648270044799
H           -3.76985228208576       -2.00166618660527       -0.06308258828717
H            2.10709633415157       -2.85236233316737        0.08607239145852
25
 energy: 46.553147286958 xtb: 6.6.1 (8d0f1dd)
C            3.32533166250155        1.59272033294930        0.12914030760199
N            2.66579983315478        0.30868441255208        0.05694811095122
C            3.13135276985736       -0.93869321548253        0.08713700174716
N            2.09226483364944       -1.82101506769333        0.05295757838914
C            0.90318728488582       -1.11568778234612       -0.00378991338826
C            1.30619082280984        0.22797514323223       -0.01511250986190
C            0.36140076805544        1.29582685711667       -0.08630668891322
O            0.63564245304248        2.49182303164117       -0.13131350681456
N           -0.91484280120538        0.82155041113290       -0.08017258846929
C           -1.98384055851755        1.80458198775648       -0.06687470579492
C           -1.28572800689968       -0.54891197159517       -0.02947339814491
O           -2.47981057942338       -0.72559079893893        0.01298485246787
N           -0.34351651763373       -1.54009547389845       -0.02070544355662
C           -3.62294160843431       -3.02830166072085       -0.13489341141332
H            4.04531372965224        1.62149800415164        0.94142645994327
H            3.81961349228588        1.82105407991516       -0.81312276860272
H            2.55175255644681        2.35207039317683        0.30125602712772
H            4.16201971041361       -1.22409267225398        0.14095122299750
H           -1.50102379020018        2.78206194930289       -0.07939570488632
H           -2.62327742040595        1.66777175523818       -0.93754309385750
H           -2.58892088960820        1.68338876018605        0.83190274329872
H           -3.43839302274340       -3.58566468381234        0.74879031402200
H           -3.51476428148030       -3.47624066277463       -1.09001580475501
H           -3.84118532400986       -2.00016146468638       -0.06523388861713
H            2.17137160625061       -2.82918283213686        0.08756899019922
25
 energy: 45.009240894538 xtb: 6.6.1 (8d0f1dd)
C            3.34381924807751        1.62907143233030        0.12567595090356
N            2.69408294885640        0.34026704957155        0.05943261246918
C            3.17217309023852       -0.90114459926435        0.08924577042710
N            2.14401824610988       -1.79433097958636        0.05496780220485
C            0.94807940011423       -1.10091141235109       -0.00077493355012
C            1.33578663017795        0.24708305727078       -0.01069142045259
C            0.37577444068525        1.30151678811116       -0.07845771071301
O            0.63622309214944        2.50086517658356       -0.11798952246194
N           -0.89428961166561        0.80751225965466       -0.07864497491345
C           -1.97172792510108        1.77993978688367       -0.06741237561545
C           -1.25122300675814       -0.57027446015435       -0.03126774647288
O           -2.44060539433927       -0.77522634789697        0.00351599336117
N           -0.29049223425622       -1.54179517677826       -0.01917315002535
C           -3.75505251201570       -3.05893179199669       -0.13893150362008
H            4.07243030355476        1.66201278478163        0.92964726656332
H            3.81333635810890        1.86983441529276       -0.82443412795680
H            2.56894355050237        2.38419793334943        0.30244616832498
H            4.20561272736744       -1.17544131944929        0.14188913874365
H           -1.49446772946757        2.76047958711182       -0.08495825127079
H           -2.61176294914906        1.63380779751421       -0.93614319360826
H           -2.57236964367153        1.65634956729080        0.83382011775416
H           -3.62159537786428       -3.62895322678272        0.74569925880833
H           -3.70698109444876       -3.51740384695379       -1.09390424394251
H           -3.90015503182472       -2.01551460925773       -0.06910449301953
H            2.23194867385981       -2.80192263090476        0.08778243641188
25