25
 energy: 0.000000000000 xtb: 6.6.1 (8d0f1dd)
C            3.23720163006194        1.16630919979326        0.08434469647475
N            2.29877817382611        0.07527477071623        0.03981603040599
C            2.58028210190900       -1.21425402444508        0.03006176031096
N            1.43813958087363       -1.93419271955128        0.00098261760884
C            0.39035688448383       -1.05887472636071       -0.00790371836672
C            0.93510056364412        0.21347819449412        0.01709077491437
C            0.09450143893243        1.40504303904423       -0.00410947031874
O            0.49712751527797        2.54126714362870       -0.00342325688240
N           -1.25076640035757        1.06271879480407       -0.03085478223738
C           -2.21907211982101        2.15522099834493       -0.05001256985998
C           -1.81739487048744       -0.20012725993278       -0.04692818574614
O           -2.99983886758376       -0.37846417018721       -0.07008878229737
N           -0.92618586207120       -1.30210215599479       -0.03682761578324
C           -1.46982264913417       -2.64643102187190       -0.06029820460571
H            3.71247264356769        1.21471455160235        1.06488849150277
H            4.00791497605742        1.03430808813993       -0.67357694370751
H            2.69910007168542        2.09770118228144       -0.09130154882931
H            3.56654120610678       -1.63682992603973        0.04233140067262
H           -1.67107961066214        3.09322851271934       -0.02552706933167
H           -2.82428953597071        2.09428624779827       -0.95318082946668
H           -2.87644029173232        2.07745725625962        0.81450067533302
H           -1.17061996399332       -3.19584890659852        0.83242232437030
H           -1.14560257411436       -3.17511610292205       -0.95688275822323
H           -2.55549792440841       -2.55659984320617       -0.07459039797972
H            1.38130855184625       -2.94313852034425       -0.01389874181052
25
 energy: -5.397819013073 xtb: 6.6.1 (8d0f1dd)
C            3.24375472476107        1.17744286318583        0.08677110839692
N            2.30794191506973        0.09548008134787        0.03772529895071
C            2.59945637175585       -1.23265947311365        0.03001305507567
N            1.42735281525149       -1.94027362607992        0.00077674189488
C            0.39628887116164       -1.05615022499709       -0.00825752570993
C            0.93011483396791        0.22254428989344        0.01528111346539
C            0.10158532640775        1.39599875834968       -0.00520526913913
O            0.49822646354149        2.56184994376455       -0.00457510433966
N           -1.26043201751698        1.05070731620930       -0.03110820113213
C           -2.22044859364104        2.14711186051691       -0.04995579292316
C           -1.82371951313309       -0.20057834201584       -0.04726173655645
O           -3.02038032189503       -0.38274299774028       -0.07036664201717
N           -0.93426009196292       -1.30088465356208       -0.03701468655188
C           -1.47161229456929       -2.64306798403420       -0.06017725980597
H            3.72200399910089        1.22328669026335        1.06882366984634
H            4.01177027735598        1.04269376396988       -0.67628473120372
H            2.69693438888299        2.10206718169759       -0.08870069606804
H            3.57765671221766       -1.65899145940182        0.04261289779296
H           -1.65865958445540        3.07820342112618       -0.02538364421492
H           -2.82597243366348        2.09403103319151       -0.95429030028006
H           -2.87801109707017        2.07738692745623        0.81588330429665
H           -1.16791304062626       -3.19421966266285        0.83189387765011
H           -1.14291604749198       -3.17365674008975       -0.95596001598894
H           -2.55692938921417       -2.55255680833182       -0.07452416629165
H            1.36038239370157       -2.94399355677096       -0.01368139899955
25
 energy: -6.572437010299 xtb: 6.6.1 (8d0f1dd)
C            3.25043018538722        1.18416851799026        0.08927986140209
N            2.31446905027864        0.10677052338712        0.03410042154197
C            2.60893955877425       -1.24628376859607        0.03009100990933
N            1.41480531697321       -1.93896644208049        0.00100708725151
C            0.39938423950302       -1.05179732192434       -0.00893813589000
C            0.92649634765213        0.23040951641086        0.01257546044475
C            0.10733940394479        1.38421406334286       -0.00734571780128
O            0.48621489128759        2.56514497500380       -0.00737578539673
N           -1.27083619904693        1.03975534988967       -0.03177988385485
C           -2.22074416963364        2.14055958403799       -0.04988170461198
C           -1.82660661027310       -0.20193837208264       -0.04763952246195
O           -3.02737202888338       -0.38993095624233       -0.07037113834856
N           -0.94028377514267       -1.29756108830509       -0.03720802255735
C           -1.47133712280828       -2.63880733099188       -0.05989329352421
H            3.73591751810077        1.23315783869549        1.06979621600122
H            4.01767558670703        1.05823900351846       -0.67803702950569
H            2.69823739177556        2.10668503167796       -0.08135222817689
H            3.58028862369635       -1.67938104157939        0.04313122483090
H           -1.64083412856209        3.06131387614519       -0.02531470300489
H           -2.82743969789971        2.09564216575692       -0.95445790866882
H           -2.87878535390048        2.07922132193521        0.81678537771913
H           -1.16499906302673       -3.19147521619361        0.83158148876959
H           -1.13996621027417       -3.17132435641883       -0.95481259239735
H           -2.55669647257591       -2.54824600130186       -0.07434328577973
H            1.33791738588273       -2.94054126990326       -0.01256329974293
25
 energy: -6.660355475673 xtb: 6.6.1 (8d0f1dd)
C            3.25356437133960        1.18588539349041        0.09079557635511
N            2.31755901450823        0.10762181364897        0.03096006925494
C            2.60903642317567       -1.25227002067760        0.03000450121485
N            1.40916909967603       -1.93696565688215        0.00158426007401
C            0.39959860780889       -1.04977612429114       -0.00961304101502
C            0.92656946729904        0.23343024852130        0.01030003173533
C            0.10871130533580        1.38121131499303       -0.00983246313101
O            0.47384033285711        2.56541108672306       -0.01085206309770
N           -1.27669345907795        1.03594358698581       -0.03282022674781
C           -2.22049623814484        2.13923139265075       -0.04995786524313
C           -1.82821775221107       -0.20416356951630       -0.04804212180229
O           -3.02839675562893       -0.39714770736057       -0.07026835898639
N           -0.94138509371579       -1.29597400851932       -0.03733126741585
C           -1.46921230862516       -2.63746142460580       -0.05944253577825
H            3.74526236546637        1.23510396228689        1.06882664788996
H            4.02007060500046        1.07163942312218       -0.67973717377373
H            2.69973960904918        2.10960464215386       -0.07191392339414
H            3.57733406618481       -1.69153317205124        0.04340224912058
H           -1.62934158005167        3.05282336173141       -0.02563071381951
H           -2.82820978626404        2.09894252066063       -0.95405973531839
H           -2.87817205544487        2.08259534768450        0.81730805915346
H           -1.16236360593616       -3.18951798170462        0.83229547431462
H           -1.13723081239371       -3.17001934374455       -0.95418405743971
H           -2.55477142705666       -2.54709522909202       -0.07399626693627
H            1.32625027478585       -2.93849125403545       -0.01076115906638
25
 energy: -6.633742091395 xtb: 6.6.1 (8d0f1dd)
C            3.25643967964229        1.18673731306618        0.09349615741640
N            2.32154827265230        0.10582261035367        0.02549528504416
C            2.60651901459465       -1.25838467879587        0.02935974570361
N            1.40353435383663       -1.93430629982923        0.00275167788788
C            0.39873556192766       -1.04702939734429       -0.01097071324026
C            0.92811722929369        0.23665707386080        0.00604766599078
C            0.10964446542835        1.38050736636949       -0.01512286002589
O            0.45689741275338        2.56678652518942       -0.01814841563252
N           -1.28340772060611        1.03242037468627       -0.03531264139940
C           -2.21968043677900        2.13947513217689       -0.05034254637184
C           -1.83112930115893       -0.20765730774948       -0.04897473497360
O           -3.02977508471397       -0.40733806228752       -0.06994320357387
N           -0.94155449878763       -1.29435839157765       -0.03757621959988
C           -1.46451491170032       -2.63725450569367       -0.05829837580209
H            3.75850436488807        1.22949065814410        1.06706040272855
H            4.01930686169575        1.09288741894572       -0.68436756939824
H            2.69940754892957        2.11256623996638       -0.05166665961100
H            3.57077388072634       -1.70714847994683        0.04352651252987
H           -1.61529730915345        3.04430502751757       -0.02684788126502
H           -2.82956021717013        2.10597663597276       -0.95316327330359
H           -2.87598066449414        2.08959788967684        0.81830913449078
H           -1.15675981535914       -3.18704233581210        0.83433963053669
H           -1.13141279402810       -3.16921485085284       -0.95279882418594
H           -2.55041916915318       -2.54857037001715       -0.07306644552579
H            1.31227794467161       -2.93589698384742       -0.00675195227251
25
 energy: -6.445415532342 xtb: 6.6.1 (8d0f1dd)
C            3.25832478802804        1.18667380362880        0.09899269527061
N            2.32614517065143        0.10215725093972        0.01611549019322
C            2.60161056673536       -1.26447066584727        0.02707705209820
N            1.39711242150401       -1.93114589619849        0.00451926001789
C            0.39632415447500       -1.04276501281604       -0.01371829755401
C            0.93047116349451        0.24060374765224       -0.00195863144626
C            0.11067046018920        1.38164905725597       -0.02573600069999
O            0.43784055555884        2.56983731958888       -0.03273587358030
N           -1.29069986821388        1.02883626612444       -0.04072673311411
C           -2.21793957094634        2.14169837792932       -0.05149351507512
C           -1.83603062427225       -0.21168875668018       -0.05092919231676
O           -3.03271169981785       -0.41909157304460       -0.06909313498883
N           -0.94165294705275       -1.29256531737286       -0.03813889882392
C           -1.45612350503435       -2.63879617393687       -0.05566066339051
H            3.77895664492899        1.20832514158745        1.06439579871852
H            4.01063699878748        1.12676070111777       -0.69472495458418
H            2.69430097967994        2.11515545972737       -0.01042997644093
H            3.56025579565840       -1.72637820436151        0.04308956478064
H           -1.59907493242015        3.03676416640091       -0.03018169932766
H           -2.83218562989939        2.11790102715895       -0.95157261638958
H           -2.87066144867753        2.10134172607585        0.82031714958553
H           -1.14551765221205       -3.18375849644338        0.83873269537379
H           -1.11984237266789       -3.16988133741675       -0.94926222692827
H           -2.54256641082765       -2.55567655980617       -0.07081077519043
H            1.29457163028704       -2.93245744909152        0.00096737995976
25
 energy: -4.155354100345 xtb: 6.6.1 (8d0f1dd)
C            3.26153014848858        1.18487062789799        0.12233200221976
N            2.33970948682259        0.08932614281876       -0.02001976738328
C            2.58357755469042       -1.28268872716735        0.01603099455318
N            1.37533279446183       -1.92109409725982        0.01021101719017
C            0.38641348393614       -1.02746230321891       -0.02523061635806
C            0.93747143053344        0.25365886673598       -0.03418088765802
C            0.11448877506240        1.38702845064489       -0.06905696127573
O            0.38146636118606        2.58091431735604       -0.09247722310639
N           -1.31325832788523        1.01858024970950       -0.06352111590585
C           -2.21135275614007        2.15177349006458       -0.05684889893995
C           -1.85383716537579       -0.22305010834592       -0.05898039207874
O           -3.04428329739826       -0.45430525263447       -0.06520251358816
N           -0.94314120072074       -1.28654205059580       -0.04070260800123
C           -1.42464519415442       -2.64615807621718       -0.04420811874831
H            3.85685910965819        1.11142874447186        1.05371912228426
H            3.96574732408963        1.25456126140974       -0.73670716013568
H            2.66985676859288        2.12180750935873        0.15975344271496
H            3.52307520736084       -1.78853247552434        0.04033179951817
H           -1.54828041597487        3.01680541743334       -0.04546501793739
H           -2.84336941338988        2.16061457743459       -0.94538433124632
H           -2.84796999216968        2.14337954042344        0.82848587190724
H           -1.10071590885910       -3.17149842521711        0.85711102660772
H           -1.07399218443418       -3.17507814838751       -0.93317182482723
H           -2.51306996436827       -2.58854516571858       -0.06073499833282
H            1.23460204392353       -2.92076576330036        0.03095105467496
25
 energy: -1.783554647728 xtb: 6.6.1 (8d0f1dd)
C            3.26036257618173        1.18120069557427        0.14114117293413
N            2.34512249162283        0.08164659895128       -0.04464220093888
C            2.57140683490096       -1.29008662064536        0.00744727292435
N            1.36289694581354       -1.91545244934140        0.01273316352250
C            0.37893546688066       -1.01766095745145       -0.03512236993956
C            0.94059550535616        0.26080956680314       -0.05919189974296
C            0.11712452730902        1.39240464164186       -0.10256111835895
O            0.35811057474229        2.58710062443278       -0.13917618800683
N           -1.32468517150398        1.01569948594428       -0.08110675808871
C           -2.20837594899474        2.16003696712575       -0.05958069967976
C           -1.86526056926531       -0.22700133655885       -0.06501198355739
O           -3.05215439014322       -0.47040006160921       -0.06106951437334
N           -0.94500608290844       -1.28274473444924       -0.04369983969603
C           -1.40332178548135       -2.65191025399546       -0.03570093335619
H            3.90464405062094        1.03903666446069        1.04308636989245
H            3.92694682059223        1.33384593251599       -0.75413634379872
H            2.65738346079203        2.11744718753123        0.27697731844973
H            3.49961116093703       -1.81966037676128        0.03713905539359
H           -1.52706705509774        3.01123306981636       -0.05664260860321
H           -2.85389743701072        2.18718670383707       -0.93837577941055
H           -2.83020764672170        2.16783473611212        0.83676839867236
H           -1.06800265997428       -3.16242312347400        0.87046905644985
H           -1.04113536093112       -3.18014796025639       -0.92053339280046
H           -2.49283775692368       -2.61591786877915       -0.05262682075419
H            1.20102611714278       -2.91304852925289        0.05045053901405
25
 energy: 0.135430736330 xtb: 6.6.1 (8d0f1dd)
C            3.24935439104793        1.17011371615736        0.17184938784021
N            2.34325621642430        0.07267032962229       -0.07878768760589
C            2.55469000315934       -1.28503544358832       -0.00473896802473
N            1.35478984635626       -1.91122233023687        0.01432631109018
C            0.36663927239249       -1.00601171341468       -0.05252045452462
C            0.94192249493924        0.26539023763181       -0.09978701424796
C            0.12077272300003        1.40556808364343       -0.15509625592018
O            0.36629945451932        2.59300014146221       -0.21329732864811
N           -1.32820667539667        1.02213014154264       -0.10869185765602
C           -2.20727227180131        2.17501709542595       -0.06116316536168
C           -1.87921465534080       -0.22315663007905       -0.07408788723421
O           -3.06279041362359       -0.47175854148547       -0.05260875357210
N           -0.94867953069339       -1.27930040459961       -0.05026659955393
C           -1.37517915545392       -2.66248633409286       -0.02319984229903
H            3.95400365755422        0.92320687045299        1.01903427520874
H            3.85187318824938        1.42062566490433       -0.75335183646604
H            2.64750650912259        2.08815026642012        0.43618349768265
H            3.47217023738879       -1.83169621207307        0.03080155439132
H           -1.53348399948757        3.02575276632268       -0.07313154909290
H           -2.87293948803061        2.21706152687026       -0.92319343671822
H           -2.80104535348782        2.19077901653504        0.85348110216180
H           -1.01992691571163       -3.15005678361366        0.88971121023706
H           -0.99350872634828       -3.19099737564418       -0.90053445287533
H           -2.46536864024329       -2.66528326798940       -0.03969562332776
H            1.17655249940084       -2.90343221800177        0.07579927066404
25
 energy: -0.941715066596 xtb: 6.6.1 (8d0f1dd)
C            3.22274533578330        1.15153835421843        0.20030903427140
N            2.32061711319649        0.07687972249262       -0.10395911669935
C            2.54840462492975       -1.24593073768865       -0.00995129621483
N            1.36827761606836       -1.91844882900953        0.01183429289706
C            0.35540663881279       -1.00293194366352       -0.07107561408145
C            0.93320615674487        0.25626422387794       -0.13977803973235
C            0.11616333823504        1.42128798184515       -0.19796315104868
O            0.46058005209114        2.59354772652293       -0.27926053907765
N           -1.30155799568710        1.04362352774384       -0.13136420021530
C           -2.20933863383047        2.18947527552313       -0.05765994179564
C           -1.88459260586482       -0.20097733057020       -0.08066103036277
O           -3.07164859144562       -0.42328704094697       -0.04191166153755
N           -0.95625285128303       -1.28355718822359       -0.05931203744146
C           -1.36362471400946       -2.67458814424740       -0.01434093816949
H            3.94536959065535        0.82068343276792        0.97131061857656
H            3.75138979210974        1.43518044911924       -0.69461695393358
H            2.65781344980438        2.00675476049225        0.53633802514164
H            3.47067058345922       -1.76754508380281        0.02342915850075
H           -1.60112955075356        3.07943089219202       -0.08748818023336
H           -2.89134672322760        2.21902329658979       -0.90216034793108
H           -2.76999738285451        2.18157375528944        0.87491948697884
H           -0.98687158417214       -3.14315573295005        0.90223630601490
H           -0.96054801541718       -3.20556568846926       -0.88295180421027
H           -2.45049275546378       -2.71993200430034       -0.02852902593352
H            1.20897178005465       -2.90031507263019        0.08964085238443
25
 energy: 2.432578347766 xtb: 6.6.1 (8d0f1dd)
C            3.21673412492642        1.13675475056518        0.23976688546842
N            2.31746990757177        0.07704854758387       -0.15377733558033
C            2.53786349965423       -1.24923673165199       -0.01967286066331
N            1.34965100571000       -1.91579878028430        0.01090004284474
C            0.34534455031334       -0.99197166481037       -0.09593245137272
C            0.92717428128892        0.26229951882562       -0.19626048198017
C            0.11563839186621        1.42409573910273       -0.26661315988851
O            0.46502887106734        2.59929845461038       -0.38022298010698
N           -1.30722622302943        1.04627590205601       -0.16661554835452
C           -2.20554324246917        2.20139393123751       -0.05977040740942
C           -1.89606047760011       -0.19281586972117       -0.09279968114720
O           -3.08281077011495       -0.41549691814686       -0.03023628126526
N           -0.96708996154299       -1.27863999929390       -0.07011614078764
C           -1.33647068547963       -2.68066952357282        0.00223030668619
H            4.00542862861725        0.68663079448283        0.92806010825949
H            3.66454575829085        1.57476800014186       -0.69399014229040
H            2.64442032291817        1.95868979148926        0.76591663207848
H            3.45249881975140       -1.78394446259737        0.01710408880660
H           -1.58846838412684        3.08968339901661       -0.11379172500789
H           -2.92211620588829        2.24142359215699       -0.87865397758395
H           -2.72951091860371        2.20055215091790        0.89815367953773
H           -0.93632661253125       -3.12060083895912        0.92702049329144
H           -0.90969999195497       -3.21617926873059       -0.85482890577635
H           -2.42145903693350       -2.77167155682710       -0.01048680451682
H            1.17319901623464       -2.89286035541891        0.12165054290563
25
 energy: 1.780426512916 xtb: 6.6.1 (8d0f1dd)
C            3.22258950827918        1.12952777167737        0.25600014238369
N            2.31268571485760        0.09521601753636       -0.18188421975633
C            2.54984028568849       -1.27133549146135       -0.00954064336206
N            1.33002536966789       -1.91906152570670       -0.00174515693685
C            0.35281358726490       -0.99845084208504       -0.11348510683687
C            0.91071755311499        0.26248973010042       -0.22928179960903
C            0.10338919530099        1.40131504172337       -0.30121267209403
O            0.45260374888168        2.58768498638230       -0.41419255750605
N           -1.30992915118715        1.04464674027726       -0.18163216974318
C           -2.19836041256043        2.19782753257302       -0.05910069425000
C           -1.88327004185712       -0.18195125446222       -0.10009230950614
O           -3.07611823305276       -0.39088081316537       -0.02374834771120
N           -0.97826723465824       -1.27500865458437       -0.08177075927480
C           -1.33929812298440       -2.66980021833264        0.00983915721238
H            4.00664370097719        0.67988688592477        0.89166072013197
H            3.65292404898761        1.66900996593610       -0.67530177882622
H            2.63904771448944        1.91402444519961        0.87244771947869
H            3.47708536178169       -1.79367745951789        0.01544159624633
H           -1.55163762640930        3.08327605644912       -0.13256903735241
H           -2.94832189916884        2.21944597496420       -0.85618730546758
H           -2.70368863208104        2.19231397632228        0.91194398863164
H           -0.93738805592158       -3.09972555264769        0.93699308086122
H           -0.91057690392243       -3.21525387414812       -0.83931505095258
H           -2.41839868664804       -2.77034831431581        0.00089598053450
H            1.15710387909526       -2.90214252246670        0.13287111985216
25
 energy: 3.297687586583 xtb: 6.6.1 (8d0f1dd)
C            3.19947193386744        1.12104345902767        0.30274192943524
N            2.29807944622837        0.10280618342925       -0.21505998409025
C            2.54087109681477       -1.26101936188178       -0.01413766762014
N            1.32368697427553       -1.91628694958667       -0.01593176192575
C            0.34725699482294       -0.99750555604196       -0.14695085903977
C            0.89985526242744        0.26054076095373       -0.28616912177832
C            0.08887804619564        1.40405653990154       -0.37748918484970
O            0.46072026989129        2.58291746117507       -0.50476480889138
N           -1.30570735552748        1.05688514604063       -0.21961110232866
C           -2.19326837718095        2.20945831027044       -0.05430230970806
C           -1.88333913097503       -0.17102557428021       -0.11155450332275
O           -3.07741543697524       -0.36635086754474       -0.00596835922879
N           -0.98474547284552       -1.27150867638974       -0.10399647316134
C           -1.32218063488109       -2.67195273355839        0.02440316347216
H            4.02999104939525        0.58495374067982        0.85307351436594
H            3.57916128111858        1.73029447667925       -0.59273291794906
H            2.65078142173007        1.85006947573579        1.00784941420306
H            3.47427174593359       -1.77322324411300       -0.00614575768503
H           -1.55440222183695        3.09956819360839       -0.15588624685431
H           -2.98536520071987        2.22470147108796       -0.81578070554986
H           -2.65284670670229        2.19713340341665        0.94479371128372
H           -0.90127427377031       -3.07086493572149        0.96130338323550
H           -0.87923070585042       -3.22789374081370       -0.81203055442830
H           -2.39913145556466       -2.81091597912622        0.02167398133973
H            1.15809611806440       -2.89685240077591        0.14970711722337
25
 energy: 3.411503802546 xtb: 6.6.1 (8d0f1dd)
C            3.16180722116120        1.12383861220271        0.35090284133498
N            2.27838116375625        0.12351256871517       -0.21371228628059
C            2.53985361744323       -1.24839568109498       -0.00456607424960
N            1.32594075041724       -1.91195158637898       -0.04488252990076
C            0.35518669806328       -1.01542569745275       -0.18650133962343
C            0.88613627479901        0.24697152878130       -0.32434438243385
C            0.05319455162212        1.39393114487917       -0.44627968647066
O            0.44039053272237        2.55800832014333       -0.57067048918987
N           -1.29454101922392        1.07672322537914       -0.25277912506651
C           -2.18233206061539        2.21319855538844       -0.04382803263690
C           -1.86019361899639       -0.16309263211971       -0.11561798997548
O           -3.05685084061043       -0.32809467535432        0.01750637350584
N           -0.98510314131057       -1.26577927910131       -0.14444667765542
C           -1.32655658898592       -2.65790412503601        0.03407048710210
H            4.00875954070334        0.58217902194868        0.80557420399742
H            3.54024894373873        1.70542182204666       -0.41384036648276
H            2.68449996538890        1.75874063724672        1.01979475243228
H            3.49959959154023       -1.71943408276357       -0.06256565289810
H           -1.55816691737108        3.10325219018627       -0.17090789868386
H           -3.01327573764725        2.20085788276419       -0.75821649841874
H           -2.59723218190320        2.17881924501856        0.97155576672988
H           -0.90296728112106       -3.02640125082344        0.98114819769568
H           -0.88771402871265       -3.23444277795514       -0.78811232546637
H           -2.40007629943105       -2.81143608143787        0.04371915657186
H            1.20322553250845       -2.89406828300991        0.14403347221012
25
 energy: 1.243210271756 xtb: 6.6.1 (8d0f1dd)
C            3.15926073957082        1.09861878899972        0.37670394553384
N            2.28593907475346        0.11061952702374       -0.24050291980360
C            2.53398959976731       -1.24904947113710       -0.00869807959829
N            1.32591663633163       -1.91457161074086       -0.04843053056071
C            0.35050065127216       -1.01277037741408       -0.21045460217136
C            0.89429021792178        0.24401740632292       -0.35998982178155
C            0.06097159356098        1.39553872324687       -0.49331322066301
O            0.44775887688825        2.55509840172770       -0.65083692505360
N           -1.29288366352651        1.07830145599609       -0.27555103801070
C           -2.17598411096039        2.21856332414796       -0.04366423591790
C           -1.86532513649840       -0.16233630706663       -0.12304965391709
O           -3.05903108609781       -0.32503569667119        0.03186754021860
N           -0.98705178725266       -1.26299092280884       -0.16187034073858
C           -1.31855653223491       -2.65706866935626        0.04695124576546
H            4.00876633516261        0.53368014969719        0.77576369410876
H            3.49760126997744        1.82167299556417       -0.39430408637623
H            2.65984076088692        1.68736731468803        1.18029331408550
H            3.48799076749596       -1.72198905134863       -0.08934862521043
H           -1.56459817179010        3.10935881388140       -0.19126896172905
H           -3.02579799501332        2.21085457767203       -0.73394394058713
H           -2.55986772347655        2.18861247181972        0.98487974672001
H           -0.88853177097378       -2.99989596475478        1.00258446306379
H           -0.87386583732556       -3.24442636116134       -0.76487197430314
H           -2.38886111477699       -2.82326157683858        0.06072153614380
H            1.19974307427302       -2.88987933931685        0.15736736692983
25