72
 energy: -99.309301054845 gnorm: 0.500227330545 xtb: 6.6.1 (8d0f1dd)
N           -1.48605194310621        2.77746687769904        2.25985372655617
C           -1.48009790154963        2.08854750626018        1.21871110711226
C           -2.67568444252128        1.86490040895734        0.33468202152032
C           -3.12427293244291        0.41420252101668        0.44879609103010
C           -4.05498063415135       -0.09714406806581       -0.45742931465989
C           -4.52538755785796       -1.39576333947519       -0.35756700125570
O           -5.42453972496068       -1.96398026375711       -1.18748293278285
C           -6.00022927055900       -1.19142448194994       -2.21430362290320
C           -4.05362371576338       -2.23226544855321        0.69010608370366
O           -4.57217500396172       -3.47577298145070        0.71655931341975
C           -4.23154531791994       -4.33933238961913        1.77613079516972
C           -3.12660682153629       -1.71916478982654        1.58376686746396
C           -2.66898659020324       -0.41396220084092        1.46326547828364
C           -2.20688253416335        2.15893620954983       -1.11309589089801
C           -1.20122774228726        1.13437426473830       -1.65887800783055
C            0.18199803754999        1.37562624100818       -1.18838345351263
N            1.09576522133447        0.43861752882679       -0.97501308564428
C            2.49233999463218        0.78677658587118       -0.82654997699293
C            3.24543456596930        0.46698005261038       -2.10122030567118
C            4.12774563564909       -0.76826008616285       -2.25202525851864
C            4.74063032945425        0.63908374444677       -2.19013582873210
C            5.51999702702839        0.99134091973101       -1.00831191779663
C            5.56515902436877        0.19560961583186        0.08433487520511
O            6.20869320565662        0.46284625416888        1.23880407634859
C            6.96145715891015        1.64907236122545        1.33624491986933
C            4.97935980414129       -1.14649923259033        0.04839582850891
O            5.20530594198772       -1.85075287963167        1.17768394963803
C            4.89641364292690       -3.22360651669180        1.20097774669627
C            4.38233459958328       -1.60885231872008       -1.07476332096902
C            0.77360729316167       -0.96755346299673       -0.99980791436913
C           -3.88942836387804        2.77409154347586        0.69359767057828
C           -4.47036189817223        2.42167532148234        2.06111937833821
C           -3.56166843473720        4.26396105837157        0.64731104081436
H           -4.43254198135858        0.53540431553091       -1.24314241694570
H           -6.52733299998872       -0.31996027772249       -1.81452396174146
H           -6.71428339363765       -1.84769017206393       -2.70787030675350
H           -5.24896184601927       -0.86494504519816       -2.94104122952838
H           -4.51688597491680       -3.91653583873407        2.74400624524133
H           -4.79619486116427       -5.25295659364819        1.60070621522586
H           -3.16163876906183       -4.57018177522304        1.77913405328393
H           -2.76096630163221       -2.32622108891535        2.39593109261477
H           -1.96951431936121       -0.04195684151221        2.19562737599436
H           -3.07882237805129        2.17469390978559       -1.76525029322939
H           -1.75752052527552        3.15175191051760       -1.14643383805041
H           -1.53976482352248        0.12438034169575       -1.42707272337940
H           -1.19230276900803        1.23239759480878       -2.75313643905816
H           -0.57320660555984        1.59586713639686        0.81287761180770
H            0.53208793511844        2.39747446545754       -1.17993346727837
H            2.91885141058061        0.22826361789235        0.01135696252141
H            2.57366643285335        1.85419288188441       -0.60488119580833
H            2.69448186700103        0.74688304147415       -2.99201523588795
H            4.09247728070052       -1.16641437022352       -2.99345735471514
H            5.10638747862435        1.07070105309871       -3.11399487037627
H            6.08700355310907        1.90575895988098       -1.05729335042129
H            6.33541926799590        2.53455636482450        1.18740086925662
H            7.78258755222971        1.65913706230382        0.61385179850036
H            7.36730921238452        1.65705182442058        2.34565925723649
H            5.21790296732469       -3.57909110426635        2.17791293881382
H            3.82039644311426       -3.39587762707218        1.08770775576619
H            5.43540554130234       -3.76860270403992        0.42083090164989
H            4.11107142996381       -2.64891307924998       -1.16866112438590
H            0.52712971471918       -1.30008256836089       -2.01047921708818
H           -0.07693716433798       -1.17465648310605       -0.34724143392211
H            1.63327695169265       -1.53340073660735       -0.64976619268077
H           -4.65837212890846        2.57196055535728       -0.06115179311041
H           -3.73257841750751        2.60237322329054        2.83627902347781
H           -4.77943155842590        1.38023872154076        2.10238938970262
H           -5.33935780821492        3.04393386541537        2.25795403878594
H           -2.79716681165617        4.50405607459670        1.37985224438054
H           -3.22729214385700        4.57888548806243       -0.33763805422255
H           -4.45548611097030        4.83234790345763        0.89068022361804
H           -0.61487040186673        2.87954096182026        2.77071820557893
72
 energy: -99.368445225076 gnorm: 0.043143883711 xtb: 6.6.1 (8d0f1dd)
N           -1.48612436800147        2.77767994674073        2.25981003987542
C           -1.48010710652980        2.08856530579955        1.21873529784664
C           -2.67571934267475        1.86494891042282        0.33470709939433
C           -3.12428040325880        0.41422508695535        0.44875665741757
C           -4.05499013773784       -0.09712137780130       -0.45744669259919
C           -4.52534092358692       -1.39574891930091       -0.35758356084212
O           -5.42451729530122       -1.96398018302532       -1.18740910131764
C           -6.00028362735019       -1.19151890439266       -2.21421649877996
C           -4.05356454034387       -2.23225976713034        0.69009407347384
O           -4.57200983539659       -3.47580105563409        0.71648016758027
C           -4.23143426794713       -4.33930481264721        1.77610843282017
C           -3.12649976285075       -1.71917504266254        1.58370905813688
C           -2.66893102535686       -0.41395874671482        1.46318702806069
C           -2.20702563211214        2.15904059647661       -1.11304693904553
C           -1.20157651586347        1.13442483002179       -1.65905089446614
C            0.18122187332634        1.37589652307673       -1.18858651631956
N            1.09460090436585        0.43915461720097       -0.97388700636164
C            2.48952089745893        0.79036517637286       -0.82217394438440
C            3.24402072830363        0.47913118723047       -2.09216712613517
C            4.12781013855013       -0.74536839038632       -2.20826801298068
C            4.74040351630776        0.65081816950692       -2.18084604520973
C            5.52277473990143        0.99523183365507       -1.00330447731306
C            5.56701324396034        0.19706781190157        0.08818943461706
O            6.21033593137277        0.46339931896766        1.24147516052262
C            6.96216840253491        1.64973609166852        1.33700873359596
C            4.98187425144388       -1.14545162066832        0.05779780939338
O            5.20833531812831       -1.85192945571854        1.18366783467677
C            4.89673251601288       -3.22409866335184        1.20196051330120
C            4.38097884588398       -1.60470742494300       -1.05887300301104
C            0.77364909261518       -0.96727817732076       -0.99990388621380
C           -3.88948239213849        2.77406813145481        0.69363660693767
C           -4.47032131085618        2.42171559524737        2.06114798221749
C           -3.56173594027198        4.26396229819761        0.64721995535618
H           -4.43259666085750        0.53540382331668       -1.24315628684902
H           -6.52752032813584       -0.32011386379517       -1.81441782977410
H           -6.71425712049797       -1.84784961012106       -2.70780338978851
H           -5.24910012294991       -0.86487169812321       -2.94096253099332
H           -4.51663410385593       -3.91643506900950        2.74396794069376
H           -4.79615060809576       -5.25288972620728        1.60077924939253
H           -3.16153934779462       -4.57026072524148        1.77903446238008
H           -2.76078650867570       -2.32621993005580        2.39583453776002
H           -1.96945749270695       -0.04193745065461        2.19553880776025
H           -3.07890165542113        2.17484012841241       -1.76522433853774
H           -1.75752171423753        3.15180014435212       -1.14635887087747
H           -1.53981784462859        0.12440128441157       -1.42707690241523
H           -1.19256841864106        1.23245174501063       -2.75322798416282
H           -0.57326321896113        1.59588030181156        0.81309233676696
H            0.53172590657812        2.39761147877235       -1.17994122238048
H            2.91805284936535        0.22978869602179        0.01306035673413
H            2.57156158212081        1.85702978482522       -0.60235830495932
H            2.69568383754651        0.74639842533492       -2.98945598189458
H            4.08520019343260       -1.23823259272969       -3.12053690456274
H            5.10630541710575        1.06989501727058       -3.11136334220126
H            6.09004411677532        1.90806716993081       -1.05481519376234
H            6.33532207579046        2.53458422302609        1.18788622897826
H            7.78265128786203        1.65944020556554        0.61383102234889
H            7.36817499157216        1.65753077884274        2.34618494992198
H            5.21749190213739       -3.58066632153553        2.17836230037526
H            3.82065539300697       -3.39537476464700        1.08757553324264
H            5.43564110689054       -3.76829963106213        0.42110807471027
H            4.11159955022578       -2.64523018278516       -1.16601796819713
H            0.52725373775907       -1.29968470044131       -2.01062612753741
H           -0.07688718345750       -1.17494151977064       -0.34750489538569
H            1.63334486482551       -1.53304798540873       -0.64993006356991
H           -4.65837496624481        2.57187922620856       -0.06109496745876
H           -3.73255265312835        2.60249021835120        2.83625824935091
H           -4.77929724327175        1.38024965023570        2.10247843834603
H           -5.33934065368937        3.04389584292603        2.25800695590295
H           -2.79710645789417        4.50409192524673        1.37957503121268
H           -3.22764799570395        4.57887558761365       -0.33778947932424
H           -4.45549975017529        4.83229767708590        0.89083105666682
H           -0.61486713956332        2.87956307032552        2.77059371443603
72
 energy: -99.369543084577 gnorm: 0.023504824040 xtb: 6.6.1 (8d0f1dd)
N           -1.48671830312155        2.77910408115558        2.25934403484435
C           -1.48065153763553        2.08934613364250        1.21866762911163
C           -2.67623815107844        1.86537520212791        0.33465449528394
C           -3.12430406001746        0.41448848378463        0.44849815519838
C           -4.05512758807777       -0.09703110103688       -0.45749807168330
C           -4.52494479059660       -1.39585144182954       -0.35762447212524
O           -5.42421293234839       -1.96444619131087       -1.18704683977929
C           -6.00114986286358       -1.19230965120634       -2.21339269897284
C           -4.05243616934939       -2.23236371263827        0.68971696961934
O           -4.57066047619320       -3.47596739490191        0.71623112868068
C           -4.22981198048824       -4.33925532572631        1.77592634138606
C           -3.12514671417861       -1.71915748091344        1.58300940725564
C           -2.66819032316720       -0.41373590152783        1.46254639368787
C           -2.20815736309063        2.15987480280116       -1.11314677114441
C           -1.20262913433296        1.13551229653970       -1.65955977627410
C            0.17998265342461        1.37837429988165       -1.18937232365219
N            1.09417839128955        0.44276676744281       -0.97244139197382
C            2.48926595461226        0.79538377721506       -0.82211250200220
C            3.24332959231629        0.47347468481280       -2.09427772180110
C            4.12714934712953       -0.75094119497615       -2.21555855749240
C            4.74154205718114        0.64516220238932       -2.18102274589174
C            5.51995972805198        0.99590852004568       -0.99919339163553
C            5.56650471664910        0.19657258678371        0.09130857470897
O            6.21179875188639        0.46262911175244        1.24443006810802
C            6.96307911349892        1.64965533042618        1.34081702375801
C            4.98421577973686       -1.14784934647455        0.05670544931007
O            5.21128603966895       -1.85293967131701        1.18467297440272
C            4.89881246857221       -3.22506455436774        1.20377156992307
C            4.38304901580074       -1.60994260903101       -1.06439991568222
C            0.77488603370892       -0.96397030652812       -0.99981342737959
C           -3.89015604009995        2.77408978703201        0.69380995251504
C           -4.46994406386004        2.42204001820867        2.06178538343039
C           -3.56297548224303        4.26407469278533        0.64635158638582
H           -4.43321954265500        0.53542540167195       -1.24303703462360
H           -6.52942571799510       -0.32173987048544       -1.81311637059175
H           -6.71438176908646       -1.84938785632705       -2.70705609685142
H           -5.25058667783175       -0.86439129599855       -2.94020028039686
H           -4.51397747363386       -3.91576456274711        2.74380674221233
H           -4.79525789903767       -5.25253548002671        1.60141903832734
H           -3.16005704663501       -4.57088197856448        1.77810168104704
H           -2.75880260464492       -2.32622315422694        2.39482776694083
H           -1.96857002844983       -0.04157606298962        2.19467808053799
H           -3.08023917462637        2.17591513135784       -1.76502203076556
H           -1.75858452163675        3.15261262586458       -1.14623326270885
H           -1.54010842666702        0.12533439839131       -1.42711267492150
H           -1.19446018324144        1.23327495429907       -2.75375270035682
H           -0.57389262167524        1.59606779579830        0.81383675274523
H            0.52942594618136        2.40039373339059       -1.18084958973286
H            2.91571332614940        0.23745785830065        0.01602446030342
H            2.56680814301590        1.86284515386643       -0.60020676403465
H            2.69574224670672        0.74449063243869       -2.98939288655015
H            4.08309614745573       -1.25274070372840       -3.14506429680045
H            5.10785205545603        1.06861779004696       -3.10816955718823
H            6.08874236924139        1.90914192662331       -1.04852321172641
H            6.33499036455125        2.53399059219449        1.19379224926336
H            7.78189800436332        1.66162620001580        0.61572308348341
H            7.37181768582723        1.65735177052397        2.34901733992810
H            5.21621538153417       -3.58329032205976        2.18079822850835
H            3.82287990055472       -3.39451942048049        1.08607595130953
H            5.43863940831805       -3.76934618612598        0.42374669233313
H            4.10817122088285       -2.64796231009846       -1.16637156021308
H            0.52888861334670       -1.29517287295909       -2.01099139946700
H           -0.07543873408892       -1.17401114181525       -0.34777561342435
H            1.63547844797918       -1.52920743617478       -0.65141410473401
H           -4.65935167707059        2.57118987187804       -0.06038205349864
H           -3.73187613406896        2.60374446290551        2.83637095345014
H           -4.77809320572764        1.38035359312653        2.10376865130365
H           -5.33930512713185        3.04366685358051        2.25881510984829
H           -2.79692862320608        4.50464697376354        1.37705872742558
H           -3.23106695584553        4.57879442164100       -0.33944351239152
H           -4.45641923738635        4.83214523467997        0.89168017319036
H           -0.61538495301223        2.88079590591725        2.77005163129246
72
 energy: -99.369977669692 gnorm: 0.004473968687 xtb: 6.6.1 (8d0f1dd)
N           -1.48772328489512        2.78191204675294        2.25835850435995
C           -1.48180443705871        2.09063756172709        1.21861051849693
C           -2.67735356292984        1.86625900973751        0.33460778010626
C           -3.12444444057562        0.41505598189930        0.44814097245810
C           -4.05549788767119       -0.09683572173594       -0.45743327476890
C           -4.52423387938711       -1.39605438026222       -0.35758404988588
O           -5.42365810107831       -1.96532714905806       -1.18630827422779
C           -6.00275009993394       -1.19368909646331       -2.21176831332827
C           -4.05034659775037       -2.23254385395587        0.68916141394018
O           -4.56801270678095       -3.47634729609952        0.71586076418402
C           -4.22660945590431       -4.33925995769223        1.77566495499634
C           -3.12261295223546       -1.71907262132922        1.58181646145664
C           -2.66684921538129       -0.41323210579695        1.46147002197027
C           -2.20971495358012        2.16139530664536       -1.11314404616595
C           -1.20399749428816        1.13742989289022       -1.66024586205350
C            0.17881806162260        1.38111495529393       -1.19125650365717
N            1.09325921757870        0.44613996184364       -0.97154712060117
C            2.48930539150246        0.79770204328733       -0.82315419616548
C            3.24358666494668        0.47021628578659       -2.09582294431111
C            4.12723758268795       -0.75398073231637       -2.21819714362272
C            4.74339907091891        0.64120773125394       -2.18129231082842
C            5.51980476138305        0.99409788049010       -0.99685113939734
C            5.56902104251640        0.19347321409096        0.09268830609825
O            6.21344046639689        0.45986203963273        1.24690296638619
C            6.96284967986638        1.64825373899409        1.34537205166490
C            4.98471369948745       -1.14994221931818        0.05651110752879
O            5.21346566985043       -1.85504544983493        1.18488562999810
C            4.90038400732560       -3.22712533121513        1.20475946594096
C            4.38327819799307       -1.61319414164836       -1.06571290652577
C            0.77538317878780       -0.96060657423913       -1.00108018039394
C           -3.89164514498096        2.77418498816763        0.69424646848101
C           -4.46950911705213        2.42277484186161        2.06315427208064
C           -3.56564828469569        4.26437943277140        0.64480587959136
H           -4.43462099229818        0.53552631757785       -1.24256663476748
H           -6.53283162564485       -0.32463763582666       -1.81053719552749
H           -6.71471374889227       -1.85204153882533       -2.70558295558848
H           -5.25334070669513       -0.86345607828806       -2.93871382288354
H           -4.50888321296856       -3.91472487898168        2.74363744205356
H           -4.79332472549143       -5.25203017186078        1.60264388728864
H           -3.15709953688880       -4.57205575293605        1.77643191172259
H           -2.75496056157007       -2.32621563220296        2.39298228036000
H           -1.96691029965313       -0.04080524887255        2.19315823214365
H           -3.08209628793115        2.17770162318125       -1.76460432965625
H           -1.76028314915806        3.15420635717706       -1.14593426689441
H           -1.54064035180941        0.12710991203429       -1.42723817450009
H           -1.19715798749152        1.23492275998676       -2.75444888448088
H           -0.57521376564489        1.59660194130985        0.81481958379442
H            0.52728230148511        2.40347831973020       -1.18267979566490
H            2.91521805649572        0.24429402935051        0.01849454782856
H            2.56656689345698        1.86639670625654       -0.60601176027113
H            2.69693928434015        0.74568996140585       -2.98932263825389
H            4.08112084104998       -1.26729773118874       -3.16569565348639
H            5.11069014510223        1.06852753487879       -3.10558416227404
H            6.08565081068919        1.90968841481680       -1.04274986851935
H            6.33282830965707        2.53205243336593        1.20302985652886
H            7.78010520073989        1.66418846015684        0.61844030345047
H            7.37449581179946        1.65397361714120        2.35247571765742
H            5.21378383880190       -3.58591701611114        2.18294333223801
H            3.82472113664938       -3.39533707839275        1.08339322866793
H            5.44269359501654       -3.77188551318232        0.42683373881666
H            4.10587347599302       -2.65019059535820       -1.16272109765297
H            0.52932289095189       -1.28993866919206       -2.01284416155043
H           -0.07410008168215       -1.17288173349638       -0.34870098723250
H            1.63735291092487       -1.52489150497866       -0.65462225191136
H           -4.66150756271459        2.56992671448101       -0.05887673066775
H           -3.73090218871099        2.60635822755990        2.83677067455725
H           -4.77597731050447        1.38063774334039        2.10645232944158
H           -5.33960180076507        3.04326512904101        2.26048448749483
H           -2.79692119059732        4.50586928008839        1.37239033468311
H           -3.23785625647393        4.57873776727636       -0.34249275056179
H           -4.45849590424001        4.83197648869452        0.89334389612654
H           -0.61622573501807        2.88347628119122        2.76884790627836
