      -----------------------------------------------------------      
     |                   =====================                   |     
     |                           x T B                           |     
     |                   =====================                   |     
     |                         S. Grimme                         |     
     |          Mulliken Center for Theoretical Chemistry        |     
     |                    University of Bonn                     |     
      -----------------------------------------------------------      

   * xtb version 6.6.1 (8d0f1dd) compiled by 'conda@1efc2f54142f' on 2023-08-01

   xtb is free software: you can redistribute it and/or modify it under
   the terms of the GNU Lesser General Public License as published by
   the Free Software Foundation, either version 3 of the License, or
   (at your option) any later version.
   
   xtb is distributed in the hope that it will be useful,
   but WITHOUT ANY WARRANTY; without even the implied warranty of
   MERCHANTABILITY or FITNESS FOR A PARTICULAR PURPOSE.  See the
   GNU Lesser General Public License for more details.
   
   Cite this work as:
   * C. Bannwarth, E. Caldeweyher, S. Ehlert, A. Hansen, P. Pracht,
     J. Seibert, S. Spicher, S. Grimme, WIREs Comput. Mol. Sci., 2020, 11,
     e01493. DOI: 10.1002/wcms.1493
   
   for GFN2-xTB:
   * C. Bannwarth, S. Ehlert and S. Grimme., J. Chem. Theory Comput., 2019,
     15, 1652-1671. DOI: 10.1021/acs.jctc.8b01176
   for GFN1-xTB:
   * S. Grimme, C. Bannwarth, P. Shushkov, J. Chem. Theory Comput., 2017,
     13, 1989-2009. DOI: 10.1021/acs.jctc.7b00118
   for GFN0-xTB:
   * P. Pracht, E. Caldeweyher, S. Ehlert, S. Grimme, ChemRxiv, 2019, preprint.
     DOI: 10.26434/chemrxiv.8326202.v1
   for GFN-FF:
   * S. Spicher and S. Grimme, Angew. Chem. Int. Ed., 2020, 59, 15665-15673.
     DOI: 10.1002/anie.202004239
   
   for ALPB and GBSA implicit solvation:
   * S. Ehlert, M. Stahn, S. Spicher, S. Grimme, J. Chem. Theory Comput.,
     2021, 17, 4250-4261. DOI: 10.1021/acs.jctc.1c00471
   
   for DFT-D4:
   * E. Caldeweyher, C. Bannwarth and S. Grimme, J. Chem. Phys., 2017,
     147, 034112. DOI: 10.1063/1.4993215
   * E. Caldeweyher, S. Ehlert, A. Hansen, H. Neugebauer, S. Spicher,
     C. Bannwarth and S. Grimme, J. Chem. Phys., 2019, 150, 154122.
     DOI: 10.1063/1.5090222
   * E. Caldeweyher, J.-M. Mewes, S. Ehlert and S. Grimme, Phys. Chem. Chem. Phys.
     2020, 22, 8499-8512. DOI: 10.1039/D0CP00502A
   
   for sTDA-xTB:
   * S. Grimme and C. Bannwarth, J. Chem. Phys., 2016, 145, 054103.
     DOI: 10.1063/1.4959605
   
   in the mass-spec context:
   * V. Asgeirsson, C. Bauer and S. Grimme, Chem. Sci., 2017, 8, 4879.
     DOI: 10.1039/c7sc00601b
   * J. Koopman and S. Grimme, ACS Omega 2019, 4, 12, 15120-15133.
     DOI: 10.1021/acsomega.9b02011
   
   for metadynamics refer to:
   * S. Grimme, J. Chem. Theory Comput., 2019, 155, 2847-2862
     DOI: 10.1021/acs.jctc.9b00143
   
   for SPH calculations refer to:
   * S. Spicher and S. Grimme, J. Chem. Theory Comput., 2021, 17, 1701-1714
     DOI: 10.1021/acs.jctc.0c01306
   
   with help from (in alphabetical order)
   P. Atkinson, C. Bannwarth, F. Bohle, G. Brandenburg, E. Caldeweyher
   M. Checinski, S. Dohm, S. Ehlert, S. Ehrlich, I. Gerasimov, C. Hölzer
   A. Katbashev, J. Koopman, C. Lavigne, S. Lehtola, F. März, M. Müller,
   F. Musil, H. Neugebauer, J. Pisarek, C. Plett, P. Pracht, F. Pultar,
   J. Seibert, P. Shushkov, S. Spicher, M. Stahn, M. Steiner, T. Strunk,
   J. Stückrath, T. Rose, and J. Unsleber
   
 * started run on 2024/06/05 at 19:58:02.299     

           -------------------------------------------------
          |                Calculation Setup                |
           -------------------------------------------------

          program call               : xtb struc.xyz --opt loose --input .xc1 --gfn2
          hostname                   : n-62-12-66
          coordinate file            : struc.xyz
          omp threads                :                     1

   ID    Z sym.   atoms
    1    6 C      1, 3, 5-7, 10, 11, 14
    2    7 N      2, 4, 9, 13
    3    8 O      8, 12
    4    1 H      15-25
constraining bond 4 15 to    4.6866700 Å, actual value:    4.0274197 Å

           -------------------------------------------------
          |                 G F N 2 - x T B                 |
           -------------------------------------------------

        Reference                      10.1021/acs.jctc.8b01176
      * Hamiltonian:
        H0-scaling (s, p, d)           1.850000    2.230000    2.230000
        zeta-weighting                 0.500000
      * Dispersion:
        s8                             2.700000
        a1                             0.520000
        a2                             5.000000
        s9                             5.000000
      * Repulsion:
        kExp                           1.500000    1.000000
        rExp                           1.000000
      * Coulomb:
        alpha                          2.000000
        third order                    shell-resolved
        anisotropic                    true
        a3                             3.000000
        a5                             4.000000
        cn-shift                       1.200000
        cn-exp                         4.000000
        max-rad                        5.000000


          ...................................................
          :                      SETUP                      :
          :.................................................:
          :  # basis functions                  67          :
          :  # atomic orbitals                  67          :
          :  # shells                           39          :
          :  # electrons                        74          :
          :  max. iterations                   250          :
          :  Hamiltonian                  GFN2-xTB          :
          :  restarted?                      false          :
          :  GBSA solvation                  false          :
          :  PC potential                    false          :
          :  electronic temp.         5000.0000000     K    :
          :  accuracy                    1.0000000          :
          :  -> integral cutoff          0.2500000E+02      :
          :  -> integral neglect         0.1000000E-07      :
          :  -> SCF convergence          0.1000000E-05 Eh   :
          :  -> wf. convergence          0.1000000E-03 e    :
          :  Broyden damping             0.4000000          :
          ...................................................

 iter      E             dE          RMSdq      gap      omega  full diag
   1    -42.5894031 -0.425894E+02  0.445E+00    3.52       0.0  T
   2    -42.7683054 -0.178902E+00  0.251E+00    3.36       1.0  T
   3    -42.7759211 -0.761567E-02  0.147E+00    3.35       1.0  T
   4    -42.7728404  0.308066E-02  0.553E-01    3.33       1.0  T
   5    -42.7789548 -0.611444E-02  0.112E-01    3.35       1.0  T
   6    -42.7790473 -0.924914E-04  0.614E-02    3.33       1.0  T
   7    -42.7790721 -0.247928E-04  0.258E-02    3.34       1.0  T
   8    -42.7790772 -0.508996E-05  0.938E-03    3.34       2.1  T
   9    -42.7790779 -0.669422E-06  0.448E-03    3.34       4.5  T
  10    -42.7790780 -0.821510E-07  0.115E-03    3.34      17.4  T
  11    -42.7790780 -0.322663E-08  0.553E-04    3.34      36.2  T
  12    -42.7790780 -0.287051E-08  0.180E-04    3.34     111.1  T

   *** convergence criteria satisfied after 12 iterations ***

         #    Occupation            Energy/Eh            Energy/eV
      -------------------------------------------------------------
         1        2.0000           -0.9185990             -24.9964
       ...           ...                  ...                  ...
        31        1.9996           -0.6230278             -16.9534
        32        1.9995           -0.6194601             -16.8564
        33        1.9979           -0.5974976             -16.2587
        34        1.9932           -0.5789629             -15.7544
        35        1.9817           -0.5631863             -15.3251
        36        1.9779           -0.5602245             -15.2445
        37        1.9748           -0.5581234             -15.1873 (HOMO)
        38        0.0652           -0.4353579             -11.8467 (LUMO)
        39        0.0099           -0.4050467             -11.0219
        40        0.0013           -0.3732218             -10.1559
        41        0.0000           -0.2886859              -7.8555
        42                         -0.2065804              -5.6213
       ...                                ...                  ...
        67                          0.5625656              15.3082
      -------------------------------------------------------------
                  HL-Gap            0.1227656 Eh            3.3406 eV
             Fermi-level           -0.4890455 Eh          -13.3076 eV

 SCC (total)                   0 d,  0 h,  0 min,  0.031 sec
 SCC setup                      ...        0 min,  0.000 sec (  0.799%)
 Dispersion                     ...        0 min,  0.000 sec (  0.791%)
 classical contributions        ...        0 min,  0.000 sec (  0.238%)
 integral evaluation            ...        0 min,  0.005 sec ( 14.774%)
 iterations                     ...        0 min,  0.015 sec ( 46.645%)
 molecular gradient             ...        0 min,  0.011 sec ( 36.272%)
 printout                       ...        0 min,  0.000 sec (  0.457%)

         :::::::::::::::::::::::::::::::::::::::::::::::::::::
         ::                     SUMMARY                     ::
         :::::::::::::::::::::::::::::::::::::::::::::::::::::
         :: total energy             -43.799882057932 Eh    ::
         :: gradient norm              3.521538541131 Eh/a0 ::
         :: HOMO-LUMO gap              3.340621582928 eV    ::
         ::.................................................::
         :: SCC energy               -42.779077977399 Eh    ::
         :: -> isotropic ES            0.141123876439 Eh    ::
         :: -> anisotropic ES         -0.005230418907 Eh    ::
         :: -> anisotropic XC          0.011966818540 Eh    ::
         :: -> dispersion             -0.022657731803 Eh    ::
         :: repulsion energy           0.531105277918 Eh    ::
         :: add. restraining          -1.552023517461 Eh    ::
         :: total charge               1.000000000002 e     ::
         :::::::::::::::::::::::::::::::::::::::::::::::::::::

      ----------------------------------------------------------- 
     |                   =====================                   |
     |                        A N C O P T                        |
     |                   =====================                   |
     |               Approximate Normal Coordinate               |
     |                Rational Function Optimizer                |
      ----------------------------------------------------------- 

          ...................................................
          :                      SETUP                      :
          :.................................................:
          :   optimization level             loose          :
          :   max. optcycles                   200          :
          :   ANC micro-cycles                  20          :
          :   degrees of freedom                69          :
          :.................................................:
          :   RF solver                   davidson          :
          :   write xtbopt.log                true          :
          :   linear?                        false          :
          :   energy convergence         0.5000000E-04 Eh   :
          :   grad. convergence          0.4000000E-02 Eh/α :
          :   maxmium RF displ.          1.0000000          :
          :   Hlow (freq-cutoff)         0.1000000E-01      :
          :   Hmax (freq-cutoff)         5.0000000          :
          :   S6 in model hess.         20.0000000          :
          ...................................................

generating ANC from model Hessian ...
Using Lindh-Hessian (1995)
 Shifting diagonal of input Hessian by    3.4380962504663173     
 Lowest  eigenvalues of input Hessian
    0.010000    0.000000    0.000000    0.000000    0.000000    0.000000
    0.000000    3.442453    3.443683    3.446951    3.448633    3.449501
    3.452250    3.455342    3.459767    3.465299    3.469758    3.478173
 Highest eigenvalues
    5.524489    5.578387    5.642431    5.788571    5.882126    5.982601


........................................................................
.............................. CYCLE    1 ..............................
........................................................................

 iter      E             dE          RMSdq      gap      omega  full diag
   1    -42.7790780 -0.427791E+02  0.626E-05    3.34       0.0  T
   2    -42.7790780 -0.124416E-10  0.329E-05    3.34     607.4  T
   3    -42.7790780  0.127898E-12  0.193E-05    3.34    1034.2  T
     SCC iter.                  ...        0 min,  0.004 sec
     gradient                   ...        0 min,  0.009 sec
 * total energy  :   -43.7998821 Eh     change       -0.6650680E-10 Eh
   gradient norm :     3.5215387 Eh/α   predicted     0.0000000E+00 (-100.00%)
   displ. norm   :     0.9948059 α      lambda       -0.3465118E+01
   maximum displ.:     0.9919989 α      in ANC's #1, #62, #50, ...

........................................................................
.............................. CYCLE    2 ..............................
........................................................................

 iter      E             dE          RMSdq      gap      omega  full diag
   1    -42.7092377 -0.427092E+02  0.147E+00    3.49       0.0  T
   2    -42.7242529 -0.150152E-01  0.743E-01    3.54       1.0  T
   3    -42.7254232 -0.117024E-02  0.381E-01    3.53       1.0  T
   4    -42.7257646 -0.341470E-03  0.980E-02    3.54       1.0  T
   5    -42.7259224 -0.157760E-03  0.343E-02    3.54       1.0  T
   6    -42.7259292 -0.682969E-05  0.176E-02    3.53       1.1  T
   7    -42.7259297 -0.512634E-06  0.564E-03    3.54       3.5  T
   8    -42.7259303 -0.583490E-06  0.108E-03    3.54      18.5  T
   9    -42.7259303 -0.364881E-08  0.474E-04    3.54      42.2  T
  10    -42.7259303 -0.909210E-09  0.188E-04    3.54     106.5  T
     SCC iter.                  ...        0 min,  0.008 sec
     gradient                   ...        0 min,  0.008 sec
 * total energy  :   -49.0425890 Eh     change       -0.5242707E+01 Eh
   gradient norm :     6.9990845 Eh/α   predicted    -0.3467734E+01 ( -33.86%)
   displ. norm   :     0.9980107 α      lambda       -0.6979306E+01
   maximum displ.:     0.9960525 α      in ANC's #1, #50, #67, ...

........................................................................
.............................. CYCLE    3 ..............................
........................................................................

 iter      E             dE          RMSdq      gap      omega  full diag
   1    -42.4066830 -0.424067E+02  0.228E+00    2.83       0.0  T
   2    -42.4419020 -0.352190E-01  0.120E+00    2.79       1.0  T
   3    -42.4591974 -0.172954E-01  0.653E-01    2.92       1.0  T
   4    -42.4655346 -0.633726E-02  0.321E-01    2.92       1.0  T
   5    -42.4667202 -0.118556E-02  0.768E-02    2.91       1.0  T
   6    -42.4667662 -0.460039E-04  0.222E-02    2.91       1.0  T
   7    -42.4667672 -0.101338E-05  0.903E-03    2.91       2.2  T
   8    -42.4667674 -0.235000E-06  0.207E-03    2.91       9.6  T
   9    -42.4667675 -0.260373E-07  0.762E-04    2.91      26.3  T
  10    -42.4667675 -0.352586E-08  0.183E-04    2.91     109.4  T
     SCC iter.                  ...        0 min,  0.008 sec
     gradient                   ...        0 min,  0.008 sec
 * total energy  :   -57.6572085 Eh     change       -0.8614619E+01 Eh
   gradient norm :    10.4244430 Eh/α   predicted    -0.6965486E+01 ( -19.14%)
   displ. norm   :     0.9945336 α      lambda       -0.1034402E+02
   maximum displ.:     0.9832603 α      in ANC's #1, #68, #69, ...

........................................................................
.............................. CYCLE    4 ..............................
........................................................................

 iter      E             dE          RMSdq      gap      omega  full diag
   1    -42.0938264 -0.420938E+02  0.227E+00    1.35       0.0  T
   2    -42.1195004 -0.256740E-01  0.184E+00    1.41       1.0  T
   3    -42.1629433 -0.434429E-01  0.898E-01    1.24       1.0  T
   4    -42.1626486  0.294654E-03  0.614E-01    1.38       1.0  T
   5    -42.1680446 -0.539598E-02  0.152E-01    1.27       1.0  T
   6    -42.1685620 -0.517462E-03  0.456E-02    1.30       1.0  T
   7    -42.1685828 -0.208009E-04  0.212E-02    1.30       1.0  T
   8    -42.1685847 -0.185120E-05  0.723E-03    1.30       2.8  T
   9    -42.1685855 -0.783457E-06  0.228E-03    1.30       8.8  T
  10    -42.1685855 -0.974471E-08  0.887E-04    1.30      22.5  T
  11    -42.1685855 -0.696104E-08  0.322E-04    1.30      62.1  T
     SCC iter.                  ...        0 min,  0.009 sec
     gradient                   ...        0 min,  0.009 sec
 * total energy  :   -70.0333940 Eh     change       -0.1237619E+02 Eh
   gradient norm :    14.7059660 Eh/α   predicted    -0.1028857E+02 ( -16.87%)
   displ. norm   :     0.9945191 α      lambda       -0.1460300E+02
   maximum displ.:     0.9773865 α      in ANC's #1, #68, #67, ...

........................................................................
.............................. CYCLE    5 ..............................
........................................................................

 iter      E             dE          RMSdq      gap      omega  full diag
   1    -41.9660189 -0.419660E+02  0.247E+00    0.97       0.0  T
   2    -41.9506007  0.154182E-01  0.171E+00    1.49       1.0  T
   3    -41.9466212  0.397957E-02  0.155E+00    0.63       1.0  T
   4    -42.0136351 -0.670140E-01  0.742E-01    1.31       1.0  T
   5    -42.0227002 -0.906504E-02  0.274E-01    1.06       1.0  T
   6    -42.0242423 -0.154211E-02  0.102E-01    1.07       1.0  T
   7    -42.0243382 -0.959424E-04  0.360E-02    1.05       1.0  T
   8    -42.0243465 -0.829914E-05  0.156E-02    1.05       1.3  T
   9    -42.0243498 -0.325579E-05  0.481E-03    1.05       4.2  T
  10    -42.0243501 -0.301445E-06  0.216E-03    1.05       9.3  T
  11    -42.0243501 -0.158360E-07  0.101E-03    1.05      19.9  T
  12    -42.0243501 -0.105560E-07  0.423E-04    1.05      47.2  T
  13    -42.0243501 -0.238365E-08  0.103E-04    1.05     194.2  T
     SCC iter.                  ...        0 min,  0.010 sec
     gradient                   ...        0 min,  0.008 sec
 * total energy  :   -86.6331875 Eh     change       -0.1659979E+02 Eh
   gradient norm :    18.6312864 Eh/α   predicted    -0.1452342E+02 ( -12.51%)
   displ. norm   :     0.9967636 α      lambda       -0.1855824E+02
   maximum displ.:     0.9840430 α      in ANC's #1, #67, #50, ...

........................................................................
.............................. CYCLE    6 ..............................
........................................................................

 iter      E             dE          RMSdq      gap      omega  full diag
   1    -41.8313032 -0.418313E+02  0.312E+00    0.72       0.0  T
   2    -41.8098331  0.214701E-01  0.220E+00    1.21       1.0  T
   3    -41.9072583 -0.974252E-01  0.148E+00    0.65       1.0  T
   4    -41.9256923 -0.184339E-01  0.105E+00    1.37       1.0  T
   5    -41.9551210 -0.294288E-01  0.285E-01    0.93       1.0  T
   6    -41.9565380 -0.141696E-02  0.151E-01    0.98       1.0  T
   7    -41.9570174 -0.479389E-03  0.502E-02    0.95       1.0  T
   8    -41.9570376 -0.202551E-04  0.218E-02    0.95       1.0  T
   9    -41.9570425 -0.486848E-05  0.626E-03    0.94       3.2  T
  10    -41.9570433 -0.759590E-06  0.261E-03    0.95       7.7  T
  11    -41.9570433 -0.180896E-07  0.142E-03    0.94      14.1  T
  12    -41.9570433 -0.322529E-07  0.599E-04    0.95      33.4  T
  13    -41.9570433 -0.745001E-08  0.125E-04    0.95     159.6  T
     SCC iter.                  ...        0 min,  0.011 sec
     gradient                   ...        0 min,  0.008 sec
 * total energy  :  -104.5245896 Eh     change       -0.1789140E+02 Eh
   gradient norm :     8.7709381 Eh/α   predicted    -0.1849828E+02 (   3.39%)
   displ. norm   :     0.7254529 α      lambda       -0.6049432E+01
   maximum displ.:     0.5349145 α      in ANC's #1, #32, #66, ...

........................................................................
.............................. CYCLE    7 ..............................
........................................................................

 iter      E             dE          RMSdq      gap      omega  full diag
   1    -42.0730434 -0.420730E+02  0.240E+00    0.81       0.0  T
   2    -41.9994412  0.736022E-01  0.276E+00    1.58       1.0  T
   3    -42.1789832 -0.179542E+00  0.997E-01    0.65       1.0  T
   4    -42.1784973  0.485935E-03  0.824E-01    1.26       1.0  T
   5    -42.1932793 -0.147820E-01  0.458E-01    0.81       1.0  T
   6    -42.1969566 -0.367728E-02  0.184E-01    0.94       1.0  T
   7    -42.1981335 -0.117693E-02  0.368E-02    0.92       1.0  T
   8    -42.1981344 -0.904077E-06  0.363E-02    0.93       1.0  T
   9    -42.1981603 -0.258796E-04  0.141E-02    0.93       1.4  T
  10    -42.1981643 -0.394738E-05  0.318E-03    0.93       6.3  T
  11    -42.1981644 -0.161671E-06  0.952E-04    0.93      21.0  T
  12    -42.1981644 -0.161263E-07  0.384E-04    0.93      52.1  T
     SCC iter.                  ...        0 min,  0.010 sec
     gradient                   ...        0 min,  0.008 sec
 * total energy  :   -87.7934394 Eh     change        0.1673115E+02 Eh
   gradient norm :   257.8930109 Eh/α   predicted    -0.4616600E+01 (-127.59%)
   displ. norm   :     0.9900662 α      lambda       -0.2553202E+03
   maximum displ.:     0.4599943 α      in ANC's #1, #60, #68, ...

........................................................................
.............................. CYCLE    8 ..............................
........................................................................

 iter      E             dE          RMSdq      gap      omega  full diag
   1    -42.1672779 -0.421673E+02  0.144E+00    0.89       0.0  T
   2    -42.1568460  0.104319E-01  0.110E+00    1.26       1.0  T
   3    -42.1599399 -0.309395E-02  0.994E-01    0.72       1.0  T
   4    -42.1747286 -0.147887E-01  0.646E-01    1.18       1.0  T
   5    -42.1851786 -0.104500E-01  0.243E-01    1.02       1.0  T
   6    -42.1869506 -0.177200E-02  0.836E-02    1.00       1.0  T
   7    -42.1870828 -0.132185E-03  0.257E-02    1.00       1.0  T
   8    -42.1870870 -0.421134E-05  0.643E-03    0.99       3.1  T
   9    -42.1870877 -0.690597E-06  0.225E-03    0.99       8.9  T
  10    -42.1870877 -0.351788E-07  0.127E-03    0.99      15.8  T
  11    -42.1870878 -0.292519E-07  0.242E-04    0.99      82.8  T
  12    -42.1870878 -0.118641E-08  0.958E-05    0.99     208.8  T
     SCC iter.                  ...        0 min,  0.010 sec
     gradient                   ...        0 min,  0.008 sec
 * total energy  :   -94.8306138 Eh     change       -0.7037174E+01 Eh
   gradient norm :    19.7933181 Eh/α   predicted    -0.2527972E+03 (3492.31%)
   displ. norm   :     0.1909975 α      lambda       -0.1499676E+01
   maximum displ.:     0.0740069 α      in ANC's #32, #36, #67, ...

........................................................................
.............................. CYCLE    9 ..............................
........................................................................

 iter      E             dE          RMSdq      gap      omega  full diag
   1    -42.1626803 -0.421627E+02  0.930E-01    1.08       0.0  T
   2    -42.1261955  0.364849E-01  0.136E+00    1.02       1.0  T
   3    -42.1830589 -0.568635E-01  0.384E-01    0.88       1.0  T
   4    -42.1858918 -0.283290E-02  0.208E-01    1.05       1.0  T
   5    -42.1866648 -0.773001E-03  0.143E-01    0.96       1.0  T
   6    -42.1871007 -0.435913E-03  0.556E-02    0.99       1.0  T
   7    -42.1871663 -0.655743E-04  0.115E-02    0.99       1.7  T
   8    -42.1871633  0.298998E-05  0.110E-02    0.99       1.8  T
   9    -42.1871665 -0.315656E-05  0.389E-03    0.99       5.1  T
  10    -42.1871668 -0.303137E-06  0.688E-04    0.99      29.1  T
  11    -42.1871668 -0.588395E-08  0.301E-04    0.99      66.4  T
     SCC iter.                  ...        0 min,  0.009 sec
     gradient                   ...        0 min,  0.008 sec
 * total energy  :   -96.2944104 Eh     change       -0.1463797E+01 Eh
   gradient norm :    19.8444523 Eh/α   predicted    -0.7771987E+00 ( -46.91%)
   displ. norm   :     0.8116520 α      lambda       -0.1535392E+02
   maximum displ.:     0.3597306 α      in ANC's #1, #60, #68, ...

........................................................................
.............................. CYCLE   10 ..............................
........................................................................

 iter      E             dE          RMSdq      gap      omega  full diag
   1    -42.1738191 -0.421738E+02  0.145E+00    0.77       0.0  T
   2    -42.0861368  0.876822E-01  0.181E+00    0.36       1.0  T
   3    -42.1918420 -0.105705E+00  0.882E-01    0.99       1.0  T
   4    -42.2011542 -0.931223E-02  0.700E-01    0.72       1.0  T
   5    -42.2158817 -0.147274E-01  0.232E-01    0.80       1.0  T
   6    -42.2165979 -0.716212E-03  0.925E-02    0.79       1.0  T
   7    -42.2168048 -0.206966E-03  0.259E-02    0.78       1.0  T
   8    -42.2168055 -0.685054E-06  0.158E-02    0.78       1.3  T
   9    -42.2168102 -0.463537E-05  0.543E-03    0.78       3.7  T
  10    -42.2168107 -0.546458E-06  0.124E-03    0.78      16.2  T
  11    -42.2168107 -0.107236E-07  0.716E-04    0.78      27.9  T
  12    -42.2168107 -0.450485E-08  0.150E-04    0.78     133.5  T
     SCC iter.                  ...        0 min,  0.010 sec
     gradient                   ...        0 min,  0.008 sec
 * total energy  :  -104.4257828 Eh     change       -0.8131372E+01 Eh
   gradient norm :    28.4325093 Eh/α   predicted    -0.1273439E+02 (  56.61%)
   displ. norm   :     0.3817495 α      lambda       -0.1063622E+02
   maximum displ.:     0.1483336 α      in ANC's #47, #60, #1, ...

........................................................................
.............................. CYCLE   11 ..............................
........................................................................

 iter      E             dE          RMSdq      gap      omega  full diag
   1    -42.1847493 -0.421847E+02  0.624E-01    0.82       0.0  T
   2    -42.1848870 -0.137622E-03  0.548E-01    0.89       1.0  T
   3    -42.1870054 -0.211847E-02  0.357E-01    0.82       1.0  T
   4    -42.1809965  0.600889E-02  0.463E-01    0.93       1.0  T
   5    -42.1889914 -0.799484E-02  0.444E-02    0.85       1.0  T
   6    -42.1890245 -0.331677E-04  0.270E-02    0.85       1.0  T
   7    -42.1890415 -0.169454E-04  0.144E-02    0.85       1.4  T
   8    -42.1890463 -0.481200E-05  0.358E-03    0.85       5.6  T
   9    -42.1890465 -0.239052E-06  0.115E-03    0.85      17.3  T
  10    -42.1890466 -0.239284E-07  0.629E-04    0.85      31.8  T
  11    -42.1890466 -0.281679E-08  0.284E-04    0.85      70.4  T
     SCC iter.                  ...        0 min,  0.009 sec
     gradient                   ...        0 min,  0.008 sec
 * total energy  :  -103.4630253 Eh     change        0.9627575E+00 Eh
   gradient norm :    15.9320259 Eh/α   predicted    -0.6093132E+01 (-732.88%)
   displ. norm   :     0.1888739 α      lambda       -0.2216829E+01
   maximum displ.:     0.0667927 α      in ANC's #47, #48, #32, ...

........................................................................
.............................. CYCLE   12 ..............................
........................................................................

 iter      E             dE          RMSdq      gap      omega  full diag
   1    -42.2069198 -0.422069E+02  0.344E-01    0.81       0.0  T
   2    -42.2035985  0.332129E-02  0.375E-01    0.87       1.0  T
   3    -42.2053230 -0.172449E-02  0.280E-01    0.79       1.0  T
   4    -42.2068850 -0.156204E-02  0.151E-01    0.84       1.0  T
   5    -42.2077008 -0.815736E-03  0.477E-02    0.82       1.0  T
   6    -42.2077545 -0.536808E-04  0.138E-02    0.82       1.4  T
   7    -42.2077533  0.113930E-05  0.118E-02    0.82       1.7  T
   8    -42.2077570 -0.371715E-05  0.187E-03    0.82      10.7  T
   9    -42.2077571 -0.441124E-07  0.104E-03    0.82      19.3  T
  10    -42.2077571 -0.158017E-07  0.401E-04    0.82      49.9  T
  11    -42.2077571 -0.232597E-08  0.884E-05    0.82     226.4  T
     SCC iter.                  ...        0 min,  0.009 sec
     gradient                   ...        0 min,  0.008 sec
 * total energy  :  -105.2633672 Eh     change       -0.1800342E+01 Eh
   gradient norm :    10.5133915 Eh/α   predicted    -0.1147954E+01 ( -36.24%)
   displ. norm   :     0.3627194 α      lambda       -0.3187685E+01
   maximum displ.:     0.1920922 α      in ANC's #1, #60, #50, ...

........................................................................
.............................. CYCLE   13 ..............................
........................................................................

 iter      E             dE          RMSdq      gap      omega  full diag
   1    -42.2025223 -0.422025E+02  0.967E-01    0.88       0.0  T
   2    -42.0974180  0.105104E+00  0.198E+00    0.56       1.0  T
   3    -42.2186769 -0.121259E+00  0.500E-01    0.74       1.0  T
   4    -42.2241016 -0.542468E-02  0.234E-01    0.62       1.0  T
   5    -42.2236590  0.442680E-03  0.186E-01    0.64       1.0  T
   6    -42.2247860 -0.112701E-02  0.526E-02    0.64       1.0  T
   7    -42.2248522 -0.662103E-04  0.211E-02    0.64       1.0  T
   8    -42.2248605 -0.838308E-05  0.463E-03    0.65       4.3  T
   9    -42.2248606 -0.973450E-07  0.146E-03    0.65      13.7  T
  10    -42.2248607 -0.454679E-07  0.707E-04    0.65      28.3  T
  11    -42.2248607 -0.815584E-08  0.260E-04    0.65      77.0  T
     SCC iter.                  ...        0 min,  0.009 sec
     gradient                   ...        0 min,  0.008 sec
 * total energy  :  -103.7729321 Eh     change        0.1490435E+01 Eh
   gradient norm :    36.3086497 Eh/α   predicted    -0.1803536E+01 (-221.01%)
   displ. norm   :     0.2645606 α      lambda       -0.6500929E+01
   maximum displ.:     0.1387623 α      in ANC's #1, #48, #47, ...

........................................................................
.............................. CYCLE   14 ..............................
........................................................................

 iter      E             dE          RMSdq      gap      omega  full diag
   1    -42.1893487 -0.421893E+02  0.570E-01    0.66       0.0  T
   2    -42.1396759  0.496728E-01  0.126E+00    0.24       1.0  T
   3    -42.1965647 -0.568888E-01  0.273E-01    0.59       1.0  T
   4    -42.1962244  0.340289E-03  0.171E-01    0.52       1.0  T
   5    -42.1967482 -0.523834E-03  0.101E-01    0.55       1.0  T
   6    -42.1971122 -0.363972E-03  0.274E-02    0.54       1.0  T
   7    -42.1971246 -0.124500E-04  0.148E-02    0.54       1.3  T
   8    -42.1971283 -0.365726E-05  0.512E-03    0.54       3.9  T
   9    -42.1971285 -0.205013E-06  0.222E-03    0.55       9.0  T
  10    -42.1971286 -0.136028E-06  0.675E-04    0.55      29.6  T
  11    -42.1971286 -0.364113E-08  0.256E-04    0.55      78.2  T
     SCC iter.                  ...        0 min,  0.009 sec
     gradient                   ...        0 min,  0.008 sec
 * total energy  :  -105.6699401 Eh     change       -0.1897008E+01 Eh
   gradient norm :     6.9308663 Eh/α   predicted    -0.3477974E+01 (  83.34%)
   displ. norm   :     0.3596471 α      lambda       -0.9652773E+00
   maximum displ.:     0.2318482 α      in ANC's #1, #32, #66, ...

........................................................................
.............................. CYCLE   15 ..............................
........................................................................

 iter      E             dE          RMSdq      gap      omega  full diag
   1    -42.1701459 -0.421701E+02  0.121E+00    0.64       0.0  T
   2    -42.0631989  0.106947E+00  0.205E+00    1.32       1.0  T
   3    -42.1944661 -0.131267E+00  0.550E-01    0.63       1.0  T
   4    -42.2014364 -0.697027E-02  0.275E-01    0.70       1.0  T
   5    -42.2018735 -0.437107E-03  0.204E-01    0.67       1.0  T
   6    -42.2032440 -0.137052E-02  0.406E-02    0.68       1.0  T
   7    -42.2032791 -0.351048E-04  0.274E-02    0.68       1.0  T
   8    -42.2032881 -0.898145E-05  0.156E-02    0.68       1.3  T
   9    -42.2032926 -0.446402E-05  0.433E-03    0.68       4.6  T
  10    -42.2032931 -0.504010E-06  0.155E-03    0.68      12.9  T
  11    -42.2032931 -0.311772E-07  0.103E-03    0.68      19.4  T
  12    -42.2032931 -0.250432E-07  0.164E-04    0.68     122.0  T
  13    -42.2032931 -0.450150E-09  0.681E-05    0.68     293.6  T
     SCC iter.                  ...        0 min,  0.010 sec
     gradient                   ...        0 min,  0.008 sec
 * total energy  :  -105.9374721 Eh     change       -0.2675320E+00 Eh
   gradient norm :     2.5914825 Eh/α   predicted    -0.5450743E+00 ( 103.74%)
   displ. norm   :     0.0744050 α      lambda       -0.6601953E-01
   maximum displ.:     0.0479194 α      in ANC's #1, #34, #8, ...

........................................................................
.............................. CYCLE   16 ..............................
........................................................................

 iter      E             dE          RMSdq      gap      omega  full diag
   1    -42.2063550 -0.422064E+02  0.178E-01    0.66       0.0  T
   2    -42.2001782  0.617686E-02  0.438E-01    0.59       1.0  T
   3    -42.2073030 -0.712486E-02  0.707E-02    0.64       1.0  T
   4    -42.2072872  0.158518E-04  0.548E-02    0.63       1.0  T
   5    -42.2073005 -0.133363E-04  0.378E-02    0.64       1.0  T
   6    -42.2073477 -0.471772E-04  0.677E-03    0.64       3.0  T
   7    -42.2073479 -0.209910E-06  0.476E-03    0.64       4.2  T
   8    -42.2073483 -0.464604E-06  0.198E-03    0.64      10.1  T
   9    -42.2073484 -0.783411E-07  0.333E-04    0.64      60.1  T
  10    -42.2073484 -0.771493E-09  0.219E-04    0.64      91.2  T
     SCC iter.                  ...        0 min,  0.008 sec
     gradient                   ...        0 min,  0.008 sec
 * total energy  :  -105.9733756 Eh     change       -0.3590352E-01 Eh
   gradient norm :     0.2893119 Eh/α   predicted    -0.3319336E-01 (  -7.55%)
   displ. norm   :     0.0765785 α      lambda       -0.1308872E-01
   maximum displ.:     0.0307521 α      in ANC's #34, #8, #50, ...

........................................................................
.............................. CYCLE   17 ..............................
........................................................................

 iter      E             dE          RMSdq      gap      omega  full diag
   1    -42.2131370 -0.422131E+02  0.161E-01    0.62       0.0  T
   2    -42.2125004  0.636658E-03  0.203E-01    0.61       1.0  T
   3    -42.2133942 -0.893781E-03  0.942E-02    0.64       1.0  T
   4    -42.2133325  0.616687E-04  0.111E-01    0.61       1.0  T
   5    -42.2136159 -0.283369E-03  0.384E-02    0.63       1.0  T
   6    -42.2136618 -0.459674E-04  0.762E-03    0.63       2.6  T
   7    -42.2136625 -0.683429E-06  0.577E-03    0.63       3.5  T
   8    -42.2136632 -0.669326E-06  0.245E-03    0.63       8.1  T
   9    -42.2136633 -0.145822E-06  0.941E-04    0.63      21.3  T
  10    -42.2136633 -0.195558E-07  0.307E-04    0.63      65.1  T
     SCC iter.                  ...        0 min,  0.008 sec
     gradient                   ...        0 min,  0.008 sec
 * total energy  :  -105.9852386 Eh     change       -0.1186299E-01 Eh
   gradient norm :     0.2879124 Eh/α   predicted    -0.6582793E-02 ( -44.51%)
   displ. norm   :     0.4233973 α      lambda       -0.6513132E-01
   maximum displ.:     0.1713933 α      in ANC's #34, #8, #50, ...

........................................................................
.............................. CYCLE   18 ..............................
........................................................................

 iter      E             dE          RMSdq      gap      omega  full diag
   1    -42.2239928 -0.422240E+02  0.990E-01    0.68       0.0  T
   2    -42.1987004  0.252924E-01  0.133E+00    0.59       1.0  T
   3    -42.2443481 -0.456477E-01  0.339E-01    0.68       1.0  T
   4    -42.2352782  0.906982E-02  0.588E-01    0.55       1.0  T
   5    -42.2452332 -0.995498E-02  0.156E-01    0.66       1.0  T
   6    -42.2458389 -0.605667E-03  0.654E-02    0.63       1.0  T
   7    -42.2459233 -0.843701E-04  0.368E-02    0.64       1.0  T
   8    -42.2459524 -0.291709E-04  0.134E-02    0.64       1.5  T
   9    -42.2459569 -0.447193E-05  0.800E-03    0.64       2.5  T
  10    -42.2459583 -0.143227E-05  0.236E-03    0.64       8.5  T
  11    -42.2459584 -0.100272E-06  0.830E-04    0.64      24.1  T
  12    -42.2459584 -0.716883E-08  0.255E-04    0.64      78.5  T
     SCC iter.                  ...        0 min,  0.010 sec
     gradient                   ...        0 min,  0.008 sec
 * total energy  :  -106.0397004 Eh     change       -0.5446183E-01 Eh
   gradient norm :     0.2289542 Eh/α   predicted    -0.3840471E-01 ( -29.48%)
   displ. norm   :     0.6470508 α      lambda       -0.7706990E-01
   maximum displ.:     0.2551382 α      in ANC's #34, #50, #52, ...

........................................................................
.............................. CYCLE   19 ..............................
........................................................................

 iter      E             dE          RMSdq      gap      omega  full diag
   1    -42.2388112 -0.422388E+02  0.168E+00    1.14       0.0  T
   2    -42.0368693  0.201942E+00  0.303E+00    0.99       1.0  T
   3    -42.2908209 -0.253952E+00  0.688E-01    0.95       1.0  T
   4    -42.2957546 -0.493373E-02  0.239E-01    0.98       1.0  T
   5    -42.2944224  0.133218E-02  0.275E-01    0.84       1.0  T
   6    -42.2965398 -0.211740E-02  0.548E-02    0.93       1.0  T
   7    -42.2965618 -0.219381E-04  0.394E-02    0.92       1.0  T
   8    -42.2966013 -0.395451E-04  0.151E-02    0.92       1.3  T
   9    -42.2966056 -0.424840E-05  0.889E-03    0.92       2.3  T
  10    -42.2966073 -0.169855E-05  0.251E-03    0.92       8.0  T
  11    -42.2966073 -0.849135E-07  0.175E-03    0.92      11.4  T
  12    -42.2966074 -0.837819E-07  0.465E-04    0.92      43.0  T
  13    -42.2966074 -0.423044E-08  0.154E-04    0.92     130.1  T
     SCC iter.                  ...        0 min,  0.010 sec
     gradient                   ...        0 min,  0.008 sec
 * total energy  :  -106.0768779 Eh     change       -0.3717750E-01 Eh
   gradient norm :     2.3643784 Eh/α   predicted    -0.5466947E-01 (  47.05%)
   displ. norm   :     0.4288761 α      lambda       -0.9874877E-01
   maximum displ.:     0.1729615 α      in ANC's #67, #50, #52, ...

........................................................................
.............................. CYCLE   20 ..............................
........................................................................

 iter      E             dE          RMSdq      gap      omega  full diag
   1    -42.3171718 -0.423172E+02  0.834E-01    1.45       0.0  T
   2    -42.2903553  0.268165E-01  0.114E+00    1.16       1.0  T
   3    -42.3227068 -0.323514E-01  0.457E-01    1.31       1.0  T
   4    -42.3242529 -0.154616E-02  0.267E-01    1.32       1.0  T
   5    -42.3266167 -0.236379E-02  0.825E-02    1.24       1.0  T
   6    -42.3266901 -0.733540E-04  0.431E-02    1.26       1.0  T
   7    -42.3267389 -0.487995E-04  0.227E-02    1.25       1.0  T
   8    -42.3267491 -0.102355E-04  0.688E-03    1.26       2.9  T
   9    -42.3267503 -0.115011E-05  0.224E-03    1.26       8.9  T
  10    -42.3267504 -0.791988E-07  0.114E-03    1.26      17.5  T
  11    -42.3267504 -0.173530E-07  0.418E-04    1.26      47.9  T
  12    -42.3267504 -0.485992E-08  0.102E-04    1.26     195.9  T
     SCC iter.                  ...        0 min,  0.010 sec
     gradient                   ...        0 min,  0.008 sec
 * total energy  :  -106.1077365 Eh     change       -0.3085856E-01 Eh
   gradient norm :     1.3088208 Eh/α   predicted    -0.5845639E-01 (  89.43%)
   displ. norm   :     0.1728550 α      lambda       -0.3452742E-01
   maximum displ.:     0.0736243 α      in ANC's #34, #52, #57, ...
 * RMSD in coord.:     1.2058657 α      energy gain  -0.6230785E+02 Eh

generating ANC from model Hessian ...
Using Lindh-Hessian (1995)
 Shifting diagonal of input Hessian by    9.3399513791730705E-003
 Lowest  eigenvalues of input Hessian
    0.000000    0.000000    0.000000    0.000000    0.000000    0.000000
    0.010000    0.012187    0.014275    0.014782    0.015585    0.018747
    0.019938    0.020768    0.023644    0.023866    0.026131    0.027569
 Highest eigenvalues
    2.032178    2.041614    2.348489    2.532088   58.407704   64.304706


........................................................................
.............................. CYCLE   21 ..............................
........................................................................

 iter      E             dE          RMSdq      gap      omega  full diag
   1    -42.3367400 -0.423367E+02  0.397E-01    1.39       0.0  T
   2    -42.3235467  0.131933E-01  0.744E-01    1.28       1.0  T
   3    -42.3395818 -0.160351E-01  0.143E-01    1.35       1.0  T
   4    -42.3397811 -0.199374E-03  0.547E-02    1.32       1.0  T
   5    -42.3398019 -0.207648E-04  0.313E-02    1.33       1.0  T
   6    -42.3398220 -0.200796E-04  0.111E-02    1.32       1.8  T
   7    -42.3398223 -0.353756E-06  0.102E-02    1.33       2.0  T
   8    -42.3398245 -0.217738E-05  0.309E-03    1.33       6.5  T
   9    -42.3398247 -0.203690E-06  0.136E-03    1.33      14.7  T
  10    -42.3398247 -0.322967E-07  0.617E-04    1.33      32.4  T
  11    -42.3398248 -0.624907E-08  0.266E-04    1.33      75.2  T
     SCC iter.                  ...        0 min,  0.009 sec
     gradient                   ...        0 min,  0.008 sec
 * total energy  :  -106.1349330 Eh     change       -0.2719650E-01 Eh
   gradient norm :     0.3425538 Eh/α   predicted     0.0000000E+00 (-100.00%)
   displ. norm   :     0.7011290 α      lambda       -0.1568187E+00
   maximum displ.:     0.3900136 α      in ANC's #24, #14, #27, ...

........................................................................
.............................. CYCLE   22 ..............................
........................................................................

 iter      E             dE          RMSdq      gap      omega  full diag
   1    -42.4411334 -0.424411E+02  0.782E-01    1.30       0.0  T
   2    -42.4391816  0.195182E-02  0.584E-01    1.24       1.0  T
   3    -42.4347203  0.446131E-02  0.564E-01    1.32       1.0  T
   4    -42.4425196 -0.779937E-02  0.199E-01    1.32       1.0  T
   5    -42.4434859 -0.966295E-03  0.557E-02    1.27       1.0  T
   6    -42.4435582 -0.723049E-04  0.330E-02    1.29       1.0  T
   7    -42.4435745 -0.163070E-04  0.122E-02    1.28       1.6  T
   8    -42.4435736  0.981643E-06  0.767E-03    1.28       2.6  T
   9    -42.4435754 -0.182373E-05  0.156E-03    1.28      12.8  T
  10    -42.4435754 -0.767229E-08  0.731E-04    1.28      27.4  T
  11    -42.4435754 -0.229210E-08  0.359E-04    1.28      55.7  T
     SCC iter.                  ...        0 min,  0.009 sec
     gradient                   ...        0 min,  0.008 sec
================
 final structure:
================
25
 xtb: 6.6.1 (8d0f1dd)
C            3.21786164340000        1.13591514650000        0.01837059260000
N            2.27034809790000        0.05199982890000        0.00038279530000
C            2.54167221030000       -1.23971668410000       -0.00834188300000
N            1.39367826450000       -1.95088267900000       -0.00850347120000
C            0.35269634020000       -1.06748964300000        0.00059917290000
C            0.90759959010000        0.20069750900000        0.00663590170000
C            0.07590235260000        1.39864294500000       -0.00284827040000
O            0.48715076820000        2.53168346660000       -0.01725767220000
N           -1.27221500230000        1.06666939660000        0.00165480230000
C           -2.23229981500000        2.16656245330000       -0.00245172030000
C           -1.84872931540000       -0.19179276200000        0.00496135950000
O           -3.03273030250000       -0.36103538130000        0.00858583760000
N           -0.96599111670000       -1.30060631840000        0.00174701630000
C           -1.52030655580000       -2.64076660390000       -0.00239033190000
H            3.71480285180000        1.18589984860000        0.98803183970000
H            3.97079415090000        0.99383197990000       -0.75543416370000
H            2.68321036910000        2.07051068580000       -0.15067179540000
H            3.52469367910000       -1.66989040330000       -0.01523639120000
H           -1.67672429040000        3.10039111610000        0.00486339690000
H           -2.85755792270000        2.10547813320000       -0.89185337000000
H           -2.87119733260000        2.09858159720000        0.87661144540000
H           -1.20589108080000       -3.18768007210000        0.88663215920000
H           -1.21982032550000       -3.17678505510000       -0.90288069810000
H           -2.60531402170000       -2.54255916880000        0.00649952960000
H            1.32879827740000       -2.95942079410000       -0.01653446370000

 Bond Distances (Angstroems)
 ---------------------------
C1-N2=1.4398         C1-H15=1.0907        C1-H16=1.0890        C1-H17=1.0899        N2-C1=1.4398         N2-C3=1.3199         
N2-C6=1.3709         C3-N2=1.3199         C3-N4=1.3504         C3-H18=1.0730        N4-C3=1.3504         N4-C5=1.3653         
N4-H25=1.0107        C5-N4=1.3653         C5-C6=1.3843         C5-N13=1.3391        C6-N2=1.3709         C6-C5=1.3843         
C6-C7=1.4584         C7-C6=1.4584         C7-O8=1.2055         C7-N9=1.3884         O8-C7=1.2055         N9-C7=1.3884         
N9-C10=1.4600        N9-C11=1.3842        C10-N9=1.4600        C10-H19=1.0866       C10-H20=1.0889       C10-H21=1.0888       
C11-N9=1.3842        C11-O12=1.1960       C11-N13=1.4173       O12-C11=1.1960       N13-C5=1.3391        N13-C11=1.4173       
N13-C14=1.4503       C14-N13=1.4503       C14-H22=1.0901       C14-H23=1.0902       C14-H24=1.0895       H15-C1=1.0907        
H16-C1=1.0890        H17-C1=1.0899        H18-C3=1.0730        H19-C10=1.0866       H20-C10=1.0889       H21-C10=1.0888       
H22-C14=1.0901       H23-C14=1.0902       H24-C14=1.0895       H25-N4=1.0107        
 C  H  Rav=1.0877 sigma=0.0050  Rmin=1.0730  Rmax=1.0907    10
 C  C  Rav=1.4213 sigma=0.0370  Rmin=1.3843  Rmax=1.4584     2
 N  H  Rav=1.0107 sigma=0.0000  Rmin=1.0107  Rmax=1.0107     1
 N  C  Rav=1.3896 sigma=0.0445  Rmin=1.3199  Rmax=1.4600    11
 O  C  Rav=1.2007 sigma=0.0047  Rmin=1.1960  Rmax=1.2055     2

 selected bond angles (degree)
 --------------------
H15-C1-N2=110.21               H16-C1-N2=110.36               H16-C1-H15=108.82              H17-C1-N2=108.71               
H17-C1-H15=108.79              H17-C1-H16=109.93              C3-N2-C1=126.98                C6-N2-C1=124.92                
C6-N2-C3=108.09                N4-C3-N2=109.91                H18-C3-N2=125.50               H18-C3-N4=124.59               
C5-N4-C3=107.90                H25-N4-C3=125.46               H25-N4-C5=126.64               C6-C5-N4=106.69                
N13-C5-N4=129.66               N13-C5-C6=123.66               C5-C6-N2=107.40                C7-C6-N2=130.99                
C7-C6-C5=121.59                O8-C7-C6=125.28                N9-C7-C6=110.94                N9-C7-O8=123.78                
C10-N9-C7=117.28               C11-N9-C7=128.45               C11-N9-C10=114.27              H19-C10-N9=108.13              
H20-C10-N9=109.73              H20-C10-H19=110.32             H21-C10-N9=109.67              H21-C10-H19=110.38             
H21-C10-H20=108.60             

 selected dihedral angles (degree)
 ---------------------------------
C3-N2-C1-H15=289.54           C3-N2-C1-H16= 49.76           C3-N2-C1-H17=170.39           C6-N2-C1-H15=108.66           
C6-N2-C1-H16=228.88           C6-N2-C1-H17=349.51           N4-C3-N2-C1=179.26            N4-C3-N2-C6=  0.00            
H18-C3-N2-C1=359.21           H18-C3-N2-C6=179.97           C5-N4-C3-N2=  0.00            C5-N4-C3-H18=180.05           
H25-N4-C3-N2=179.85           H25-N4-C3-H18=359.90          C6-C5-N4-C3=  0.00            C6-C5-N4-H25=180.14           
N13-C5-N4-C3=179.88           N13-C5-N4-H25=  0.03          C5-C6-N2-C1=180.71            C5-C6-N2-C3=359.97            
C7-C6-N2-C1=  1.78            C7-C6-N2-C3=181.03            N2-C6-C5-N4=  0.03            N2-C6-C5-N13=180.13           
C7-C6-C5-N4=179.08            C7-C6-C5-N13=359.18           O8-C7-C6-N2=359.91            O8-C7-C6-C5=181.10            
N9-C7-C6-N2=179.67            N9-C7-C6-C5=  0.86            C10-N9-C7-C6=179.81           C10-N9-C7-O8=359.58           
C11-N9-C7-C6=359.56           C11-N9-C7-O8=179.33           H19-C10-N9-C7=359.25          H19-C10-N9-C11=179.46         
H20-C10-N9-C7=119.63          H20-C10-N9-C11=299.84         H21-C10-N9-C7=238.84          H21-C10-N9-C11= 59.06         
           -------------------------------------------------
          |                Final Singlepoint                |
           -------------------------------------------------

          ...................................................
          :                      SETUP                      :
          :.................................................:
          :  # basis functions                  67          :
          :  # atomic orbitals                  67          :
          :  # shells                           39          :
          :  # electrons                        74          :
          :  max. iterations                   250          :
          :  Hamiltonian                  GFN2-xTB          :
          :  restarted?                      false          :
          :  GBSA solvation                  false          :
          :  PC potential                    false          :
          :  electronic temp.         5000.0000000     K    :
          :  accuracy                    1.0000000          :
          :  -> integral cutoff          0.2500000E+02      :
          :  -> integral neglect         0.1000000E-07      :
          :  -> SCF convergence          0.1000000E-05 Eh   :
          :  -> wf. convergence          0.1000000E-03 e    :
          :  Broyden damping             0.4000000          :
          ...................................................

 iter      E             dE          RMSdq      gap      omega  full diag
   1    -42.4900052 -0.424900E+02  0.423E+00    3.36       0.0  T
   2    -42.7309455 -0.240940E+00  0.247E+00    3.15       1.0  T
   3    -42.7738728 -0.429274E-01  0.134E+00    3.28       1.0  T
   4    -42.7735884  0.284464E-03  0.683E-01    3.34       1.0  T
   5    -42.7789502 -0.536177E-02  0.114E-01    3.37       1.0  T
   6    -42.7790262 -0.760920E-04  0.680E-02    3.33       1.0  T
   7    -42.7790703 -0.440347E-04  0.262E-02    3.35       1.0  T
   8    -42.7790777 -0.737687E-05  0.743E-03    3.34       2.7  T
   9    -42.7790779 -0.288657E-06  0.321E-03    3.34       6.2  T
  10    -42.7790780 -0.230205E-07  0.102E-03    3.34      19.5  T
  11    -42.7790780 -0.857433E-08  0.341E-04    3.34      58.7  T
  12    -42.7790780 -0.442370E-09  0.143E-04    3.34     140.1  T

   *** convergence criteria satisfied after 12 iterations ***

         #    Occupation            Energy/Eh            Energy/eV
      -------------------------------------------------------------
         1        2.0000           -0.9185976             -24.9963
       ...           ...                  ...                  ...
        31        1.9996           -0.6230272             -16.9534
        32        1.9995           -0.6194597             -16.8564
        33        1.9979           -0.5974978             -16.2587
        34        1.9932           -0.5789625             -15.7544
        35        1.9817           -0.5631859             -15.3251
        36        1.9779           -0.5602245             -15.2445
        37        1.9748           -0.5581227             -15.1873 (HOMO)
        38        0.0652           -0.4353568             -11.8467 (LUMO)
        39        0.0099           -0.4050461             -11.0219
        40        0.0013           -0.3732225             -10.1559
        41        0.0000           -0.2886863              -7.8556
        42                         -0.2065803              -5.6213
       ...                                ...                  ...
        67                          0.5625648              15.3082
      -------------------------------------------------------------
                  HL-Gap            0.1227659 Eh            3.3406 eV
             Fermi-level           -0.4890449 Eh          -13.3076 eV

 SCC (total)                   0 d,  0 h,  0 min,  0.022 sec
 SCC setup                      ...        0 min,  0.000 sec (  0.697%)
 Dispersion                     ...        0 min,  0.000 sec (  0.560%)
 classical contributions        ...        0 min,  0.000 sec (  0.236%)
 integral evaluation            ...        0 min,  0.003 sec ( 14.804%)
 iterations                     ...        0 min,  0.010 sec ( 45.197%)
 molecular gradient             ...        0 min,  0.008 sec ( 38.038%)
 printout                       ...        0 min,  0.000 sec (  0.439%)

         :::::::::::::::::::::::::::::::::::::::::::::::::::::
         ::                     SUMMARY                     ::
         :::::::::::::::::::::::::::::::::::::::::::::::::::::
         :: total energy             -43.799882057869 Eh    ::
         :: gradient norm              3.521538871116 Eh/a0 ::
         :: HOMO-LUMO gap              3.340629640170 eV    ::
         ::.................................................::
         :: SCC energy               -42.779077977335 Eh    ::
         :: -> isotropic ES            0.141120609707 Eh    ::
         :: -> anisotropic ES         -0.005230484679 Eh    ::
         :: -> anisotropic XC          0.011966695806 Eh    ::
         :: -> dispersion             -0.022657733568 Eh    ::
         :: repulsion energy           0.531105277918 Eh    ::
         :: add. restraining          -1.552023517461 Eh    ::
         :: total charge               1.000000000002 e     ::
         :::::::::::::::::::::::::::::::::::::::::::::::::::::


last geometry written to: xtblast.xyz

########################################################################
[ERROR] Program stopped due to fatal error
-5- Geometry optimization failed
-4- xtb_geoopt: Trying to recover from failed geometry optimization
-3- xtb_geoopt: Geometry optimization did not converge
-2- optimizer_ancopt: Could not relax structure
-1- optimizer_relax: |grad| > 500, something is totally wrong!
########################################################################
