25
 energy: -43.835493825275 gnorm: 0.102777714012 xtb: 6.6.1 (8d0f1dd)
C            3.23825630061088        1.17951503053359        0.08516150955156
N            2.31955829340246        0.08121358971113        0.03897974485730
C            2.60472983051265       -1.25114202138663        0.03026951629248
N            1.42242020426071       -1.92854321381364        0.00151179684383
C            0.39676264965599       -1.05086307068663       -0.00782819314777
C            0.94191371062678        0.22526897368364        0.01635376748274
C            0.10584900152314        1.40839503219540       -0.00424173488627
O            0.49397471602888        2.55352804418679       -0.00342846871194
N           -1.25691099068199        1.06200494157514       -0.03081794484180
C           -2.22516602170999        2.15324583108947       -0.04999641019167
C           -1.81973322236826       -0.19551713401340       -0.04709171785036
O           -3.00467000548426       -0.37894535410660       -0.07015715065711
N           -0.92579745025896       -1.29432609997019       -0.03678252294190
C           -1.46380672112865       -2.64054486614105       -0.06018567034589
H            3.71124476341612        1.23245344724540        1.06688765459498
H            4.00821805923951        1.05427964285642       -0.67470448083275
H            2.68713685564150        2.10927646278993       -0.09147418508091
H            3.56767026030168       -1.78342333465551        0.04020805381967
H           -1.67984346859558        3.09225849737977       -0.02532680861897
H           -2.83090727928325        2.09314417264708       -0.95323252160822
H           -2.88362411915507        2.07597283799941        0.81433665553211
H           -1.16232912712062       -3.19058344856317        0.83228784881919
H           -1.13700522382252       -3.16979757251107       -0.95639283306378
H           -2.54913365200315       -2.55421601571098       -0.07465505850884
H            1.36342651302658       -2.93602498388053       -0.01344982530008
25
 energy: -43.839079997698 gnorm: 0.033171665446 xtb: 6.6.1 (8d0f1dd)
C            3.24628896931736        1.18149505502023        0.08728010762064
N            2.32208721589145        0.09116120508578        0.03612834914045
C            2.60895520485810       -1.25549192755979        0.03012414040676
N            1.41486361013178       -1.93637950209958        0.00121543399207
C            0.39791227162419       -1.05163811621386       -0.00836503640191
C            0.93719226405492        0.22664662237147        0.01439728538724
C            0.11236262581163        1.39616232508554       -0.00546362439007
O            0.49413929725459        2.56543511851152       -0.00493180084819
N           -1.26113635162264        1.05023504628794       -0.03101223157736
C           -2.22181536261762        2.14547472397394       -0.04972652577956
C           -1.82357098970010       -0.19769108116459       -0.04730477241549
O           -3.01971757985550       -0.38233555305650       -0.07039745957412
N           -0.93465086758331       -1.29464042975250       -0.03698063502978
C           -1.46727639188414       -2.63821759539875       -0.06010519278609
H            3.72415196396050        1.23821737263908        1.06943760201317
H            4.01632827904456        1.06125221680230       -0.67630973477975
H            2.68904316793650        2.10236035408616       -0.08807659282618
H            3.56009843240661       -1.75286502753702        0.04101729569951
H           -1.66289356984119        3.07793153527341       -0.02501451091633
H           -2.82836996810182        2.09197476155743       -0.95381882294795
H           -2.88084890216327        2.07501827046276        0.81556508784561
H           -1.16112271426612       -3.18849992980531        0.83190913022484
H           -1.13579143903142       -3.16797582487106       -0.95559816060462
H           -2.55256258282618       -2.55068128529186       -0.07466427691955
H            1.34856729383568       -2.94031894595294       -0.01307403332773
25
 energy: -43.839392069663 gnorm: 0.016230295081 xtb: 6.6.1 (8d0f1dd)
C            3.24087911989787        1.17889027326813        0.08500947790191
N            2.32330600586522        0.09014039825770        0.03386430855216
C            2.61556559760527       -1.26590079239502        0.03183618337339
N            1.41593290484505       -1.94147971925720        0.00219941268398
C            0.40480083319031       -1.05222824029802       -0.00683114249600
C            0.93579763973728        0.22762648671690        0.01576921867200
C            0.12202861082577        1.39063200831206       -0.00200312732916
O            0.50069979410509        2.56869670979515       -0.00062139812789
N           -1.26177139166285        1.05608173012075       -0.02949489462963
C           -2.22673039616472        2.15132723366674       -0.04993309153647
C           -1.81274129826546       -0.19014970268448       -0.04659906740712
O           -3.01180283516943       -0.37855616131891       -0.07101827634378
N           -0.93245454200297       -1.29126558487728       -0.03607640555963
C           -1.46118226665684       -2.63556969707401       -0.06022941830155
H            3.71070548905152        1.23308956737157        1.07082804969900
H            4.01152236604710        1.05169513211040       -0.67653061064168
H            2.68385879691677        2.09893157182592       -0.09480318274674
H            3.55912439728004       -1.75853625302590        0.03994412446060
H           -1.68827620661091        3.09695857458192       -0.02521375242266
H           -2.83457390191885        2.09309738823986       -0.95310818120510
H           -2.88895404160313        2.07610293632717        0.81259651928295
H           -1.15718623036227       -3.18994661220498        0.83103866007560
H           -1.13148681206318       -3.16838516489867       -0.95564463670905
H           -2.54616022129736       -2.55191453958354       -0.07498665157195
H            1.35133246504526       -2.94270815452247       -0.01376109646756
25
 energy: -43.839642107538 gnorm: 0.009096441640 xtb: 6.6.1 (8d0f1dd)
C            3.24047686233670        1.18232553199978        0.08724101423598
N            2.32141789074952        0.09335803409430        0.03445398501095
C            2.61470542800389       -1.26279042118273        0.03182060844924
N            1.41611159917220       -1.93776294091303        0.00155378239656
C            0.40349767939604       -1.05244616658784       -0.00783304295616
C            0.93267832905147        0.22885495946109        0.01493358115893
C            0.11861261035525        1.38750076328783       -0.00629497901285
O            0.48983828688857        2.56580492603378       -0.00691955926919
N           -1.26571151164475        1.05199791712467       -0.03190281246967
C           -2.22230788160585        2.15032507898338       -0.04986359897372
C           -1.81418668700802       -0.19377316356293       -0.04739815129461
O           -3.01250829999592       -0.38447004099282       -0.06998310981923
N           -0.93451722399973       -1.29395328778470       -0.03698487267320
C           -1.46588729527382       -2.63734937688076       -0.05977916052377
H            3.71708436652165        1.23389627377888        1.06965108379143
H            4.00993807743117        1.05944428729365       -0.67592380500582
H            2.68808053106479        2.10712523260780       -0.08579760263636
H            3.56034388444698       -1.75801919843739        0.03951024439349
H           -1.66730207443085        3.08607437117487       -0.02578086365404
H           -2.82974133854998        2.09578980559332       -0.95345007509581
H           -2.88014325535703        2.07862275800073        0.81625950075624
H           -1.16408103014256       -3.19128933512416        0.83250212894028
H           -1.13918124794862       -3.17144199861428       -0.95553753681828
H           -2.55121731312208       -2.55221569500795       -0.07410309119406
H            1.35623349029554       -2.93897892589169       -0.01414264653070
25
 energy: -43.839645742035 gnorm: 0.006087325005 xtb: 6.6.1 (8d0f1dd)
C            3.24565002941240        1.17889524127827        0.08501693346174
N            2.32179940993753        0.09223573590340        0.03511661275762
C            2.61082144122417       -1.26213935756296        0.03320664814568
N            1.41241183453005       -1.93537501979266        0.00258001589969
C            0.40075439267117       -1.05046260548786       -0.00726834940472
C            0.93296379327611        0.23053108406434        0.01650854871250
C            0.11894900350913        1.39067576958823       -0.00215400762341
O            0.48994313083165        2.56643641148327       -0.00035403866742
N           -1.26642941710321        1.05352666756291       -0.02970855880467
C           -2.22561620266718        2.14720923184571       -0.04968595902056
C           -1.81676597562029       -0.19222759036136       -0.04694520601758
O           -3.01479578049395       -0.38192254869096       -0.07110367681548
N           -0.93632280682755       -1.29181905176295       -0.03680152761152
C           -1.46482461824703       -2.63553762325456       -0.06098324068579
H            3.72288850516696        1.23772039639230        1.06711713408429
H            4.01719539554892        1.05508594166612       -0.67645177713845
H            2.69230875526371        2.10197992277450       -0.09405605491336
H            3.55872177302662       -1.75938842979879        0.04103648223289
H           -1.67071214356976        3.08211247075718       -0.02381959602270
H           -2.82979234864349        2.08971605704262       -0.95512502227102
H           -2.88584699235604        2.07226180622234        0.81425881123342
H           -1.15896643355524       -3.18725907976622        0.83106037320855
H           -1.13293470066733       -3.16543021902841       -0.95706579322387
H           -2.55064622000272       -2.55246528236197       -0.07594177218680
H            1.35148005198994       -2.93773054025872       -0.01220595812342
25
 energy: -43.839706343119 gnorm: 0.003622836330 xtb: 6.6.1 (8d0f1dd)
C            3.24216108151381        1.17952925801272        0.08768066588984
N            2.32200623797335        0.09080449212604        0.03407068210345
C            2.61191650092136       -1.26299474936553        0.03087989621270
N            1.41393399099740       -1.93739598926104        0.00031697439743
C            0.40179950810009       -1.05280738916624       -0.00868858025488
C            0.93356487319526        0.22863898748525        0.01429374088575
C            0.12201607943750        1.39024223213462       -0.00549465690935
O            0.49467290376502        2.56558687203266       -0.00498013250358
N           -1.26476228837954        1.05422104479363       -0.03127121952553
C           -2.22393540427863        2.14909352077780       -0.04997735536633
C           -1.81529289203602       -0.19201844358315       -0.04693268835728
O           -3.01367561605133       -0.38114586244111       -0.06977590528051
N           -0.93551834591769       -1.29297010681333       -0.03689696015270
C           -1.46472483529549       -2.63663590746763       -0.05937059679210
H            3.71658893522466        1.23607364598257        1.07135800233297
H            4.01377576309852        1.05976814118375       -0.67444797512158
H            2.68439649503637        2.10063606042978       -0.08879512235939
H            3.56067406540147       -1.75762019187397        0.03884389097640
H           -1.67243356328344        3.08613181097568       -0.02605344252379
H           -2.83145091058193        2.09253401892426       -0.95316033007530
H           -2.88303103783143        2.07612719058596        0.81490756189320
H           -1.15929943486203       -3.18864125008586        0.83265459373416
H           -1.13453539862529       -3.16858070611144       -0.95485499488323
H           -2.55027219268037       -2.55171698413435       -0.07359180125661
H            1.35365936179295       -2.94023030668727       -0.01448322585811
25
 energy: -43.839700276926 gnorm: 0.003741078966 xtb: 6.6.1 (8d0f1dd)
C            3.24200874154234        1.18059058758660        0.08511972800187
N            2.32211831568612        0.09212390757750        0.03467266102060
C            2.61307492798043       -1.26241779298077        0.03338734551314
N            1.41541907352694       -1.93725805628560        0.00332240397165
C            0.40296127125404       -1.05314829020065       -0.00656405984512
C            0.93303094053811        0.22923730651853        0.01636866864663
C            0.12143981872237        1.38967744637302       -0.00361173508315
O            0.49146145873415        2.56668190762509       -0.00341597201690
N           -1.26602205717708        1.05328628068312       -0.03056682160895
C           -2.22373254649130        2.15000230911014       -0.04954513051810
C           -1.81457424084606       -0.19322429073337       -0.04720287587769
O           -3.01294508422893       -0.38388390241350       -0.07148221759609
N           -0.93471943108707       -1.29390659287361       -0.03643885585538
C           -1.46505732963643       -2.63752145364760       -0.06101947451634
H            3.71855320488445        1.23419755782779        1.06768207685876
H            4.01067929929302        1.05610961092989       -0.67893407984131
H            2.68877187504778        2.10481592675907       -0.09009415701025
H            3.56082629289873       -1.75630199402109        0.04141657259517
H           -1.67250666007605        3.08762258633388       -0.02435236644041
H           -2.83065151661430        2.09583015854150       -0.95339808038079
H           -2.88373016972021        2.07794710181639        0.81480725443202
H           -1.16327571219382       -3.19211533300058        0.83069078263761
H           -1.13671988013200       -3.17031955259096       -0.95678781728041
H           -2.55031858019478       -2.55156472124736       -0.07633598437524
H            1.35614186492411       -2.93983131923367       -0.01148684422571
25
 energy: -43.839724007180 gnorm: 0.001714745196 xtb: 6.6.1 (8d0f1dd)
C            3.24285068975751        1.18004716414687        0.08687700688359
N            2.32228911155202        0.09179515286181        0.03433638694155
C            2.61212179083702       -1.26286052005283        0.03176240661304
N            1.41418763530229       -1.93660557418496        0.00088239294185
C            0.40229299949093       -1.05222498094985       -0.00803889868357
C            0.93305666604753        0.22982547929576        0.01519660369107
C            0.12144708382944        1.39014870286047       -0.00449106227241
O            0.49086436211789        2.56691196403383       -0.00394060571514
N           -1.26622155221906        1.05340772124870       -0.03093571057328
C           -2.22423030990045        2.14889663748857       -0.05005092682980
C           -1.81517053383936       -0.19259317363074       -0.04702312766007
O           -3.01347677170793       -0.38295872342320       -0.07010965008179
N           -0.93521820458671       -1.29287611211244       -0.03680009579498
C           -1.46467114028741       -2.63653604735958       -0.05970866687574
H            3.71775100679283        1.23482856598830        1.07016293627920
H            4.01381158534005        1.05656684652425       -0.67499736825867
H            2.68967338556433        2.10398671198528       -0.08976574140554
H            3.55948225761516       -1.75844097109736        0.03927075976045
H           -1.67204391057657        3.08589363690972       -0.02544808532383
H           -2.83076478407481        2.09282926409454       -0.95410343549114
H           -2.88365008054754        2.07588152515097        0.81474428363383
H           -1.16033647500495       -3.18905344599149        0.83238736978391
H           -1.13575042936914       -3.16887387667319       -0.95548225768241
H           -2.55016846499631       -2.55225729952083       -0.07382022448722
H            1.35410795949781       -2.93910925913885       -0.01467326818730
25
 energy: -43.839693720522 gnorm: 0.003788907782 xtb: 6.6.1 (8d0f1dd)
C            3.24156263333561        1.18003526452944        0.08566215448694
N            2.32238064140606        0.09023450359612        0.03462683214458
C            2.61177842918714       -1.26350565932148        0.03291007387119
N            1.41391357998196       -1.93730508388547        0.00306656248733
C            0.40170038377447       -1.05318917357203       -0.00735627396114
C            0.93341072915453        0.22845555039912        0.01556111230415
C            0.12315231244335        1.38985193997892       -0.00440186569681
O            0.49430787014321        2.56513931334161       -0.00371224186052
N           -1.26504936640140        1.05377788656165       -0.03070065768486
C           -2.22323046103782        2.14869371936852       -0.04919850795753
C           -1.81535217518237       -0.19189049214263       -0.04717037198886
O           -3.01363626769191       -0.38090256384115       -0.07083222776081
N           -0.93567365172897       -1.29284619941760       -0.03684242396626
C           -1.46512042663616       -2.63628027160998       -0.06109460534265
H            3.71805869147608        1.23888788799854        1.06813567375130
H            4.01220091969482        1.06107489366736       -0.67750411600972
H            2.68200000722986        2.10005495108923       -0.09094176073265
H            3.56046773321934       -1.75878747882843        0.04105553932337
H           -1.67037020423462        3.08504161726881       -0.02467284093170
H           -2.83030660972163        2.09249123082031       -0.95282948323661
H           -2.88247756320406        2.07540644841881        0.81569646289401
H           -1.16070368211064       -3.18885843601044        0.83089415620878
H           -1.13357326721524       -3.16706577416285       -0.95676365335027
H           -2.55074270653658       -2.55175122669489       -0.07676850810859
H            1.35353632728953       -2.94013345909773       -0.01058800767708
25
 energy: -43.839724739501 gnorm: 0.001506845778 xtb: 6.6.1 (8d0f1dd)
C            3.24243075442427        1.17983210679192        0.08623360787684
N            2.32236961346217        0.09098606655596        0.03447413414883
C            2.61206458206095       -1.26285777283295        0.03228413387293
N            1.41438844587571       -1.93694126285486        0.00206241843450
C            0.40200704823998       -1.05297472601247       -0.00760573821735
C            0.93317784513564        0.22903511240333        0.01546595169006
C            0.12250136330877        1.39007379027913       -0.00432718976466
O            0.49287336342562        2.56591420946174       -0.00376113848461
N           -1.26577802763027        1.05368433557286       -0.03080257938571
C           -2.22395511530166        2.14901797898952       -0.04969105957180
C           -1.81533396551351       -0.19229965004817       -0.04709971881349
O           -3.01359222100038       -0.38202648713368       -0.07072167166086
N           -0.93541964216181       -1.29307844458416       -0.03672556746603
C           -1.46500574727805       -2.63668545228119       -0.06037112550360
H            3.71861627276432        1.23613077257764        1.06895894757311
H            4.01283810699869        1.05876169554053       -0.67678556738677
H            2.68582566843673        2.10171888047665       -0.08982221245077
H            3.56061970985489       -1.75758525614599        0.04023975659552
H           -1.67182703207275        3.08588325123509       -0.02502518083836
H           -2.83094034432664        2.09335190555301       -0.95342619865715
H           -2.88363316936793        2.07624562121332        0.81490652217149
H           -1.16092203469379       -3.18963074539007        0.83154268682239
H           -1.13489931957548       -3.16846786412287       -0.95601370316968
H           -2.55053102146340       -2.55174304645345       -0.07534662543870
H            1.35435874303247       -2.93971563033703       -0.01241186117050
25
 energy: -43.832335386252 gnorm: 0.081971139369 xtb: 6.6.1 (8d0f1dd)
C            3.23886991107939        1.19272439366650        0.08589965906745
N            2.34062483152834        0.08295391755185        0.03788910114603
C            2.63051621637397       -1.28709983169240        0.03065641289760
N            1.41078623980288       -1.91393219932991        0.00230638467999
C            0.40285850371429       -1.04267019276348       -0.00774096841519
C            0.94934046454320        0.23662552215576        0.01572099654504
C            0.11741244815349        1.41048181596486       -0.00396415303430
O            0.49037531508746        2.56523029758141       -0.00343262277500
N           -1.26302992624186        1.06165032044403       -0.03076499708380
C           -2.23128894540300        2.15145160837856       -0.04997711410724
C           -1.82045557446789       -0.19085562538290       -0.04714412705374
O           -3.00917001992494       -0.37951920943509       -0.07023209797524
N           -0.92532060427226       -1.28656013609360       -0.03672435296501
C           -1.45771160351946       -2.63475288504504       -0.06007493469236
H            3.70991551374356        1.25019336898307        1.06866830316808
H            4.00856761913807        1.07425349366693       -0.67543896890460
H            2.67448073550226        2.11988042041308       -0.09174103071987
H            3.56694390137993       -1.92970276218439        0.03789257239282
H           -1.68859638187223        3.09160108083010       -0.02511862252552
H           -2.83751348778976        2.09195612056594       -0.95327305730566
H           -2.89078646794484        2.07442313583447        0.81414212449475
H           -1.15404706068995       -3.18530480007156        0.83217709632654
H           -1.12841640209399       -3.16446462998144       -0.95592363619418
H           -2.54271516628359       -2.55206222628907       -0.07472284446665
H            1.34839909957012       -2.92565064027767       -0.01286340306269
25
 energy: -43.836306885298 gnorm: 0.025492483104 xtb: 6.6.1 (8d0f1dd)
C            3.24799329952006        1.18591288697727        0.08753834229715
N            2.33642000335457        0.08540259044341        0.03447967902625
C            2.61893755052905       -1.27914720806093        0.03056418008000
N            1.40523384403117       -1.93047475788789        0.00180735123834
C            0.39979411792889       -1.04805900750149       -0.00829316105946
C            0.94476157682658        0.23076322651301        0.01388371011506
C            0.12369097988900        1.39653001293646       -0.00519376229713
O            0.49120907947495        2.56940197282048       -0.00482606269883
N           -1.26152216798198        1.05101116923387       -0.03081214675064
C           -2.22325693043259        2.14492036107600       -0.04960469413003
C           -1.82179054854546       -0.19404825365174       -0.04717269343886
O           -3.01817796510970       -0.38126324090840       -0.07038112960158
N           -0.93432749455557       -1.28904368924863       -0.03682478497442
C           -1.46244755930522       -2.63400347546465       -0.06002223611684
H            3.72419061300838        1.25273200340260        1.07013513000258
H            4.01985616778359        1.07921185453559       -0.67629332218925
H            2.67957718562409        2.10212635199274       -0.08809156953357
H            3.54528354828227       -1.84246251026674        0.03913161920783
H           -1.66875965122643        3.07968404076907       -0.02469355029350
H           -2.83092490679531        2.09048082847360       -0.95332040415208
H           -2.88380835603369        2.07318821083847        0.81493108047475
H           -1.15421130096664       -3.18358875144213        0.83196708784209
H           -1.12856369729255       -3.16298059902616       -0.95534784813247
H           -2.54765668010893       -2.54934027358293       -0.07477582061406
H            1.33853845121465       -2.93610338548085       -0.01256927486409
25
 energy: -43.836626014700 gnorm: 0.013100342802 xtb: 6.6.1 (8d0f1dd)
C            3.24432726395898        1.18476960958416        0.08589651120562
N            2.34337801759170        0.07734611011435        0.03323523801285
C            2.62519038010281       -1.29280970358991        0.03205682953936
N            1.40832909777115       -1.93659598785921        0.00268666926269
C            0.40747257510402       -1.04425489944613       -0.00704318849221
C            0.95067806575610        0.23212297554374        0.01515443011207
C            0.13143975431471        1.39580122615972       -0.00277324549469
O            0.49605904611961        2.57479622580389       -0.00170127908403
N           -1.26024129678560        1.05823863937585       -0.02980572702051
C           -2.23139360297946        2.14798597148411       -0.04987860700349
C           -1.81335306756859       -0.18690938546791       -0.04679107992768
O           -3.01128126224084       -0.37823932265081       -0.07090465418677
N           -0.92919002941039       -1.28245772876088       -0.03613201175863
C           -1.45353256781752       -2.62865718696328       -0.06001000006993
H            3.71384245769335        1.25320629053534        1.07130002487023
H            4.01574317338013        1.07737123405750       -0.67737111336429
H            2.67283693745153        2.09985660106662       -0.09208258674017
H            3.53373164161015       -1.86804333740766        0.03748128861869
H           -1.69502876364915        3.09366398797053       -0.02501658312699
H           -2.84088407356991        2.08882931344678       -0.95262114462929
H           -2.89508904891271        2.07138996560698        0.81226533556489
H           -1.14699087053253       -3.18128143131663        0.83127267069635
H           -1.12108212718739       -3.16001663038197       -0.95506888486682
H           -2.53870469350086       -2.54786047374245       -0.07492660227755
H            1.33378215241388       -2.93740170567271       -0.01300657040246
25
 energy: -43.836825248900 gnorm: 0.007280280735 xtb: 6.6.1 (8d0f1dd)
C            3.24143886973311        1.19070168544805        0.08713048712711
N            2.34245936917094        0.08105010504736        0.03349649288744
C            2.62939255202860       -1.28941785404002        0.03234091219814
N            1.41209703832039       -1.93307342637399        0.00223040549131
C            0.40739287408467       -1.04394144059190       -0.00777130728254
C            0.94802427529161        0.23328594860505        0.01452922728464
C            0.12722857104094        1.39254335420507       -0.00557490997477
O            0.48591277116213        2.57296889620769       -0.00576251337606
N           -1.26431021836891        1.05390417101219       -0.03130158012640
C           -2.22606937464652        2.14909491170540       -0.04969805875163
C           -1.81550319653132       -0.19122989198675       -0.04726331591821
O           -3.01346097376895       -0.38446187203043       -0.07005544380309
N           -0.93105819993323       -1.28628688934761       -0.03677608618272
C           -1.45916215883974       -2.63215792823301       -0.05979543453624
H            3.71450167663038        1.25318120189901        1.07083179053660
H            4.01179258874576        1.08046776040988       -0.67626216433460
H            2.67544706376640        2.11116708244290       -0.08745650030537
H            3.54206337402325       -1.87000904163172        0.03738407327961
H           -1.67476629670438        3.08624217878599       -0.02527156944288
H           -2.83452405716787        2.09507093093214       -0.95329726282553
H           -2.88620162423478        2.07764859711687        0.81545813101987
H           -1.15668128713764       -3.18659163208759        0.83191483299851
H           -1.13141925873612       -3.16635316091580       -0.95507272508574
H           -2.54478289585302       -2.55016484509735       -0.07434426513214
H            1.34022767703748       -2.93278848399140       -0.01339749630808
25
 energy: -43.836871896090 gnorm: 0.004917228462 xtb: 6.6.1 (8d0f1dd)
C            3.24649582172031        1.18663390785870        0.08591823963014
N            2.34061408906688        0.08219695028639        0.03391555098852
C            2.62568173958458       -1.28664494773180        0.03297421598879
N            1.40833180351970       -1.93063118983977        0.00281746710382
C            0.40401516048158       -1.04224043899253       -0.00732211652273
C            0.94594155300570        0.23492121799453        0.01569550887244
C            0.12710184411235        1.39443746628015       -0.00301091010861
O            0.48752232167255        2.57309390878268       -0.00198104074160
N           -1.26510679739938        1.05516681206315       -0.03004062944022
C           -2.22884920896774        2.14671382027424       -0.04973535603956
C           -1.81738802501742       -0.18949633996475       -0.04699501717214
O           -3.01539569951094       -0.38101683487422       -0.07090905615847
N           -0.93372847694166       -1.28504945675185       -0.03659766466955
C           -1.45869789407594       -2.63104130641106       -0.06045738318237
H            3.72143397213564        1.25062058363413        1.06888421356222
H            4.01798553850346        1.07338734626881       -0.67653737620252
H            2.68147102814912        2.10623975670133       -0.09175306711830
H            3.54379453160755       -1.86362592328776        0.03833179978432
H           -1.68035250500239        3.08506128834623       -0.02424110717154
H           -2.83489930944703        2.08815571012881       -0.95439834055187