72
 energy: -99.246885033925 gnorm: 0.008842752591 xtb: 6.6.1 (8d0f1dd)
N           -1.85506215255316        2.76054361385735        2.22552618825880
C           -1.80198529190363        2.11657494854124        1.15838657589840
C           -2.95627880035577        1.90745282326720        0.21756072059789
C           -3.44099397725443        0.46675907474794        0.30077093818249
C           -4.40348236706245        0.00688743459063       -0.60074952315409
C           -4.89163459224511       -1.28831280597537       -0.54134489613431
O           -5.82899275831816       -1.80892030274249       -1.35665116552512
C           -6.46566620625987       -0.98303145424153       -2.30355945122767
C           -4.39157284402626       -2.18078336089596        0.44715273032151
O           -4.91355491292341       -3.42152357443193        0.42194545246337
C           -4.52507678814828       -4.35256436226302        1.40513528820906
C           -3.43643436539296       -1.71788589699944        1.33829477124293
C           -2.97087478141511       -0.41056875758441        1.26663021902622
C           -2.40470111005765        2.19382734453132       -1.20316080833652
C           -1.45270072722007        1.10839559401034       -1.73806682131038
C           -0.12659009394674        1.10432345182108       -1.08101951015925
N            0.51086610936018        0.03087904359058       -0.65744042401680
C            1.88448822911561        0.12127147329399       -0.22168241618475
C            2.84250823265936       -0.35857737775025       -1.32508440678723
C            4.25735071637368       -0.16724477804641       -0.87507867917373
C            4.92315432903185        1.01449121083292       -1.02875681644346
C            6.20707256404286        1.26560937139593       -0.64505406569906
C            6.92770642651013        0.23796303286623       -0.01682420171684
O            8.19233029809664        0.31755672172978        0.41573883977733
C            8.92720649282182        1.50638790723148        0.23404006827329
C            6.26754169155547       -1.00570124634594        0.20538682569652
O            7.01796970280794       -1.92763704281764        0.84377680884211
C            6.48430580847113       -3.20211441796856        1.11220917305780
C            4.96079470228556       -1.18854445880743       -0.21937144568793
C           -0.07812906519045       -1.28682585422450       -0.69222766520000
C           -4.16017292231596        2.84824719570434        0.52473330502406
C           -4.79257311469805        2.51855890806864        1.87472588681171
C           -3.79003566323750        4.32767779331840        0.47358501589843
H           -4.79030407260683        0.67672100205066       -1.35061481708139
H           -6.97132940275765       -0.13957224254269       -1.82412246433674
H           -7.20508996922970       -1.61609601721542       -2.79032884690119
H           -5.76049678001845       -0.61134849110982       -3.05372206601853
H           -4.76203606747182       -3.99513140821740        2.41143221835437
H           -5.09971119851474       -5.25304806721174        1.19745083492759
H           -3.45674263644642       -4.58223841097094        1.34017532997788
H           -3.05443282058028       -2.36580076736966        2.11047775248814
H           -2.25171136671714       -0.07775821598352        1.99914409764708
H           -3.24173241319953        2.27921806473983       -1.89497098920045
H           -1.88373316974078        3.15156823387537       -1.19485489748695
H           -1.93802364391531        0.13543917517379       -1.67863629321850
H           -1.27945604005132        1.33595720927308       -2.79724431147397
H           -0.87109946118030        1.66417226910102        0.76187772297135
H            0.44063505659719        2.02614535729369       -1.09533163866478
H            2.01739251066054       -0.47660034917670        0.68394977407135
H            2.12859342227292        1.16176483340936        0.00240833927824
H            2.67373837239866        0.27328891775513       -2.20292238272633
H            2.65002962194023       -1.40156003588503       -1.57585176395756
H            2.77711246955216        2.38305851707778       -2.09295543797937
H            6.66214721938962        2.22704256933312       -0.81874409880730
H            8.46023943869787        2.35101732753228        0.74931799199619
H            9.04731772294610        1.74624117097641       -0.82652363076618
H            9.90313111064329        1.30889680643661        0.67403426754687
H            7.28382533676494       -3.74475111415547        1.61279170758170
H            5.61530198968805       -3.14451801846578        1.77569511205736
H            6.20962963423363       -3.72677356172640        0.19218644782068
H            4.46749888853942       -2.13448557425770       -0.05779027969373
H           -0.22228746048645       -1.62492461597697       -1.72017125076996
H           -1.04417070911086       -1.28981450376343       -0.18133140809896
H            0.58270485404730       -1.98615540655600       -0.18643696152064
H           -4.90873357422532        2.66111338096950       -0.25319136833002
H           -4.08112925078330        2.70376409390504        2.67308598662918
H           -5.10888019431924        1.47919261999355        1.91824454121249
H           -5.66326745419792        3.14906885722629        2.03333224290642
H           -3.01945909699418        4.55213833835290        1.20486990918258
H           -3.44653075827416        4.62672280034014       -0.51312719357056
H           -4.66682379504191        4.92275737418305        0.71452288671860
H           -1.00238348411695        2.86625615178182        2.76561326900981
