72
 energy: -103.309179418312 gnorm: 0.101616614461 xtb: 6.6.1 (8d0f1dd)
N           -1.48186486771979        2.76395500890362        2.23221121608052
C           -1.56062122090882        2.15474812377111        1.15148911639870
C           -2.74570538229543        2.05792537442848        0.25073282512766
C           -3.31745279075530        0.64757372669936        0.33256291767943
C           -4.30133908184940        0.24193188164670       -0.56879738395570
C           -4.84473799597881       -1.02819840569272       -0.52590872971523
O           -5.81263911507623       -1.50091154514324       -1.36335153411844
C           -6.37977324619805       -0.62058705659122       -2.29943101311236
C           -4.39857366540691       -1.94748293469947        0.45345335119106
O           -4.99067160084910       -3.17138907017404        0.41351862879398
C           -4.66252005750828       -4.10613439403700        1.41881804350750
C           -3.42704793780817       -1.54328710352102        1.34370749716257
C           -2.89114853369404       -0.25943889183731        1.28259679876515
C           -2.19236174356720        2.29412774393503       -1.17792307469042
C           -1.26195301025642        1.17993114590054       -1.67039905332024
C            0.01271553028608        1.12042050132238       -0.89758283897984
N            0.63356694158872       -0.03763499004332       -0.56648624829920
C            2.02149944929087       -0.03395650044284       -0.16131480711504
C            2.95773729803348       -0.52157419207436       -1.29775117421116
C            4.38017330255376       -0.41410445713925       -0.86626854455204
C            5.10164763116936        0.74503698204155       -1.05950717833148
C            6.41909468160716        0.84781265353168       -0.60997292652421
C            7.03110472408192       -0.20912685298636        0.06518124998024
O            8.29724744442112       -0.20937012965614        0.53360341582065
C            9.09975004340265        0.93085109176142        0.30914632519042
C            6.24756086205496       -1.36337019611586        0.29387648584622
O            6.78152972028200       -2.42679132871909        0.99725915200427
C            6.17126883347046       -3.61388427432196        1.14733045635078
C            4.96836115821257       -1.45263271987847       -0.18766150732493
C           -0.02992718224051       -1.31239616832378       -0.61933544101943
C           -3.87475724846621        3.07437147956660        0.58115790968946
C           -4.49990628013389        2.77476932220711        1.94181864254461
C           -3.39721597063535        4.52225187447666        0.54693614626089
H           -4.64664473813748        0.93627284228047       -1.31638900696014
H           -6.83278259646656        0.25005428916486       -1.81157481066145
H           -7.15409853011613       -1.19570357523682       -2.80483093153721
H           -5.64610635097492       -0.28061533138416       -3.03804539302027
H           -4.88429221403945       -3.71713534762578        2.41949767904577
H           -5.28869482836233       -4.97315217010394        1.21747429673916
H           -3.60754648274951       -4.39834409971940        1.36979320590443
H           -3.07292482030934       -2.22088598900035        2.11401946701699
H           -2.15056361211728        0.02319312987512        2.01407331455967
H           -3.02360408283809        2.38476052759747       -1.87235369479821
H           -1.64647504763596        3.23980593916058       -1.19515469146128
H           -1.78924710697801        0.23393394853390       -1.62494819490763
H           -1.00777194723390        1.37806419182222       -2.71688829759905
H           -0.68490677438431        1.64558498568873        0.65439882726188
H            0.64715668293871        1.99365248879557       -0.95470753776459
H            2.14564401437016       -0.66844845378776        0.72536202959424
H            2.31180018233883        0.98699474161891        0.10748227689328
H            2.77694125613295        0.11149131147155       -2.17927454190076
H            2.71130936896337       -1.54964085034083       -1.54168896126933
H            4.66277415425341        1.58413211122436       -1.58366500449792
H            6.96930295060847        1.75908790283059       -0.79514083969875
H            8.67865527252705        1.82270276349757        0.79526881240164
H            9.23089068044427        1.13473727209888       -0.76194080471831
H           10.06012071412129        0.70638433247592        0.75266444727544
H            6.89589329609548       -4.25481770775308        1.67401336680514
H            5.26393486749098       -3.50032194736746        1.75658518079451
H            5.90773940518714       -4.09000591791638        0.19904209856573
H            4.38795372954702       -2.33936585093698       -0.01794635199717
H           -0.19592281062492       -1.63305996942935       -1.65548031858361
H           -0.98915726586935       -1.25480301506974       -0.10955172616527
H            0.58800297176996       -2.06571299504339       -0.12288155253175
H           -4.64935205911237        2.95476522821235       -0.18621687778393
H           -3.75691808922707        2.90210591659281        2.72750501793590
H           -4.87940268531942        1.75335242588656        1.97941125012486
H           -5.32708404732899        3.45683321792022        2.12610388501419
H           -2.60023815896130        4.68384628903311        1.27225568743893
H           -3.03880659622678        4.80771766300372       -0.43918856417989
H           -4.22486239633992        5.17960426612740        0.80013620860862
H           -0.60804587794665        2.77998457052568        2.74370704537799
72
 energy: -103.314496942963 gnorm: 0.038263282011 xtb: 6.6.1 (8d0f1dd)
N           -1.49936682762981        2.79094752262025        2.24415803088883
C           -1.56563408391398        2.15214840633558        1.16805765298355
C           -2.74719984442643        2.05760901479077        0.25307773206948
C           -3.31929086144167        0.64783707516365        0.33453804676098
C           -4.30255815893800        0.24142730488588       -0.56933758916096
C           -4.84579505341007       -1.02804025458708       -0.52509894759571
O           -5.81292190237907       -1.50001708761809       -1.36318561685315
C           -6.37905923159578       -0.61978298122981       -2.29952855035240
C           -4.39923650207578       -1.94694360535209        0.45275033876927
O           -4.99124650039426       -3.17280261286018        0.41566725631626
C           -4.66189131530090       -4.10503756965135        1.41810271350631
C           -3.42825232175706       -1.54235520864731        1.34642570041731
C           -2.89506087950450       -0.25841375245264        1.28738108500164
C           -2.19232985237596        2.29494262802645       -1.17722269574503
C           -1.25730380328069        1.18268927966158       -1.67713440978382
C            0.01814341439249        1.12854344686932       -0.90178452169762
N            0.64453226247552       -0.04666364605878       -0.56058770036860
C            2.02412555716505       -0.03511643527758       -0.16689749474070
C            2.95376707121298       -0.51594877206517       -1.30563189284446
C            4.37681575774004       -0.40777896884178       -0.87131908569460
C            5.10899973683711        0.74799313933480       -1.06509749966246
C            6.41775339428982        0.84232376490935       -0.60907867309458
C            7.02421188912557       -0.21076795398507        0.06783099311783
O            8.29816860023656       -0.21028792540587        0.53553788621070
C            9.09587731175386        0.92918911794458        0.31073351156272
C            6.25661832546246       -1.37310644931222        0.29389982381310
O            6.83260068307117       -2.40621244804124        0.99765131750304
C            6.17966393299125       -3.60666697519255        1.15119587175741
C            4.96568507487024       -1.45739163287433       -0.18252529577019
C           -0.02804221639023       -1.31491494855819       -0.62008646666835
C           -3.87636079928062        3.07410785951645        0.58083378579975
C           -4.50209869423838        2.77491177169997        1.94142752138313
C           -3.39898533207161        4.52325331857188        0.54614390100523
H           -4.64827066103541        0.93622215507131       -1.31682685858318
H           -6.83252535970010        0.25039764217472       -1.81241302446862
H           -7.15401498769624       -1.19331668141899       -2.80592124486269
H           -5.64355892595146       -0.28032870082650       -3.03703145682130
H           -4.88401257889204       -3.71639438620183        2.41763282028980
H           -5.28650064606868       -4.97416206918826        1.22002374440653
H           -3.60725757954718       -4.39648439561564        1.36830058660564
H           -3.07260834977844       -2.21817058270545        2.11111596980604
H           -2.15042415964003        0.02469935430375        2.01467591600063
H           -3.02688820540103        2.38815337401399       -1.87242948507123
H           -1.64533063436058        3.23959156809885       -1.19084082172887
H           -1.78375374523030        0.23215670707783       -1.62746084124005
H           -1.03016559964196        1.38595569449119       -2.73325805381230
H           -0.69247266874920        1.63701433530664        0.68298649474518
H            0.66367312383744        1.99081570417938       -0.98153683831582
H            2.15641831088033       -0.67287105115386        0.71453378590214
H            2.30870226909873        0.98401862830229        0.10660358004413
H            2.76981207411816        0.11079770169893       -2.18229187193492
H            2.70691351314873       -1.54767219618689       -1.55096751819215
H            4.67147333573631        1.58830038101769       -1.58432878430329
H            6.96768313958370        1.75216632357042       -0.79351436688628
H            8.67544705829981        1.81881513258913        0.79518519111040
H            9.22535195813210        1.12962072740985       -0.75920282138298
H           10.06160303998185        0.70304273510619        0.75402480301230
H            6.88459760535763       -4.25906416285000        1.67511742367715
H            5.26810540539586       -3.51163776084838        1.76174470109149
H            5.90982813561220       -4.08492031312411        0.19962674610510
H            4.38721073816365       -2.35044474723921       -0.01639385273977
H           -0.19631544621879       -1.63785038292111       -1.65480701494464
H           -0.99218734453139       -1.25847064968809       -0.11091248150203
H            0.58458857666212       -2.06618332707648       -0.12273365661622
H           -4.65099826822334        2.95470131966819       -0.18649357839728
H           -3.75711516476512        2.90113521966440        2.72185144320624
H           -4.88061506392592        1.75536306602516        1.97980960923643
H           -5.32849074513261        3.45743449050370        2.12782599527095
H           -2.60326159915880        4.67620668669010        1.27081810765745
H           -3.03874758893878        4.80624215354395       -0.43998218976975
H           -4.22596137090975        5.18225535360567        0.80139789044822
H           -0.61854930513452        2.78367536413025        2.74980994256979
72
 energy: -103.314498441967 gnorm: 0.024379329538 xtb: 6.6.1 (8d0f1dd)
N           -1.48125926215851        2.77716458716065        2.23558262994766
C           -1.54857116207102        2.14414565540756        1.15137085079096
C           -2.74435137093931        2.05669567262065        0.24844790682237
C           -3.31373191941270        0.64570444433010        0.32970852193418
C           -4.30033072393334        0.24025385793402       -0.57176188294008
C           -4.84369090759259       -1.02898499734522       -0.52639595528931
O           -5.81169339898666       -1.50071219636003       -1.36337640527909
C           -6.38056061690256       -0.62158211326963       -2.29876770899178
C           -4.39699426636095       -1.94751588991871        0.45014169395966
O           -4.99090925439652       -3.17395261164648        0.41640035170368
C           -4.66357195149948       -4.10474471401836        1.41730003962225
C           -3.42447131331254       -1.54449678797835        1.34462542895471
C           -2.88944887161518       -0.26199268451804        1.28258274686928
C           -2.19335081582447        2.29642022667603       -1.18249199253097
C           -1.25644086417612        1.17882551044389       -1.67190069482419
C            0.01103310834390        1.13204971771103       -0.89109494931129
N            0.64573288175475       -0.05019110518212       -0.54799720303149
C            2.01839578568746       -0.03121008236076       -0.15811314056637
C            2.94900897598503       -0.51240119761331       -1.29477581795423
C            4.37199308225375       -0.39894506946750       -0.86807732671174
C            5.10750047555880        0.75489378286439       -1.06121073041216
C            6.41476216187001        0.84430999151890       -0.60909584462021
C            7.01530944870635       -0.21022618850477        0.06597361241196
O            8.29709137332694       -0.20899078877557        0.53149152633559
C            9.09340585934116        0.93059997354751        0.30764598179377
C            6.25112662549753       -1.37725936192583        0.29574578404597
O            6.84074123370837       -2.39649493961109        0.99505956053993
C            6.16509774428032       -3.60929989456604        1.14973691169258
C            4.95834910938932       -1.45497289241963       -0.18029839071350
C           -0.02750926780317       -1.31426434334783       -0.61970931053740
C           -3.87062838989846        3.07332517454737        0.58343788353388
C           -4.49815512209048        2.77348975048696        1.94371744190957
C           -3.39516010947780        4.52474967486589        0.54787130484672
H           -4.64666548782068        0.93616559169404       -1.31786585037146
H           -6.83400506280378        0.24818651322698       -1.81131199911815
H           -7.15570855122419       -1.19647118181820       -2.80351462552858
H           -5.64719796232351       -0.28162932889351       -3.03835612828983
H           -4.88582483929337       -3.71796149005610        2.41737378246746
H           -5.28932643588366       -4.97335064704136        1.21847352027663
H           -3.60971665300570       -4.39950652644714        1.36948045688034
H           -3.07309990582054       -2.21814014654845        2.11021942252305
H           -2.14741612162541        0.02311501111962        2.01159979078502
H           -3.02835895596371        2.38557747419379       -1.87906241625712
H           -1.64579907865507        3.24018947641206       -1.19771647890166
H           -1.78689648199853        0.22789668268537       -1.62495564503570
H           -1.01400907476151        1.37868982516058       -2.72525858444150
H           -0.68165812323049        1.64868223862276        0.65290845432079
H            0.64987074939599        1.99770589092818       -0.94580561317946
H            2.14848784781569       -0.66462684570060        0.72728103037085
H            2.30419470895694        0.98748569910111        0.11287245314854
H            2.77078685439610        0.10697165212198       -2.17271672123521
H            2.70858793254241       -1.54945721854689       -1.53596416192639
H            4.66340766928662        1.58970058043202       -1.58090684156807
H            6.96478403447121        1.75484997563158       -0.79387420226054
H            8.67823586621435        1.82056267184809        0.79273829103718
H            9.22968381415949        1.13341592577155       -0.76047962526104
H           10.06124260155373        0.70395384488474        0.75276741890643
H            6.87207230290521       -4.25457050423925        1.67359976532723
H            5.25138198324843       -3.50725638112068        1.75435580568494
H            5.90163991608077       -4.08629192129031        0.19371361953492
H            4.37763504349144       -2.34679203721243       -0.01620579083254
H           -0.19710290762268       -1.63082321458472       -1.65593374881034
H           -0.99340086975691       -1.25915640539145       -0.10911045792263
H            0.58523705998665       -2.06476884967172       -0.12488284965027
H           -4.64618094526970        2.95435701516565       -0.18341296391279
H           -3.75772693680767        2.90162890131767        2.72660280409383
H           -4.87615422080880        1.75457045456425        1.98007651303810
H           -5.32592457270439        3.45545976307549        2.12572126012979
H           -2.60113700954654        4.68312399810736        1.27144030565894
H           -3.03775989983225        4.80729815975928       -0.43914838539133
H           -4.22577538939718        5.17984829368644        0.80134394011605
H           -0.58341005900439        2.75746173128428        2.71677635003985
72
 energy: -103.315602621830 gnorm: 0.010265498265 xtb: 6.6.1 (8d0f1dd)
N           -1.50535385840988        2.78269396834058        2.24434828684650
C           -1.55732018717230        2.15053847561142        1.15918095419533
C           -2.74839226601642        2.05792593560515        0.25137281001409
C           -3.31803483147187        0.64747097142244        0.33340607065397
C           -4.30298752379519        0.24158402910659       -0.56900580832451
C           -4.84567539594950       -1.02808687314813       -0.52467524750674
O           -5.81234229094453       -1.49981709460169       -1.36333698388531
C           -6.37909001511859       -0.61994254641795       -2.29937740874381
C           -4.39936650452845       -1.94623662850296        0.45213456080729
O           -4.99104758252383       -3.17366538773166        0.41692050569429
C           -4.66189663255799       -4.10401181352380        1.41759590677552
C           -3.42739661772789       -1.54352140999079        1.34719971892931
C           -2.89373206369274       -0.26037010081464        1.28599594150826
C           -2.19282036361386        2.29698277364437       -1.17718008332231
C           -1.25843401530166        1.17980851437466       -1.67042552841015
C            0.01147426534999        1.13087874783888       -0.89737155786458
N            0.64637907679683       -0.04972495185295       -0.55738764916459
C            2.02074895733976       -0.03433578515030       -0.16832624975012
C            2.95587526409910       -0.51653562220015       -1.30258587197471
C            4.37856239940478       -0.40459282882820       -0.87361404607135
C            5.11129726530634        0.75044984119126       -1.06318888742703
C            6.41948400996795        0.84308679296219       -0.61001876588221
C            7.01806954286592       -0.21219920688702        0.06598266593799
O            8.29945335369452       -0.21015392683243        0.53433160110291
C            9.09466872217016        0.93011779563605        0.30974597376546
C            6.25055701323274       -1.37912800709645        0.29716951030944
O            6.83299543134084       -2.40040491500062        0.99582165477303
C            6.17039237768223       -3.61822314559412        1.15310250237393
C            4.96341229368807       -1.45767384407364       -0.18595871620917
C           -0.02739278211763       -1.31330301808730       -0.62190097103757
C           -3.87578181782575        3.07399427629404        0.58174086943015
C           -4.50161705104180        2.77448878748615        1.94287304079052
C           -3.39698890139533        4.52422892333110        0.54695190902623
H           -4.64781474396714        0.93714187506236       -1.31590440406893
H           -6.83241021547169        0.25033862738215       -1.81241617274798
H           -7.15353294441459       -1.19436127618096       -2.80572472689058
H           -5.64447618442559       -0.28014842471694       -3.03775519073188
H           -4.88372419970712       -3.71795817689798        2.41856910636820
H           -5.28668836324859       -4.97347915938859        1.21852883644273
H           -3.60734859559446       -4.39747647401843        1.36964673530396
H           -3.07498507552052       -2.21850011208470        2.11246102423249
H           -2.15239252115792        0.02498448272664        2.01564023637607
H           -3.02650712122664        2.38665670121001       -1.87355812195498
H           -1.64549216165010        3.24062715570292       -1.19215824145447
H           -1.79018678280408        0.23082366651091       -1.62413678434067
H           -1.01446249400995        1.37964953458446       -2.72260884981446
H           -0.68855194084108        1.64902646049530        0.66758719235460
H            0.65331218034187        1.99327595829051       -0.96099881758072
H            2.15054729150160       -0.66880688076410        0.71772289047849
H            2.31125111124390        0.98351674249257        0.10345784169416
H            2.77946775551767        0.10699167574249       -2.17985743672712
H            2.71409938185939       -1.55204985505202       -1.54669561501739
H            4.66502916347429        1.58273138704596       -1.58578262053534
H            6.96926928262810        1.75480437680700       -0.79415065618127
H            8.67899195846268        1.82038912257741        0.79512792641628
H            9.23109607271286        1.13310694503746       -0.75892910226103
H           10.06226173669732        0.70529287968021        0.75472187118411
H            6.89143426787919       -4.25300186186827        1.67388967208814
H            5.26242408945646       -3.50774487983565        1.76010879051649
H            5.90971159160170       -4.09083121206789        0.19677460087347
H            4.38255590019548       -2.34723974017462       -0.02097392002972
H           -0.19848037111343       -1.63429040239092       -1.65638714754817
H           -0.99138907185340       -1.25423918474583       -0.10952791866667
H            0.58574525708715       -2.06335999062440       -0.12440103912268
H           -4.65058274103760        2.95503437113767       -0.18616759606379
H           -3.75909834382685        2.90191786144073        2.72482840231258
H           -4.88083611711485        1.75549570346421        1.97916844227590
H           -5.32828671517752        3.45753250038456        2.12614602220068
H           -2.60253629869362        4.68172614482557        1.27099659777594
H           -3.03929378695089        4.80684526701632       -0.43987177785731
H           -4.22633486394781        5.18057661800869        0.80002398893341
H           -0.61377354204189        2.77316368019312        2.73571997285353
72
 energy: -103.315431880042 gnorm: 0.012113276293 xtb: 6.6.1 (8d0f1dd)
N           -1.49442579731887        2.78840008887678        2.24164408283772
C           -1.55217271175038        2.15006878997442        1.16174629463241
C           -2.74385290791356        2.05711506836749        0.25309193530366
C           -3.31685612303108        0.64782032514921        0.33355793087540
C           -4.30100011020771        0.24151695348443       -0.56977782834525
C           -4.84428463390451       -1.02829399890272       -0.52564186434492
O           -5.81214679500623       -1.50005854559877       -1.36324452798382
C           -6.37994695743838       -0.62036610151294       -2.29878360990627
C           -4.39807792996096       -1.94632485102501        0.45117040844800
O           -4.99056837507261       -3.17340664852567        0.41563271349151
C           -4.66291791093681       -4.10377897594721        1.41704940875612
C           -3.42529825606014       -1.54385458440435        1.34528534310789
C           -2.89191758294781       -0.26050531779233        1.28486258076702
C           -2.19191140269729        2.29447545891750       -1.17776156278134
C           -1.25728165585539        1.18126024122554       -1.67833918632659
C            0.01473706454503        1.12960313037969       -0.90716307502210
N            0.64464725824273       -0.04824989006520       -0.55868374923084
C            2.01870766019171       -0.03294347115731       -0.16246396719086
C            2.95194977591109       -0.51315798840253       -1.29941185124445
C            4.37579494162147       -0.40364955875109       -0.86890778220566
C            5.10817055147712        0.75138528117417       -1.05998526054238
C            6.41813691020409        0.84481558712036       -0.60776792256801
C            7.01843816654959       -0.21049414400061        0.06656364530347
O            8.29915913192883       -0.21015897560169        0.53499126239083
C            9.09364499812300        0.92925441610865        0.30860740773428
C            6.24993465439064       -1.37646721712733        0.29873112809477
O            6.82633299659522       -2.40072278077549        0.99638819127494
C            6.16668596977232       -3.61761357574076        1.15211946962126
C            4.96307498232632       -1.45447548231425       -0.18207888753620
C           -0.02742983495523       -1.31411382676434       -0.61989270437677
C           -3.87259929295451        3.07263351737019        0.58176384882378
C           -4.49903088114393        2.77339655792387        1.94255322984826
C           -3.39598896613512        4.52295331127803        0.54735823220158
H           -4.64580418921187        0.93646757982016       -1.31724147525385
H           -6.83302249907790        0.24985580533075       -1.81138512759332
H           -7.15499739390926       -1.19467654371411       -2.80433896976855
H           -5.64574556921678       -0.28072936274107       -3.03760672511969
H           -4.88450764249052       -3.71606255780066        2.41770856052225
H           -5.28848313437126       -4.97311616232629        1.21934695602072
H           -3.60838459274876       -4.39795830486787        1.36906604924349
H           -3.07023488719184       -2.22009812761030        2.10919425062691
H           -2.14689412052998        0.02312999212392        2.01162616952292
H           -3.02666372487132        2.38579490599316       -1.87216014126325
H           -1.64554165053942        3.23855066232375       -1.19378428014529
H           -1.78549111605215        0.23186090758912       -1.63051626554985
H           -1.02589533320477        1.38466464309052       -2.73316401559840
H           -0.68948755202597        1.63019047366915        0.67643506739751
H            0.66214176600396        1.98842422933859       -0.98058029271673
H            2.15203348820955       -0.67083168117280        0.72153373905050
H            2.30683660041145        0.98545832003254        0.11254942301517
H            2.76724041714817        0.11368396614720       -2.17512637590586
H            2.70473671607743       -1.54601047363150       -1.54500977020780
H            4.66345135428344        1.58680565648001       -1.58048849084013
H            6.96736100150016        1.75611036607148       -0.79311969412911
H            8.67610505998276        1.81935429991662        0.79410602170042
H            9.22475520289770        1.13037643414696       -0.76137771326911
H           10.06140107229355        0.70403524554291        0.75135620366244
H            6.88383533813191       -4.25664465528555        1.67348828638012
H            5.26215568239113       -3.50216000072499        1.75904948916657
H            5.90495295398583       -4.08172045838183        0.19486335330458
H            4.38403567585201       -2.34443394177820       -0.01371811069813
H           -0.19353744099175       -1.63836303938292       -1.65403390222460
H           -0.99317430784569       -1.25813425510291       -0.11192998473936
H            0.58416792575523       -2.06519338889110       -0.11978266762825
H           -4.64737708582037        2.95347889477624       -0.18598465790536
H           -3.75513393035381        2.90092761293276        2.72351640512193
H           -4.87740788831721        1.75381193342817        1.97983857634577
H           -5.32596246525669        3.45591385976966        2.12732592168051
H           -2.60095057401056        4.67728879666072        1.27179785379385
H           -3.03769621469714        4.80644652295176       -0.43908410195915
H           -4.22423718759978        5.18021544046870        0.80217424493153
H           -0.60457557458195        2.77770844538425        2.73687757556738
72
 energy: -103.315760855465 gnorm: 0.003751334796 xtb: 6.6.1 (8d0f1dd)
N           -1.49768826318949        2.78450967462698        2.24289883775770
C           -1.55490571252559        2.14937974592234        1.16100072967810
C           -2.74688240521498        2.05796094742685        0.25211605490806
C           -3.31800112752410        0.64785948131609        0.33265859020394
C           -4.30223965971250        0.24111752349825       -0.57028968110040
C           -4.84524922746959       -1.02872064638244       -0.52555602596474
O           -5.81264081967726       -1.50057332956531       -1.36353663505164
C           -6.37963797843812       -0.62072454673037       -2.29940891098744
C           -4.39911488722938       -1.94633377621536        0.45159552287912
O           -4.99099894932801       -3.17389638785840        0.41634356970096
C           -4.66259783302445       -4.10428875049204        1.41718254180805
C           -3.42723780590455       -1.54298841964360        1.34644423661646
C           -2.89380854024381       -0.25974443798259        1.28527025328369
C           -2.19315446201875        2.29595261885431       -1.17796487298479
C           -1.25677611145080        1.18114317507811       -1.67276299203933
C            0.01371671167880        1.13064735791513       -0.89934849586925
N            0.64573158656729       -0.04848776476484       -0.55546573287106
C            2.02056491995688       -0.03338971303696       -0.16457535312026
C            2.95342125089816       -0.51557427207940       -1.30146754310518