25
 energy: 0.000000000000 xtb: 6.6.1 (8d0f1dd)
C            3.23720163006194        1.16630919979326        0.08434469647475
N            2.29877817382611        0.07527477071623        0.03981603040599
C            2.58028210190900       -1.21425402444508        0.03006176031096
N            1.43813958087363       -1.93419271955128        0.00098261760884
C            0.39035688448383       -1.05887472636071       -0.00790371836672
C            0.93510056364412        0.21347819449412        0.01709077491437
C            0.09450143893243        1.40504303904423       -0.00410947031874
O            0.49712751527797        2.54126714362870       -0.00342325688240
N           -1.25076640035757        1.06271879480407       -0.03085478223738
C           -2.21907211982101        2.15522099834493       -0.05001256985998
C           -1.81739487048744       -0.20012725993278       -0.04692818574614
O           -2.99983886758376       -0.37846417018721       -0.07008878229737
N           -0.92618586207120       -1.30210215599479       -0.03682761578324
C           -1.46982264913417       -2.64643102187190       -0.06029820460571
H            3.71247264356769        1.21471455160235        1.06488849150277
H            4.00791497605742        1.03430808813993       -0.67357694370751
H            2.69910007168542        2.09770118228144       -0.09130154882931
H            3.56654120610678       -1.63682992603973        0.04233140067262
H           -1.67107961066214        3.09322851271934       -0.02552706933167
H           -2.82428953597071        2.09428624779827       -0.95318082946668
H           -2.87644029173232        2.07745725625962        0.81450067533302
H           -1.17061996399332       -3.19584890659852        0.83242232437030
H           -1.14560257411436       -3.17511610292205       -0.95688275822323
H           -2.55549792440841       -2.55659984320617       -0.07459039797972
H            1.38130855184625       -2.94313852034425       -0.01389874181052
25
 energy: -5.364577089532 xtb: 6.6.1 (8d0f1dd)
C            3.24024181170947        1.19592638201904        0.08727468144562
N            2.31321984089616        0.09113256256207        0.03933414455043
C            2.59950974824233       -1.24180788636371        0.03060187765173
N            1.42513682994007       -1.95010470622272        0.00081949893244
C            0.39524773434341       -1.06571657667707       -0.00827951798975
C            0.93379312255531        0.21170458117063        0.01593120497027
C            0.10838343663995        1.38533922355974       -0.00499300506734
O            0.50925250130913        2.54938507013083       -0.00390717614192
N           -1.25425729548493        1.04452339489399       -0.03115812647037
C           -2.20869426575829        2.14506025748102       -0.04951230800140
C           -1.82266549648561       -0.20416243519707       -0.04773782568344
O           -3.02005974540524       -0.38153364076822       -0.07104347045134
N           -0.93714825405735       -1.30750041147848       -0.03753561599035
C           -1.48423619491884       -2.64647452525078       -0.06091939319224
H            3.72566636902431        1.27029977081428        1.06545105899254
H            4.01335835311314        1.09148720585222       -0.67656323408634
H            2.68438126573898        2.11589847546754       -0.08609509204924
H            3.57397472388301       -1.67606085403879        0.04260588323248
H           -1.64156481327426        3.07305169934358       -0.02525855261714
H           -2.81425323847976        2.09440107264928       -0.95385105007505
H           -2.86569181980115        2.07801667554013        0.81691966059298
H           -1.18627873015812       -3.20012772723680        0.83143058039850
H           -1.16022273913637       -3.17998919677224       -0.95657195325067
H           -2.56930100349234       -2.54910962800266       -0.07585069864284
H            1.35442252699323       -2.95461018130375       -0.01405767491026
25
 energy: -4.543841754321 xtb: 6.6.1 (8d0f1dd)
C            3.23275248138898        1.24745772659383        0.09051113138163
N            2.33763571412185        0.09987971395324        0.04025060319776
C            2.62038535120233       -1.27932250655053        0.03343041788592
N            1.41024610605570       -1.96990169507237        0.00170209621797
C            0.40200386046025       -1.08159853583035       -0.00854565294901
C            0.93958087897121        0.19876047317557        0.01521348994530
C            0.13429764929294        1.34616522966508       -0.00631280225072
O            0.52177951195239        2.53074630121761       -0.00519985373856
N           -1.25152991579702        1.01546066713973       -0.03183362980391
C           -2.17891234571404        2.13193191483348       -0.04835024089431
C           -1.82136898738781       -0.21409697936686       -0.04927684405953
O           -3.02835001007920       -0.38752821263770       -0.07309342207436
N           -0.94861419043359       -1.31873602757634       -0.03898039075380
C           -1.51367489061436       -2.64776397765792       -0.06257229201262
H            3.73733123640152        1.38220711109845        1.06032367073442
H            4.01206281997379        1.21680606296133       -0.68284083954148
H            2.63255992963705        2.14463346772164       -0.07396322352153
H            3.57679180806012       -1.74070511482086        0.04385405541855
H           -1.57429053768157        3.03847071025542       -0.02474859099473
H           -2.78586906293497        2.09879951578795       -0.95325545308988
H           -2.83483872640494        2.08343620528595        0.82085490820849
H           -1.22916357666816       -3.21162275610480        0.82961018980594
H           -1.19997677849049       -3.19285394892140       -0.95676389191472
H           -2.59793076974575       -2.52950502045351       -0.07930918405716
H            1.31930711236998       -2.97209172252460       -0.01367035499240
25
 energy: 4.497568899125 xtb: 6.6.1 (8d0f1dd)
C            3.21428583668681        1.32294451304734        0.09317621783352
N            2.37561601616769        0.10046671815824        0.04432610138622
C            2.64480304401217       -1.32840391504013        0.03980353486061
N            1.40060603261341       -1.99891869241019        0.00436649718804
C            0.41278283985519       -1.10949406902649       -0.00829073629064
C            0.95760715526626        0.17252922686876        0.01599177346664
C            0.17075144353413        1.29766204315915       -0.00762234685748
O            0.53790646511342        2.49847665404170       -0.00731723065166
N           -1.23953464908376        0.98032818867630       -0.03297330933884
C           -2.13123938432346        2.11688832233576       -0.04663046326442
C           -1.81319277952667       -0.23064038330103       -0.05183083857182
O           -3.02770435995383       -0.39703048109112       -0.07691176882882
N           -0.95600766779896       -1.33853903822911       -0.04128991013252
C           -1.55928340412825       -2.65124493336664       -0.06558626993002
H            3.74485989303595        1.54605488502026        1.04705387973739
H            3.99762036575535        1.40971504343351       -0.69388031434476
H            2.54185183329284        2.18231667417889       -0.05358209222766
H            3.57607678916645       -1.83577913073984        0.04638640978633
H           -1.47976390478493        2.99428261352150       -0.02454674076945
H           -2.73995493417581        2.10417687563927       -0.95104787114277
H           -2.78392068027173        2.09048591070891        0.82626976633506
H           -1.30424077227192       -3.23044842964647        0.82757920081821
H           -1.26898571875443       -3.21401653848124       -0.95841991253817
H           -2.64180604437901       -2.49257330128627       -0.08571149434889
H            1.28308125288924       -3.00021015399901       -0.01227818602682
25
 energy: 24.272018581921 xtb: 6.6.1 (8d0f1dd)
C            3.20593515806899        1.41259199434401        0.09608840332402
N            2.42860672771592        0.09945633464327        0.05063219635516
C            2.66971288772467       -1.38658845735188        0.04905587668224
N            1.39103088132519       -2.03154939696788        0.00807556487538
C            0.42577814115610       -1.13950735175326       -0.00816799957853
C            0.98702633933174        0.14328346359903        0.01718238946569
C            0.21174654091939        1.24927584334870       -0.00901020408514
O            0.54883491114532        2.46381195331237       -0.00981609391095
N           -1.22523031268596        0.94502392531053       -0.03450382894603
C           -2.08479388649196        2.09628623569307       -0.04480869779841
C           -1.80190456805271       -0.24885289632506       -0.05519655269592
O           -3.02213257382004       -0.40720423582982       -0.08189702357397
N           -0.96068279371594       -1.35988450120980       -0.04440835561463
C           -1.61309404094019       -2.65283930276511       -0.06947666682969
H            3.76722522844443        1.73518485822570        1.02665258835159
H            3.98602840452354        1.63253568607259       -0.70484349666011
H            2.46128482777680        2.23016410396565       -0.02721474748053
H            3.56594332107117       -1.96115989620566        0.04935650850332
H           -1.39541343541874        2.94653435177514       -0.02522141669022
H           -2.69575531551511        2.09773651142794       -0.94712572046988
H           -2.73272474916902        2.08601554005449        0.83145263375894
H           -1.39670925126530       -3.24914757109384        0.82530526009982
H           -1.35378305066761       -3.23595138124207       -0.96088817727094
H           -2.69283778063549       -2.44341754267841       -0.09384445571025
H            1.23812305711100       -3.03276966617765       -0.01034408795371
25
 energy: 51.354681633435 xtb: 6.6.1 (8d0f1dd)
C            3.19938884163291        1.51236754113579        0.09885907487990
N            2.47933074854887        0.09864025212658        0.05654655356599
C            2.68830342649102       -1.44167170320740        0.05822277376821
N            1.38640628579464       -2.06864850370558        0.01179982096928
C            0.43549950994096       -1.17353346625399       -0.00881618102455
C            1.01787092053337        0.10930668993630        0.01763578773933
C            0.24960966551738        1.20655308642679       -0.01035658665588
O            0.56008353656721        2.42549201260873       -0.01165835567891
N           -1.20764593137730        0.91371371045275       -0.03599888745025
C           -2.03578131189069        2.08008018695670       -0.04261066001187
C           -1.79102091130916       -0.26871878099994       -0.05870084428856
O           -3.01471783165686       -0.41378399249504       -0.08666693708178
N           -0.96456498444151       -1.38687521459298       -0.04780249172435
C           -1.66737890867776       -2.66048520361384       -0.07346272150132
H            3.78201095742883        1.92630782520192        1.00461900943264
H            3.96492791040292        1.84812840248249       -0.71082151716846
H            2.39822530511483        2.28784471620489       -0.00256983926853
H            3.54577033443932       -2.08405127666991        0.05049372931901
H           -1.31552371111066        2.90569185592121       -0.02596444391366
H           -2.64839214415430        2.09383201390166       -0.94269292642664
H           -2.67745375414172        2.08391267192756        0.83747963110989
H           -1.49145566876337       -3.27073983212105        0.82285748672708
H           -1.44104523854986       -3.26155814607340       -0.96334715937417
H           -2.74224837502797       -2.40246917986216       -0.10196403771147
H            1.20201599662512       -3.07030706351600       -0.00804638208369
25
 energy: 76.304622900111 xtb: 6.6.1 (8d0f1dd)
C            3.20151715342251        1.62045933246981        0.10094334512925
N            2.52157284159535        0.09335832161208        0.06017478207606
C            2.68766132024081       -1.48655057101485        0.06572998825572
N            1.38893986616650       -2.10846857605771        0.01420188427679
C            0.43525173142945       -1.21048805852474       -0.01111589678953
C            1.04967188290899        0.06929348289723        0.01623305169973
C            0.27575823045692        1.17964129560741       -0.01111990579905
O            0.56494624752531        2.38100539445718       -0.01249383688050
N           -1.18792146811235        0.89531357008381       -0.03696114730108
C           -1.98938925467841        2.07530041550808       -0.04048058365972
C           -1.78349136054106       -0.28866033556230       -0.06128169191904
O           -3.00304607881991       -0.41215081408326       -0.08979870976290
N           -0.96680576778682       -1.41921635897227       -0.05077887015849
C           -1.71277258506008       -2.67800896291326       -0.07649831065770
H            3.78339423090764        2.09681560956856        0.98236030552551
H            3.93423086888253        2.02838449628561       -0.70565384151553
H            2.37293633705750        2.35345807046453        0.01682113268124
H            3.50488500124609       -2.19075508357800        0.04767758467648
H           -1.25377378143523        2.88128131974036       -0.02679377658114
H           -2.60191080701150        2.09800509368790       -0.93806608735956
H           -2.62379546174489        2.08942738912580        0.84245096836581
H           -1.57129832600976       -3.29232643111433        0.82039987783540
H           -1.51561336308030       -3.28757173043962       -0.96472068058139
H           -2.77999821259327       -2.38605338065018       -0.10792716694347
H            1.18126542297018       -3.11246488642576       -0.00626851846560
25
 energy: 93.036603238573 xtb: 6.6.1 (8d0f1dd)
C            3.21903903111882        1.74262627438846        0.10067130516800
N            2.52845665726909        0.06273651528421        0.05975651677709
C            2.64473605268150       -1.50703317611065        0.06912088663441
N            1.40520108290693       -2.15521135383924        0.01418785665429
C            0.41063609396646       -1.25205725303813       -0.01430102226384
C            1.07424484143441        0.01247872187259        0.01368859540936
C            0.28158046690415        1.17293103858108       -0.00939229784801
O            0.59024487213653        2.31929248380660       -0.00991459535080
N           -1.14975197445245        0.89352265218497       -0.03678086518073
C           -1.94353780191606        2.08678004370155       -0.03974996287552
C           -1.78355824609853       -0.30813869405817       -0.06161798825192
O           -2.98852359874872       -0.38878820565037       -0.09079650249141
N           -0.96627542953908       -1.45869213498630       -0.05155323215684
C           -1.74106018798827       -2.70976941850084       -0.07756715086928
H            3.76194415452847        2.21919373050082        0.96425855408471
H            3.88461233405853        2.14832193992983       -0.69343513047957
H            2.37002925695510        2.40967058557608        0.03199015895658
H            3.43673201815293       -2.22730399409599        0.03990051122008
H           -1.21876029333762        2.88748719637110       -0.02862956118939
H           -2.55424321296268        2.11944804283588       -0.93629480400618
H           -2.57225722956997        2.11170243261086        0.84480229168393
H           -1.61863955540729       -3.31090621590625        0.81856573192710
H           -1.56019214616392       -3.31019627926432       -0.96417444671171
H           -2.79607790631136       -2.40669125079716       -0.11085773927413
H            1.19763538831921       -3.16237507922454       -0.00484321341895
25
 energy: 110.178735048835 xtb: 6.6.1 (8d0f1dd)
C            3.25435715702182        1.90277402749731        0.10455653655326
N            2.54039579470992        0.00159285107714        0.06005816666475
C            2.60336856844499       -1.55152917459754        0.07182424993611
N            1.40884374766358       -2.21736765616555        0.01424845900369
C            0.38560076792667       -1.30146319968247       -0.01634934407519
C            1.10454422406746       -0.06010271391925        0.01170794832125
C            0.29031793309933        1.14409832890496       -0.00871685301081
O            0.62424413964699        2.26217116291322       -0.00682650851272
N           -1.10261994011246        0.87480131672315       -0.03736739092595
C           -1.88859552825359        2.08570342464024       -0.03922102084957
C           -1.78287948351800       -0.33271886755014       -0.06305389728641
O           -2.97920160649102       -0.36569709343574       -0.09362603216370
N           -0.97037267120903       -1.49993016609629       -0.05262771313167
C           -1.78728836808554       -2.73674368280753       -0.07966559500340
H            3.77267234228917        2.41135736651565        0.94857602144841
H            3.85375418783258        2.35393539329545       -0.69614582122062
H            2.34478345025762        2.47723709131209        0.05880123207964
H            3.37646753461159       -2.29701065009335        0.03559562169973
H           -1.16510171078709        2.88205575768983       -0.03142550554897
H           -2.49894181525164        2.13177936557026       -0.93452039460485
H           -2.51166109313908        2.12590556099923        0.84790338240560
H           -1.69240174380887       -3.33392089632737        0.81760264188234
H           -1.62755248551335       -3.33783150549642       -0.96504580797529
H           -2.83126048227253       -2.40424035257070       -0.11693623321501
H            1.19074174880665       -3.22582708622408       -0.00231224632337
25
 energy: 112.322871553588 xtb: 6.6.1 (8d0f1dd)
C            3.31535080281017        2.06702098397019        0.10926726628489
N            2.54149544321100       -0.10359032867167        0.06053413644082
C            2.55042272941673       -1.60391376227940        0.06563395521919
N            1.40362281208313       -2.27620516184916        0.01177566948220
C            0.35527917597401       -1.34061873057699       -0.01862107088705
C            1.13577335299515       -0.13168269586759        0.00974239972736
C            0.28481115722071        1.13015047920574       -0.00814522263944
O            0.63626496712696        2.21195152035044       -0.00480251321897
N           -1.07152642405600        0.87127637978197       -0.03719133146862
C           -1.86233179533834        2.08681872564452       -0.03905969561096
C           -1.78906854484777       -0.34919972855734       -0.06322338032804
O           -2.97202480157865       -0.34408116768537       -0.09459342459286
N           -0.97838029951184       -1.52580892809864       -0.05286154087079
C           -1.81810900689456       -2.75353988736017       -0.08071374710350
H            3.80774625667164        2.57727320913256        0.93719766456573
H            3.85550452488341        2.52064177734057       -0.68924282466607
H            2.38411969941811        2.54712689464585        0.07510972256861
H            3.32119980007755       -2.36065334286584        0.03553199946210
H           -1.14850326628207        2.88343627642307       -0.03292822010853
H           -2.47189016309308        2.13396861003005       -0.93232171514163
H           -2.48237988541505        2.12899861164800        0.84720320321186
H           -1.73283376222114       -3.34141914970121        0.81607400039392
H           -1.66502507533575       -3.34775931845728       -0.96500530799904
H           -2.85286927093678       -2.40669424859025       -0.11985588786586
H            1.16556624155862       -3.28446841543995       -0.00247023870808
25
 energy: 104.098794552376 xtb: 6.6.1 (8d0f1dd)
C            3.43218516673265        2.30418177307042        0.11555743649714
N            2.44092735233269       -0.40340177214408        0.05784100805336
C            2.46179476638416       -1.64157815133811        0.03981690686302
N            1.39763325497121       -2.32326227208464        0.00889345795460
C            0.30864584983672       -1.34986505523483       -0.01724117502642
C            1.15316642006136       -0.21916845588518        0.01021717475017
C            0.22233499353427        1.14045041259558       -0.00978181210383
O            0.65365714683076        2.20368787540572       -0.00301404129925
N           -1.03626279079755        0.88167647472021       -0.03636037475731
C           -1.86903477682540        2.08976737201127       -0.03957807936878
C           -1.80515497522882       -0.35990864406949       -0.06254633717193
O           -2.97226162198017       -0.32539115113830       -0.09402231318194
N           -0.98850893876545       -1.52280379716524       -0.05154939210882
C           -1.82224056567556       -2.75098750231061       -0.08019325487071
H            3.85664977766701        2.66162075147216        0.96156110232425
H            3.89775708885916        2.59383225986106       -0.70175423445385
H            2.45053435145388        2.57911825017669        0.07633018288931
H            3.32299630095033       -2.32734325222129        0.04452083594694
H           -1.15257363896225        2.90032804784412       -0.03252870323533
H           -2.47454940843304        2.13419724836792       -0.93394713206894
H           -2.48673608500676        2.12913332639438        0.84621373133961
H           -1.72150227492872       -3.33577296612423        0.81599321556696
H           -1.65403560745650       -3.34183170984802       -0.96487643875614
H           -2.85281872652502       -2.41046841872516       -0.11937687366929
H            1.14961160890720       -3.31718204145823       -0.00314099396557
25
 energy: 103.488145693714 xtb: 6.6.1 (8d0f1dd)
C            3.48490345956057        2.45965847348310        0.12731112047801
N            2.47550857241318       -0.44205898887108        0.06257125513451
C            2.44422676666711       -1.72244128976625        0.04269626661200
N            1.36411225624142       -2.38871240989308        0.00859518173664
C            0.29909324921577       -1.38213192460734       -0.01887826596306
C            1.17147269097500       -0.25543544525977        0.00917399622701
C            0.24094685811194        1.12123463006873       -0.00840428251583
O            0.66064742704247        2.15555072689539       -0.00152159390882
N           -1.03095445404592        0.87237023464239       -0.03704635706692
C           -1.84720808728006        2.08735312028263       -0.03960237325615
C           -1.80497866005902       -0.37142422530876       -0.06423604484496
O           -2.97233914713255       -0.31442263593567       -0.09669389307614
N           -1.00576487094474       -1.54249626219477       -0.05410887723327
C           -1.85765582758790       -2.76372986382490       -0.08254963005443
H            3.91098277006366        2.84237478909558        0.97684105991717
H            3.92013409775639        2.77617599556270       -0.73237630852463
H            2.47080302033733        2.64635648020583        0.09171566338264
H            3.28664253722821       -2.43886446645033        0.04283044763739
H           -1.13668234482586        2.89028963917441       -0.03380524849520
H           -2.44940493424124        2.12938592659489       -0.93181438849595
H           -2.45842456035482        2.12487800181598        0.84628149024126
H           -1.76813460795046       -3.34823356069560        0.81325088237902
H           -1.69749525054253       -3.35647221812542       -0.96500623685747
H           -2.88397884466245       -2.41032389033589       -0.12370581804460
H            1.09576255195065       -3.37985223438066       -0.00448414926097
25
 energy: 59.198116431494 xtb: 6.6.1 (8d0f1dd)
C            3.48759359713361        2.62396687309362        0.14659492979077
N            2.45948091900242       -0.42803314478144        0.05446770904505
C            2.49844801941158       -1.84402621719386        0.04511482879635
N            1.23288266810188       -2.45046586421954        0.00577596111506
C            0.34650124618471       -1.38524278041034       -0.01727764899826
C            1.07168164901436       -0.19941819749511        0.00531162597800
C            0.29079701111855        1.07694074334016       -0.00664845208806
O            0.70397854064711        2.17010846499377        0.00214861255199
N           -1.10970382194322        0.84453770802854       -0.03807413817140
C           -1.85515851565743        2.08360883969740       -0.03972103599647
C           -1.77854013841143       -0.35934367418119       -0.06411501211774
O           -3.00325364445382       -0.32878122850158       -0.09666138911631
N           -1.06417198835428       -1.52465004931132       -0.05781715549919
C           -1.86462906735158       -2.75421310927986       -0.08408597199378
H            3.97767053633848        2.91726745528507        1.07666208687030
H            4.02802133636149        2.81099933301217       -0.82358596803575
H            2.48941751162948        2.66137396342136        0.07927714509900
H            3.35219907284821       -2.49047280847026        0.04120273019492
H           -1.12983423972069        2.88151750479932       -0.03201433393224
H           -2.45172955278574        2.12432964394183       -0.93216247992275
H           -2.46156107426671        2.11954090977729        0.84732575920330
H           -1.75810081300168       -3.36357691414937        0.81830372863098
H           -1.68903611173169       -3.36860290742737       -0.96991810516092
H           -2.90788157908775       -2.41820165525233       -0.12398287019660
H            1.04714310691027       -3.41013428654483       -0.00908665989899
25
 energy: 47.304535302086 xtb: 6.6.1 (8d0f1dd)
C            3.59425959737586        2.83679660246280        0.14558087509370
N            2.43831026006611       -0.54355939878566        0.04791257456539
C            2.43958090749413       -1.90575861143973        0.03802065685346
N            1.18576455241832       -2.50554591451988       -0.00025040002747
C            0.30655446087812       -1.43524157886019       -0.01995924138778
C            1.06234114373114       -0.26971154750447        0.00420436497253
C            0.30771579279102        1.03818708060254       -0.00490647461508
O            0.76045582842778        2.10906520325581        0.00691418747414
N           -1.08949090138143        0.84006888421572       -0.03707681064675
C           -1.83856346149231        2.08041027766299       -0.03944083346063
C           -1.79083701080457       -0.36073478781278       -0.06411745869201
O           -3.01005407530651       -0.30338107455308       -0.09546563298972
N           -1.09537374978922       -1.54513642516961       -0.05826153555612
C           -1.89482569576910       -2.76780638628339       -0.08477556509424
H            4.05731219322173        3.10650234206428        1.08100139735577
H            4.11820874346996        2.96663268023462       -0.81199107330875
H            2.49881344269506        2.71071249950929        0.08992062287940
H            3.30160420633562       -2.53461163953854        0.03955719744414
H           -1.12891946286163        2.88638212138703       -0.03149504518817
H           -2.44168276297265        2.11983394924108       -0.93218437177202
H           -2.45264105258246        2.11459373049820        0.84616969088477
H           -1.77126012797280       -3.36417393903358        0.81502017117009
H           -1.70412553834907       -3.36900788531726       -0.96891991008069
H           -2.93467758882246       -2.43882542549707       -0.12382746794440
H            0.99374496713553       -3.47666215464703       -0.01459602178229
25
 energy: 35.601161962005 xtb: 6.6.1 (8d0f1dd)
C            3.68865069845667        3.01142601959457        0.13641075579666
N            2.35879883157776       -0.66833800841021        0.03360756426444
C            2.36425717255401       -1.93163381436379        0.02614009098805
N            1.13657989326176       -2.51979112003101       -0.00715821211191
C            0.24659380405427       -1.48594889587604       -0.02316400795674
C            1.01569064694902       -0.33492933584346        0.00299111290894
C            0.31416758900679        0.98090574738914       -0.00529472889349
O            0.80318952189667        2.05134576887105        0.01131006498655
N           -1.07200306524631        0.83131210472021       -0.03546119793065
C           -1.83931738892657        2.06663634503894       -0.03886393425556
C           -1.81777557169933       -0.35163101008009       -0.06376423067545
O           -3.01941787233438       -0.30137891079889       -0.09191875296885
N           -1.12326879839329       -1.55523771175269       -0.05717018090998
C           -1.91089484094334       -2.77446256760521       -0.08315246724021
H            4.13994528946314        3.24675875639610        1.07271366217161
H            4.23538633137756        3.06960300165157       -0.77309605630854
H            2.67388626525954        2.81295065074754        0.09785951230351
H            3.25726705844744       -2.54859425325716        0.03680903118702
H           -1.13092921346165        2.88507838444714       -0.02983998219994
H           -2.45845211029625        2.11296957381704       -0.93379514351957
H           -2.47328323214210        2.10767264741243        0.84526883899223
H           -1.75821027430229       -3.36370453449061        0.81372439851057
H           -1.69508374004077       -3.36631936968368       -0.96630602603198
H           -2.95413249979152       -2.46276368769862       -0.12012064160623
H            0.93057017320933       -3.52289717802213       -0.02069557335320
25