      -----------------------------------------------------------      
     |                   =====================                   |     
     |                           x T B                           |     
     |                   =====================                   |     
     |                         S. Grimme                         |     
     |          Mulliken Center for Theoretical Chemistry        |     
     |                    University of Bonn                     |     
      -----------------------------------------------------------      

   * xtb version 6.6.1 (8d0f1dd) compiled by 'conda@1efc2f54142f' on 2023-08-01

   xtb is free software: you can redistribute it and/or modify it under
   the terms of the GNU Lesser General Public License as published by
   the Free Software Foundation, either version 3 of the License, or
   (at your option) any later version.
   
   xtb is distributed in the hope that it will be useful,
   but WITHOUT ANY WARRANTY; without even the implied warranty of
   MERCHANTABILITY or FITNESS FOR A PARTICULAR PURPOSE.  See the
   GNU Lesser General Public License for more details.
   
   Cite this work as:
   * C. Bannwarth, E. Caldeweyher, S. Ehlert, A. Hansen, P. Pracht,
     J. Seibert, S. Spicher, S. Grimme, WIREs Comput. Mol. Sci., 2020, 11,
     e01493. DOI: 10.1002/wcms.1493
   
   for GFN2-xTB:
   * C. Bannwarth, S. Ehlert and S. Grimme., J. Chem. Theory Comput., 2019,
     15, 1652-1671. DOI: 10.1021/acs.jctc.8b01176
   for GFN1-xTB:
   * S. Grimme, C. Bannwarth, P. Shushkov, J. Chem. Theory Comput., 2017,
     13, 1989-2009. DOI: 10.1021/acs.jctc.7b00118
   for GFN0-xTB:
   * P. Pracht, E. Caldeweyher, S. Ehlert, S. Grimme, ChemRxiv, 2019, preprint.
     DOI: 10.26434/chemrxiv.8326202.v1
   for GFN-FF:
   * S. Spicher and S. Grimme, Angew. Chem. Int. Ed., 2020, 59, 15665-15673.
     DOI: 10.1002/anie.202004239
   
   for ALPB and GBSA implicit solvation:
   * S. Ehlert, M. Stahn, S. Spicher, S. Grimme, J. Chem. Theory Comput.,
     2021, 17, 4250-4261. DOI: 10.1021/acs.jctc.1c00471
   
   for DFT-D4:
   * E. Caldeweyher, C. Bannwarth and S. Grimme, J. Chem. Phys., 2017,
     147, 034112. DOI: 10.1063/1.4993215
   * E. Caldeweyher, S. Ehlert, A. Hansen, H. Neugebauer, S. Spicher,
     C. Bannwarth and S. Grimme, J. Chem. Phys., 2019, 150, 154122.
     DOI: 10.1063/1.5090222
   * E. Caldeweyher, J.-M. Mewes, S. Ehlert and S. Grimme, Phys. Chem. Chem. Phys.
     2020, 22, 8499-8512. DOI: 10.1039/D0CP00502A
   
   for sTDA-xTB:
   * S. Grimme and C. Bannwarth, J. Chem. Phys., 2016, 145, 054103.
     DOI: 10.1063/1.4959605
   
   in the mass-spec context:
   * V. Asgeirsson, C. Bauer and S. Grimme, Chem. Sci., 2017, 8, 4879.
     DOI: 10.1039/c7sc00601b
   * J. Koopman and S. Grimme, ACS Omega 2019, 4, 12, 15120-15133.
     DOI: 10.1021/acsomega.9b02011
   
   for metadynamics refer to:
   * S. Grimme, J. Chem. Theory Comput., 2019, 155, 2847-2862
     DOI: 10.1021/acs.jctc.9b00143
   
   for SPH calculations refer to:
   * S. Spicher and S. Grimme, J. Chem. Theory Comput., 2021, 17, 1701-1714
     DOI: 10.1021/acs.jctc.0c01306
   
   with help from (in alphabetical order)
   P. Atkinson, C. Bannwarth, F. Bohle, G. Brandenburg, E. Caldeweyher
   M. Checinski, S. Dohm, S. Ehlert, S. Ehrlich, I. Gerasimov, C. Hölzer
   A. Katbashev, J. Koopman, C. Lavigne, S. Lehtola, F. März, M. Müller,
   F. Musil, H. Neugebauer, J. Pisarek, C. Plett, P. Pracht, F. Pultar,
   J. Seibert, P. Shushkov, S. Spicher, M. Stahn, M. Steiner, T. Strunk,
   J. Stückrath, T. Rose, and J. Unsleber
   
 * started run on 2024/06/05 at 19:58:19.817     

           -------------------------------------------------
          |                Calculation Setup                |
           -------------------------------------------------

          program call               : xtb struc.xyz --opt loose --input .xc1 --gfn2
          hostname                   : n-62-11-68
          coordinate file            : struc.xyz
          omp threads                :                     1

   ID    Z sym.   atoms
    1    6 C      1, 3, 5-7, 10, 11, 14
    2    7 N      2, 4, 9, 13
    3    8 O      8, 12
    4    1 H      15-25
constraining bond 5 23 to    5.1400000 Å, actual value:    2.7817644 Å

           -------------------------------------------------
          |                 G F N 2 - x T B                 |
           -------------------------------------------------

        Reference                      10.1021/acs.jctc.8b01176
      * Hamiltonian:
        H0-scaling (s, p, d)           1.850000    2.230000    2.230000
        zeta-weighting                 0.500000
      * Dispersion:
        s8                             2.700000
        a1                             0.520000
        a2                             5.000000
        s9                             5.000000
      * Repulsion:
        kExp                           1.500000    1.000000
        rExp                           1.000000
      * Coulomb:
        alpha                          2.000000
        third order                    shell-resolved
        anisotropic                    true
        a3                             3.000000
        a5                             4.000000
        cn-shift                       1.200000
        cn-exp                         4.000000
        max-rad                        5.000000


          ...................................................
          :                      SETUP                      :
          :.................................................:
          :  # basis functions                  67          :
          :  # atomic orbitals                  67          :
          :  # shells                           39          :
          :  # electrons                        74          :
          :  max. iterations                   250          :
          :  Hamiltonian                  GFN2-xTB          :
          :  restarted?                      false          :
          :  GBSA solvation                  false          :
          :  PC potential                    false          :
          :  electronic temp.         5000.0000000     K    :
          :  accuracy                    1.0000000          :
          :  -> integral cutoff          0.2500000E+02      :
          :  -> integral neglect         0.1000000E-07      :
          :  -> SCF convergence          0.1000000E-05 Eh   :
          :  -> wf. convergence          0.1000000E-03 e    :
          :  Broyden damping             0.4000000          :
          ...................................................

 iter      E             dE          RMSdq      gap      omega  full diag
   1    -42.5894031 -0.425894E+02  0.445E+00    3.52       0.0  T
   2    -42.7683054 -0.178902E+00  0.251E+00    3.36       1.0  T
   3    -42.7759211 -0.761567E-02  0.147E+00    3.35       1.0  T
   4    -42.7728404  0.308066E-02  0.553E-01    3.33       1.0  T
   5    -42.7789548 -0.611444E-02  0.112E-01    3.35       1.0  T
   6    -42.7790473 -0.924914E-04  0.614E-02    3.33       1.0  T
   7    -42.7790721 -0.247928E-04  0.258E-02    3.34       1.0  T
   8    -42.7790772 -0.508996E-05  0.938E-03    3.34       2.1  T
   9    -42.7790779 -0.669422E-06  0.448E-03    3.34       4.5  T
  10    -42.7790780 -0.821510E-07  0.115E-03    3.34      17.4  T
  11    -42.7790780 -0.322663E-08  0.553E-04    3.34      36.2  T
  12    -42.7790780 -0.287051E-08  0.180E-04    3.34     111.1  T

   *** convergence criteria satisfied after 12 iterations ***

         #    Occupation            Energy/Eh            Energy/eV
      -------------------------------------------------------------
         1        2.0000           -0.9185990             -24.9964
       ...           ...                  ...                  ...
        31        1.9996           -0.6230278             -16.9534
        32        1.9995           -0.6194601             -16.8564
        33        1.9979           -0.5974976             -16.2587
        34        1.9932           -0.5789629             -15.7544
        35        1.9817           -0.5631863             -15.3251
        36        1.9779           -0.5602245             -15.2445
        37        1.9748           -0.5581234             -15.1873 (HOMO)
        38        0.0652           -0.4353579             -11.8467 (LUMO)
        39        0.0099           -0.4050467             -11.0219
        40        0.0013           -0.3732218             -10.1559
        41        0.0000           -0.2886859              -7.8555
        42                         -0.2065804              -5.6213
       ...                                ...                  ...
        67                          0.5625656              15.3082
      -------------------------------------------------------------
                  HL-Gap            0.1227656 Eh            3.3406 eV
             Fermi-level           -0.4890455 Eh          -13.3076 eV

 SCC (total)                   0 d,  0 h,  0 min,  0.033 sec
 SCC setup                      ...        0 min,  0.000 sec (  0.991%)
 Dispersion                     ...        0 min,  0.000 sec (  1.050%)
 classical contributions        ...        0 min,  0.000 sec (  0.308%)
 integral evaluation            ...        0 min,  0.005 sec ( 14.927%)
 iterations                     ...        0 min,  0.016 sec ( 47.512%)
 molecular gradient             ...        0 min,  0.011 sec ( 34.736%)
 printout                       ...        0 min,  0.000 sec (  0.447%)

         :::::::::::::::::::::::::::::::::::::::::::::::::::::
         ::                     SUMMARY                     ::
         :::::::::::::::::::::::::::::::::::::::::::::::::::::
         :: total energy             -32.318023255901 Eh    ::
         :: gradient norm              6.302912372178 Eh/a0 ::
         :: HOMO-LUMO gap              3.340621582928 eV    ::
         ::.................................................::
         :: SCC energy               -42.779077977399 Eh    ::
         :: -> isotropic ES            0.141123876439 Eh    ::
         :: -> anisotropic ES         -0.005230418907 Eh    ::
         :: -> anisotropic XC          0.011966818540 Eh    ::
         :: -> dispersion             -0.022657731803 Eh    ::
         :: repulsion energy           0.531105277918 Eh    ::
         :: add. restraining           9.929835284571 Eh    ::
         :: total charge               1.000000000002 e     ::
         :::::::::::::::::::::::::::::::::::::::::::::::::::::

      ----------------------------------------------------------- 
     |                   =====================                   |
     |                        A N C O P T                        |
     |                   =====================                   |
     |               Approximate Normal Coordinate               |
     |                Rational Function Optimizer                |
      ----------------------------------------------------------- 

          ...................................................
          :                      SETUP                      :
          :.................................................:
          :   optimization level             loose          :
          :   max. optcycles                   200          :
          :   ANC micro-cycles                  20          :
          :   degrees of freedom                69          :
          :.................................................:
          :   RF solver                   davidson          :
          :   write xtbopt.log                true          :
          :   linear?                        false          :
          :   energy convergence         0.5000000E-04 Eh   :
          :   grad. convergence          0.4000000E-02 Eh/α :
          :   maxmium RF displ.          1.0000000          :
          :   Hlow (freq-cutoff)         0.1000000E-01      :
          :   Hmax (freq-cutoff)         5.0000000          :
          :   S6 in model hess.         20.0000000          :
          ...................................................

generating ANC from model Hessian ...
Using Lindh-Hessian (1995)
 Shifting diagonal of input Hessian by    1.4188589591385963     
 Lowest  eigenvalues of input Hessian
    0.010000    0.250441    0.000000    0.000000    0.000000    0.000000
    0.000000    0.000000    1.422344    1.423829    1.427437    1.429120
    1.430230    1.432319    1.434836    1.439776    1.442051    1.457208
 Highest eigenvalues
    3.489662    3.565044    3.627077    3.817317    3.906592    4.603199


........................................................................
.............................. CYCLE    1 ..............................
........................................................................

 iter      E             dE          RMSdq      gap      omega  full diag
   1    -42.7790780 -0.427791E+02  0.626E-05    3.34       0.0  T
   2    -42.7790780 -0.124416E-10  0.329E-05    3.34     607.4  T
   3    -42.7790780  0.127898E-12  0.193E-05    3.34    1034.2  T
     SCC iter.                  ...        0 min,  0.004 sec
     gradient                   ...        0 min,  0.012 sec
 * total energy  :   -32.3180233 Eh     change       -0.6650680E-10 Eh
   gradient norm :     6.3029122 Eh/α   predicted     0.0000000E+00 (-100.00%)
   displ. norm   :     0.7352890 α      lambda       -0.4604610E+01
   maximum displ.:     0.5879000 α      in ANC's #69, #60, #50, ...

........................................................................
.............................. CYCLE    2 ..............................
........................................................................

 iter      E             dE          RMSdq      gap      omega  full diag
   1    -42.7327669 -0.427328E+02  0.991E-01    3.35       0.0  T
   2    -42.7396071 -0.684018E-02  0.590E-01    3.00       1.0  T
   3    -42.7405710 -0.963856E-03  0.307E-01    3.20       1.0  T
   4    -42.7407578 -0.186843E-03  0.648E-02    3.09       1.0  T
   5    -42.7408328 -0.749513E-04  0.228E-02    3.12       1.0  T
   6    -42.7408362 -0.341838E-05  0.115E-02    3.12       1.7  T
   7    -42.7408367 -0.545281E-06  0.240E-03    3.13       8.3  T
   8    -42.7408368 -0.955110E-07  0.898E-04    3.13      22.3  T
   9    -42.7408368 -0.170650E-08  0.397E-04    3.13      50.4  T
     SCC iter.                  ...        0 min,  0.011 sec
     gradient                   ...        0 min,  0.011 sec
 * total energy  :   -36.2932928 Eh     change       -0.3975270E+01 Eh
   gradient norm :     4.5352609 Eh/α   predicted    -0.3547322E+01 ( -10.77%)
   displ. norm   :     0.7858704 α      lambda       -0.3534859E+01
   maximum displ.:     0.5880437 α      in ANC's #69, #50, #60, ...

........................................................................
.............................. CYCLE    3 ..............................
........................................................................

 iter      E             dE          RMSdq      gap      omega  full diag
   1    -42.6196450 -0.426196E+02  0.945E-01    2.91       0.0  T
   2    -42.6252611 -0.561610E-02  0.661E-01    2.44       1.0  T
   3    -42.6276381 -0.237696E-02  0.327E-01    2.73       1.0  T
   4    -42.6279269 -0.288820E-03  0.103E-01    2.56       1.0  T
   5    -42.6281168 -0.189854E-03  0.269E-02    2.63       1.0  T
   6    -42.6281239 -0.712509E-05  0.140E-02    2.63       1.4  T
   7    -42.6281250 -0.109480E-05  0.357E-03    2.63       5.6  T
   8    -42.6281252 -0.164579E-06  0.905E-04    2.63      22.1  T
   9    -42.6281252 -0.147121E-08  0.419E-04    2.63      47.8  T
     SCC iter.                  ...        0 min,  0.011 sec
     gradient                   ...        0 min,  0.011 sec
 * total energy  :   -39.1496865 Eh     change       -0.2856394E+01 Eh
   gradient norm :     2.8251411 Eh/α   predicted    -0.2858984E+01 (   0.09%)
   displ. norm   :     0.7789776 α      lambda       -0.2153144E+01
   maximum displ.:     0.4171829 α      in ANC's #69, #50, #57, ...

........................................................................
.............................. CYCLE    4 ..............................
........................................................................

 iter      E             dE          RMSdq      gap      omega  full diag
   1    -42.4722588 -0.424723E+02  0.793E-01    2.03       0.0  T
   2    -42.4740805 -0.182176E-02  0.498E-01    2.05       1.0  T
   3    -42.4744205 -0.340008E-03  0.273E-01    2.07       1.0  T
   4    -42.4751056 -0.685037E-03  0.747E-02    2.06       1.0  T
   5    -42.4752073 -0.101770E-03  0.212E-02    2.08       1.0  T
   6    -42.4752127 -0.535101E-05  0.123E-02    2.07       1.6  T
   7    -42.4752132 -0.482414E-06  0.631E-03    2.08       3.2  T
   8    -42.4752142 -0.105323E-05  0.169E-03    2.08      11.8  T
   9    -42.4752143 -0.435535E-07  0.838E-04    2.08      23.9  T
  10    -42.4752143 -0.667101E-08  0.339E-04    2.08      59.0  T
     SCC iter.                  ...        0 min,  0.012 sec
     gradient                   ...        0 min,  0.012 sec
 * total energy  :   -40.8582550 Eh     change       -0.1708568E+01 Eh
   gradient norm :     1.6591623 Eh/α   predicted    -0.1729864E+01 (   1.25%)
   displ. norm   :     0.6621495 α      lambda       -0.1068058E+01
   maximum displ.:     0.3708377 α      in ANC's #69, #1, #50, ...

........................................................................
.............................. CYCLE    5 ..............................
........................................................................

 iter      E             dE          RMSdq      gap      omega  full diag
   1    -42.3420926 -0.423421E+02  0.106E+00    0.82       0.0  T
   2    -42.3214725  0.206201E-01  0.911E-01    1.60       1.0  T
   3    -42.3461792 -0.247067E-01  0.646E-01    0.87       1.0  T
   4    -42.3549224 -0.874324E-02  0.274E-01    1.18       1.0  T
   5    -42.3574063 -0.248390E-02  0.675E-02    1.13       1.0  T
   6    -42.3574818 -0.754430E-04  0.239E-02    1.13       1.0  T
   7    -42.3574862 -0.443953E-05  0.139E-02    1.13       1.4  T
   8    -42.3574880 -0.173969E-05  0.338E-03    1.13       5.9  T
   9    -42.3574882 -0.210685E-06  0.151E-03    1.13      13.2  T
  10    -42.3574882 -0.397245E-07  0.753E-04    1.13      26.5  T
  11    -42.3574882 -0.773274E-08  0.221E-04    1.13      90.5  T
     SCC iter.                  ...        0 min,  0.014 sec
     gradient                   ...        0 min,  0.011 sec
 * total energy  :   -41.6166602 Eh     change       -0.7584052E+00 Eh
   gradient norm :     0.6800115 Eh/α   predicted    -0.7681694E+00 (   1.29%)
   displ. norm   :     0.5329788 α      lambda       -0.3017321E+00
   maximum displ.:     0.3933142 α      in ANC's #1, #69, #40, ...

........................................................................
.............................. CYCLE    6 ..............................
........................................................................

 iter      E             dE          RMSdq      gap      omega  full diag
   1    -42.2545487 -0.422545E+02  0.115E+00    0.22       0.0  T
   2    -42.0965476  0.158001E+00  0.194E+00    1.39       1.0  T
   3    -42.2947190 -0.198171E+00  0.463E-01    0.56       1.0  T
   4    -42.2935615  0.115757E-02  0.314E-01    0.65       1.0  T
   5    -42.2960996 -0.253818E-02  0.137E-01    0.62       1.0  T
   6    -42.2964583 -0.358667E-03  0.427E-02    0.62       1.0  T
   7    -42.2964620 -0.363974E-05  0.308E-02    0.63       1.0  T
   8    -42.2964802 -0.182068E-04  0.170E-02    0.62       1.2  T
   9    -42.2964851 -0.497917E-05  0.568E-03    0.62       3.5  T
  10    -42.2964857 -0.538030E-06  0.324E-03    0.62       6.2  T
  11    -42.2964859 -0.198523E-06  0.157E-03    0.62      12.8  T
  12    -42.2964859 -0.540217E-07  0.351E-04    0.62      57.0  T
  13    -42.2964859 -0.158503E-08  0.847E-05    0.62     236.2  T
     SCC iter.                  ...        0 min,  0.016 sec
     gradient                   ...        0 min,  0.011 sec
 * total energy  :   -41.7965922 Eh     change       -0.1799319E+00 Eh
   gradient norm :     0.2063696 Eh/α   predicted    -0.1937230E+00 (   7.66%)
   displ. norm   :     0.3807077 α      lambda       -0.3493461E-01
   maximum displ.:     0.3647710 α      in ANC's #1, #40, #50, ...

........................................................................
.............................. CYCLE    7 ..............................
........................................................................

 iter      E             dE          RMSdq      gap      omega  full diag
   1    -42.2736541 -0.422737E+02  0.544E-01    0.26       0.0  T
   2    -42.2100116  0.636425E-01  0.125E+00    1.08       1.0  T
   3    -42.2852190 -0.752074E-01  0.319E-01    0.55       1.0  T
   4    -42.2838839  0.133505E-02  0.276E-01    0.59       1.0  T
   5    -42.2863543 -0.247038E-02  0.921E-02    0.48       1.0  T
   6    -42.2865379 -0.183542E-03  0.306E-02    0.49       1.0  T
   7    -42.2865459 -0.804795E-05  0.216E-02    0.49       1.0  T
   8    -42.2865463 -0.336011E-06  0.148E-02    0.49       1.4  T
   9    -42.2865503 -0.400686E-05  0.498E-03    0.49       4.0  T
  10    -42.2865508 -0.565640E-06  0.264E-03    0.48       7.6  T
  11    -42.2865510 -0.153145E-06  0.116E-03    0.48      17.2  T
  12    -42.2865510 -0.269705E-07  0.247E-04    0.49      80.9  T
  13    -42.2865510 -0.176566E-08  0.742E-05    0.49     269.6  T
     SCC iter.                  ...        0 min,  0.016 sec
     gradient                   ...        0 min,  0.011 sec
 * total energy  :   -41.8203518 Eh     change       -0.2375965E-01 Eh
   gradient norm :     0.1995845 Eh/α   predicted    -0.2000214E-01 ( -15.81%)
   displ. norm   :     0.4757351 α      lambda       -0.6163081E-01
   maximum displ.:     0.2112407 α      in ANC's #40, #1, #48, ...

........................................................................
.............................. CYCLE    8 ..............................
........................................................................

 iter      E             dE          RMSdq      gap      omega  full diag
   1    -42.3292170 -0.423292E+02  0.871E-01    0.48       0.0  T
   2    -42.3078228  0.213942E-01  0.108E+00    0.55       1.0  T
   3    -42.3397513 -0.319285E-01  0.436E-01    0.43       1.0  T
   4    -42.3403075 -0.556158E-03  0.248E-01    0.54       1.0  T
   5    -42.3367856  0.352185E-02  0.319E-01    0.32       1.0  T
   6    -42.3421273 -0.534167E-02  0.327E-02    0.47       1.0  T
   7    -42.3421414 -0.140871E-04  0.187E-02    0.46       1.1  T
   8    -42.3421424 -0.103503E-05  0.104E-02    0.47       1.9  T
   9    -42.3421440 -0.159130E-05  0.379E-03    0.47       5.3  T
  10    -42.3421444 -0.408686E-06  0.150E-03    0.47      13.4  T
  11    -42.3421445 -0.387830E-07  0.622E-04    0.47      32.2  T
  12    -42.3421445 -0.330373E-08  0.206E-04    0.47      97.1  T
     SCC iter.                  ...        0 min,  0.015 sec
     gradient                   ...        0 min,  0.011 sec
 * total energy  :   -41.8637155 Eh     change       -0.4336371E-01 Eh
   gradient norm :     0.3264653 Eh/α   predicted    -0.3778979E-01 ( -12.85%)
   displ. norm   :     0.4786588 α      lambda       -0.7251324E-01
   maximum displ.:     0.2074504 α      in ANC's #40, #50, #48, ...

........................................................................
.............................. CYCLE    9 ..............................
........................................................................

 iter      E             dE          RMSdq      gap      omega  full diag
   1    -42.3721042 -0.423721E+02  0.104E+00    0.36       0.0  T
   2    -42.3350666  0.370376E-01  0.142E+00    0.55       1.0  T
   3    -42.3941398 -0.590732E-01  0.436E-01    0.30       1.0  T
   4    -42.3937203  0.419575E-03  0.314E-01    0.46       1.0  T
   5    -42.3888841  0.483617E-02  0.404E-01    0.19       1.0  T
   6    -42.3964409 -0.755682E-02  0.382E-02    0.36       1.0  T
   7    -42.3964684 -0.274861E-04  0.176E-02    0.35       1.1  T
   8    -42.3964716 -0.317884E-05  0.113E-02    0.35       1.8  T
   9    -42.3964731 -0.152990E-05  0.401E-03    0.35       5.0  T
  10    -42.3964735 -0.357051E-06  0.150E-03    0.35      13.3  T
  11    -42.3964735 -0.299045E-07  0.740E-04    0.35      27.0  T
  12    -42.3964735 -0.428710E-08  0.221E-04    0.35      90.6  T
     SCC iter.                  ...        0 min,  0.015 sec
     gradient                   ...        0 min,  0.011 sec
 * total energy  :   -41.9156875 Eh     change       -0.5197201E-01 Eh
   gradient norm :     0.2809650 Eh/α   predicted    -0.4456365E-01 ( -14.25%)
   displ. norm   :     0.4327218 α      lambda       -0.5238199E-01
   maximum displ.:     0.2535431 α      in ANC's #1, #40, #50, ...

........................................................................
.............................. CYCLE   10 ..............................
........................................................................

 iter      E             dE          RMSdq      gap      omega  full diag
   1    -42.4420381 -0.424420E+02  0.908E-01    0.66       0.0  T
   2    -42.3914262  0.506119E-01  0.135E+00    0.36       1.0  T
   3    -42.4527459 -0.613197E-01  0.447E-01    0.55       1.0  T
   4    -42.4541403 -0.139434E-02  0.287E-01    0.33       1.0  T
   5    -42.4557490 -0.160869E-02  0.183E-01    0.45       1.0  T
   6    -42.4568960 -0.114706E-02  0.367E-02    0.41       1.0  T
   7    -42.4569233 -0.272677E-04  0.143E-02    0.41       1.4  T
   8    -42.4569240 -0.754063E-06  0.547E-03    0.41       3.7  T
   9    -42.4569245 -0.444540E-06  0.152E-03    0.41      13.2  T
  10    -42.4569245 -0.347812E-07  0.779E-04    0.41      25.7  T
  11    -42.4569245 -0.551413E-08  0.414E-04    0.41      48.3  T
     SCC iter.                  ...        0 min,  0.014 sec
     gradient                   ...        0 min,  0.011 sec
 * total energy  :   -41.9523014 Eh     change       -0.3661385E-01 Eh
   gradient norm :     0.2457273 Eh/α   predicted    -0.3109574E-01 ( -15.07%)
   displ. norm   :     0.3190678 α      lambda       -0.3966267E-01
   maximum displ.:     0.1921440 α      in ANC's #1, #69, #47, ...

........................................................................
.............................. CYCLE   11 ..............................
........................................................................

 iter      E             dE          RMSdq      gap      omega  full diag
   1    -42.4925380 -0.424925E+02  0.633E-01    0.56       0.0  T
   2    -42.4736234  0.189146E-01  0.763E-01    0.29       1.0  T
   3    -42.4943934 -0.207700E-01  0.394E-01    0.58       1.0  T
   4    -42.4973504 -0.295701E-02  0.251E-01    0.45       1.0  T
   5    -42.4982026 -0.852133E-03  0.108E-01    0.47       1.0  T
   6    -42.4985328 -0.330234E-03  0.275E-02    0.46       1.0  T
   7    -42.4985496 -0.168416E-04  0.908E-03    0.46       2.2  T
   8    -42.4985496  0.497601E-07  0.344E-03    0.46       5.8  T
   9    -42.4985498 -0.188408E-06  0.132E-03    0.46      15.2  T
  10    -42.4985498 -0.280064E-07  0.530E-04    0.46      37.7  T
  11    -42.4985498 -0.200568E-08  0.205E-04    0.46      97.7  T
     SCC iter.                  ...        0 min,  0.013 sec
     gradient                   ...        0 min,  0.011 sec
 * total energy  :   -41.9848783 Eh     change       -0.3257696E-01 Eh
   gradient norm :     0.2274671 Eh/α   predicted    -0.2185034E-01 ( -32.93%)
   displ. norm   :     0.6338005 α      lambda       -0.6526639E-01
   maximum displ.:     0.4303586 α      in ANC's #1, #47, #40, ...

........................................................................
.............................. CYCLE   12 ..............................
........................................................................

 iter      E             dE          RMSdq      gap      omega  full diag
   1    -42.5433226 -0.425433E+02  0.870E-01    0.39       0.0  T
   2    -42.5355154  0.780716E-02  0.793E-01    0.46       1.0  T
   3    -42.5448488 -0.933337E-02  0.536E-01    0.38       1.0  T
   4    -42.5452377 -0.388884E-03  0.397E-01    0.51       1.0  T
   5    -42.5491533 -0.391559E-02  0.137E-01    0.38       1.0  T
   6    -42.5498705 -0.717198E-03  0.381E-02    0.40       1.0  T
   7    -42.5498949 -0.244247E-04  0.154E-02    0.40       1.3  T
   8    -42.5498964 -0.148671E-05  0.566E-03    0.40       3.5  T
   9    -42.5498971 -0.706682E-06  0.150E-03    0.40      13.3  T
  10    -42.5498971 -0.196120E-07  0.739E-04    0.40      27.1  T
  11    -42.5498971 -0.457452E-08  0.216E-04    0.40      92.4  T
     SCC iter.                  ...        0 min,  0.014 sec
     gradient                   ...        0 min,  0.011 sec
 * total energy  :   -42.0386692 Eh     change       -0.5379083E-01 Eh
   gradient norm :     0.2009193 Eh/α   predicted    -0.4574249E-01 ( -14.96%)
   displ. norm   :     0.6477710 α      lambda       -0.5010404E-01
   maximum displ.:     0.5046875 α      in ANC's #1, #55, #60, ...

........................................................................
.............................. CYCLE   13 ..............................
........................................................................

 iter      E             dE          RMSdq      gap      omega  full diag
   1    -42.5595959 -0.425596E+02  0.650E-01    0.31       0.0  T
   2    -42.5290649  0.305310E-01  0.119E+00    0.70       1.0  T
   3    -42.5648616 -0.357966E-01  0.271E-01    0.28       1.0  T
   4    -42.5653536 -0.492032E-03  0.136E-01    0.30       1.0  T
   5    -42.5656859 -0.332299E-03  0.319E-02    0.29       1.0  T
   6    -42.5656986 -0.126640E-04  0.185E-02    0.29       1.1  T
   7    -42.5657025 -0.394272E-05  0.116E-02    0.29       1.7  T
   8    -42.5657055 -0.295535E-05  0.309E-03    0.29       6.5  T
   9    -42.5657057 -0.213429E-06  0.104E-03    0.29      19.2  T
  10    -42.5657057 -0.971806E-08  0.541E-04    0.29      36.9  T
  11    -42.5657057 -0.353744E-08  0.137E-04    0.29     146.5  T
     SCC iter.                  ...        0 min,  0.014 sec
     gradient                   ...        0 min,  0.011 sec
 * total energy  :   -42.0665864 Eh     change       -0.2791725E-01 Eh
   gradient norm :     0.1178141 Eh/α   predicted    -0.3556405E-01 (  27.39%)
   displ. norm   :     0.1188482 α      lambda       -0.8395378E-02
   maximum displ.:     0.0555739 α      in ANC's #2, #40, #36, ...

........................................................................
.............................. CYCLE   14 ..............................
........................................................................

 iter      E             dE          RMSdq      gap      omega  full diag
   1    -42.5726267 -0.425726E+02  0.218E-01    0.29       0.0  T
   2    -42.5727010 -0.742440E-04  0.176E-01    0.30       1.0  T
   3    -42.5726101  0.908886E-04  0.155E-01    0.29       1.0  T
   4    -42.5729047 -0.294675E-03  0.104E-01    0.31       1.0  T
   5    -42.5730459 -0.141114E-03  0.577E-02    0.29       1.0  T
   6    -42.5731522 -0.106390E-03  0.525E-03    0.29       3.8  T
   7    -42.5731527 -0.439199E-06  0.311E-03    0.29       6.4  T
   8    -42.5731528 -0.999706E-07  0.139E-03    0.29      14.4  T
   9    -42.5731528 -0.325978E-07  0.313E-04    0.29      63.9  T
  10    -42.5731528 -0.356636E-09  0.130E-04    0.29     153.7  T
     SCC iter.                  ...        0 min,  0.012 sec
     gradient                   ...        0 min,  0.011 sec
 * total energy  :   -42.0726603 Eh     change       -0.6073923E-02 Eh
   gradient norm :     0.0855492 Eh/α   predicted    -0.4257290E-02 ( -29.91%)
   displ. norm   :     0.1745695 α      lambda       -0.9893903E-02
   maximum displ.:     0.0968703 α      in ANC's #2, #1, #33, ...

........................................................................
.............................. CYCLE   15 ..............................
........................................................................

 iter      E             dE          RMSdq      gap      omega  full diag
   1    -42.5791049 -0.425791E+02  0.227E-01    0.27       0.0  T
   2    -42.5797102 -0.605313E-03  0.135E-01    0.28       1.0  T
   3    -42.5798092 -0.989166E-04  0.764E-02    0.27       1.0  T
   4    -42.5797920  0.171186E-04  0.484E-02    0.27       1.0  T
   5    -42.5798124 -0.203564E-04  0.362E-02    0.28       1.0  T
   6    -42.5798431 -0.306563E-04  0.108E-02    0.27       1.9  T
   7    -42.5798462 -0.316455E-05  0.416E-03    0.28       4.8  T
   8    -42.5798466 -0.347100E-06  0.171E-03    0.27      11.7  T
   9    -42.5798466 -0.393789E-07  0.631E-04    0.27      31.7  T
  10    -42.5798466 -0.619544E-08  0.203E-04    0.27      98.5  T
     SCC iter.                  ...        0 min,  0.012 sec
     gradient                   ...        0 min,  0.011 sec
 * total energy  :   -42.0795358 Eh     change       -0.6875464E-02 Eh
   gradient norm :     0.0709282 Eh/α   predicted    -0.5098568E-02 ( -25.84%)
   displ. norm   :     0.1407993 α      lambda       -0.6350966E-02
   maximum displ.:     0.0506516 α      in ANC's #33, #2, #18, ...

........................................................................
.............................. CYCLE   16 ..............................
........................................................................

 iter      E             dE          RMSdq      gap      omega  full diag
   1    -42.5870837 -0.425871E+02  0.164E-01    0.26       0.0  T
   2    -42.5867001  0.383539E-03  0.193E-01    0.24       1.0  T
   3    -42.5872837 -0.583545E-03  0.116E-01    0.27       1.0  T
   4    -42.5875099 -0.226240E-03  0.536E-02    0.24       1.0  T
   5    -42.5875189 -0.893516E-05  0.319E-02    0.25       1.0  T
   6    -42.5875523 -0.334780E-04  0.104E-02    0.25       1.9  T
   7    -42.5875557 -0.335093E-05  0.251E-03    0.25       8.0  T
   8    -42.5875557 -0.437622E-07  0.111E-03    0.25      18.0  T
   9    -42.5875558 -0.121992E-07  0.401E-04    0.25      49.8  T
  10    -42.5875558 -0.263550E-08  0.122E-04    0.25     163.9  T
     SCC iter.                  ...        0 min,  0.012 sec
     gradient                   ...        0 min,  0.011 sec
 * total energy  :   -42.0842693 Eh     change       -0.4733539E-02 Eh
   gradient norm :     0.0732328 Eh/α   predicted    -0.3238502E-02 ( -31.58%)
   displ. norm   :     0.1752216 α      lambda       -0.6810620E-02
   maximum displ.:     0.0724362 α      in ANC's #33, #18, #36, ...

........................................................................
.............................. CYCLE   17 ..............................
........................................................................

 iter      E             dE          RMSdq      gap      omega  full diag
   1    -42.5992506 -0.425993E+02  0.187E-01    0.24       0.0  T
   2    -42.5984138  0.836805E-03  0.240E-01    0.22       1.0  T
   3    -42.5994936 -0.107983E-02  0.113E-01    0.24       1.0  T
   4    -42.5996480 -0.154354E-03  0.576E-02    0.22       1.0  T
   5    -42.5996637 -0.156956E-04  0.319E-02    0.23       1.0  T
   6    -42.5996991 -0.354476E-04  0.889E-03    0.22       2.2  T
   7    -42.5997015 -0.239907E-05  0.331E-03    0.22       6.0  T
   8    -42.5997016 -0.896374E-07  0.107E-03    0.22      18.7  T
   9    -42.5997016 -0.221744E-07  0.274E-04    0.22      73.1  T
  10    -42.5997016 -0.130282E-08  0.129E-04    0.22     155.3  T
     SCC iter.                  ...        0 min,  0.012 sec
     gradient                   ...        0 min,  0.012 sec
 * total energy  :   -42.0890418 Eh     change       -0.4772459E-02 Eh
   gradient norm :     0.0698172 Eh/α   predicted    -0.3510338E-02 ( -26.45%)
   displ. norm   :     0.1484847 α      lambda       -0.4421751E-02
   maximum displ.:     0.0593247 α      in ANC's #33, #18, #36, ...

........................................................................
.............................. CYCLE   18 ..............................
........................................................................

 iter      E             dE          RMSdq      gap      omega  full diag
   1    -42.6107175 -0.426107E+02  0.141E-01    0.23       0.0  T
   2    -42.6102728  0.444766E-03  0.168E-01    0.20       1.0  T
   3    -42.6107646 -0.491795E-03  0.885E-02    0.23       1.0  T
   4    -42.6108700 -0.105407E-03  0.362E-02    0.21       1.0  T
   5    -42.6108717 -0.173170E-05  0.204E-02    0.21       1.0  T
   6    -42.6108890 -0.173025E-04  0.588E-03    0.21       3.4  T
   7    -42.6108895 -0.530300E-06  0.283E-03    0.21       7.1  T
   8    -42.6108896 -0.863609E-07  0.858E-04    0.21      23.3  T
   9    -42.6108896 -0.125812E-07  0.159E-04    0.21     125.6  T
     SCC iter.                  ...        0 min,  0.011 sec
     gradient                   ...        0 min,  0.011 sec
 * total energy  :   -42.0921812 Eh     change       -0.3139419E-02 Eh
   gradient norm :     0.0596623 Eh/α   predicted    -0.2259646E-02 ( -28.02%)
   displ. norm   :     0.1275795 α      lambda       -0.3234897E-02
   maximum displ.:     0.0671630 α      in ANC's #1, #33, #18, ...

........................................................................
.............................. CYCLE   19 ..............................
........................................................................

 iter      E             dE          RMSdq      gap      omega  full diag
   1    -42.6201546 -0.426202E+02  0.121E-01    0.22       0.0  T
   2    -42.6201830 -0.284195E-04  0.890E-02    0.21       1.0  T
   3    -42.6202695 -0.864589E-04  0.594E-02    0.22       1.0  T
   4    -42.6202391  0.304080E-04  0.653E-02    0.20       1.0  T
   5    -42.6203285 -0.894444E-04  0.243E-02    0.22       1.0  T
   6    -42.6203450 -0.164945E-04  0.624E-03    0.21       3.2  T
   7    -42.6203457 -0.703206E-06  0.226E-03    0.21       8.8  T
   8    -42.6203457 -0.371132E-07  0.115E-03    0.21      17.4  T
   9    -42.6203458 -0.173160E-07  0.130E-04    0.21     154.2  T
  10    -42.6203458 -0.105494E-09  0.681E-05    0.21     293.9  T
     SCC iter.                  ...        0 min,  0.012 sec
     gradient                   ...        0 min,  0.011 sec
 * total energy  :   -42.0944317 Eh     change       -0.2250467E-02 Eh
   gradient norm :     0.0418547 Eh/α   predicted    -0.1643902E-02 ( -26.95%)
   displ. norm   :     0.0949271 α      lambda       -0.1873672E-02
   maximum displ.:     0.0624266 α      in ANC's #1, #18, #33, ...

........................................................................
.............................. CYCLE   20 ..............................
........................................................................

 iter      E             dE          RMSdq      gap      omega  full diag
   1    -42.6255785 -0.426256E+02  0.105E-01    0.21       0.0  T
   2    -42.6255003  0.781539E-04  0.101E-01    0.22       1.0  T
   3    -42.6256385 -0.138164E-03  0.743E-02    0.21       1.0  T
   4    -42.6257185 -0.799894E-04  0.365E-02    0.22       1.0  T
   5    -42.6257422 -0.237570E-04  0.189E-02    0.21       1.1  T
   6    -42.6257527 -0.104470E-04  0.377E-03    0.21       5.3  T
   7    -42.6257530 -0.300350E-06  0.135E-03    0.21      14.8  T
   8    -42.6257530 -0.150403E-07  0.639E-04    0.21      31.3  T
   9    -42.6257530 -0.239746E-08  0.133E-04    0.21     149.9  T
     SCC iter.                  ...        0 min,  0.011 sec
     gradient                   ...        0 min,  0.011 sec
 * total energy  :   -42.0957241 Eh     change       -0.1292462E-02 Eh
   gradient norm :     0.0318143 Eh/α   predicted    -0.9453603E-03 ( -26.86%)
   displ. norm   :     0.0728458 α      lambda       -0.1135588E-02
   maximum displ.:     0.0337026 α      in ANC's #1, #2, #18, ...
 * RMSD in coord.:     0.8769160 α      energy gain  -0.9777701E+01 Eh

generating ANC from model Hessian ...
Using Lindh-Hessian (1995)
 Shifting diagonal of input Hessian by    1.0548380481260004E-002
 Lowest  eigenvalues of input Hessian
    0.010000    0.010110    0.000000    0.000000    0.000000    0.000000
    0.000000    0.000000    0.013458    0.014551    0.017154    0.019537
    0.021294    0.023847    0.024795    0.026508    0.029246    0.035433
 Highest eigenvalues
    2.123075    2.185001    2.208369    2.430487    2.519149    3.166689


........................................................................
.............................. CYCLE   21 ..............................
........................................................................

 iter      E             dE          RMSdq      gap      omega  full diag
   1    -42.6271663 -0.426272E+02  0.855E-02    0.21       0.0  T
   2    -42.6269968  0.169498E-03  0.102E-01    0.23       1.0  T
   3    -42.6271673 -0.170494E-03  0.594E-02    0.21       1.0  T
   4    -42.6272206 -0.533298E-04  0.262E-02    0.22       1.0  T
   5    -42.6272349 -0.143044E-04  0.118E-02    0.21       1.7  T
   6    -42.6272394 -0.453663E-05  0.183E-03    0.21      11.0  T
   7    -42.6272395 -0.453250E-07  0.990E-04    0.21      20.2  T
   8    -42.6272395 -0.480681E-08  0.392E-04    0.21      51.0  T
     SCC iter.                  ...        0 min,  0.010 sec
     gradient                   ...        0 min,  0.011 sec
 * total energy  :   -42.0965425 Eh     change       -0.8184004E-03 Eh
   gradient norm :     0.0287766 Eh/α   predicted     0.0000000E+00 (-100.00%)
   displ. norm   :     0.2980835 α      lambda       -0.4077120E-02
   maximum displ.:     0.1746671 α      in ANC's #10, #6, #8, ...

........................................................................
.............................. CYCLE   22 ..............................
........................................................................

 iter      E             dE          RMSdq      gap      omega  full diag
   1    -42.6222593 -0.426223E+02  0.237E-01    0.21       0.0  T
   2    -42.6222548  0.452252E-05  0.137E-01    0.21       1.0  T
   3    -42.6214817  0.773113E-03  0.195E-01    0.24       1.0  T
   4    -42.6221813 -0.699626E-03  0.665E-02    0.20       1.0  T
   5    -42.6223277 -0.146412E-03  0.212E-02    0.22       1.0  T
   6    -42.6223417 -0.140269E-04  0.549E-03    0.21       3.6  T
   7    -42.6223421 -0.408156E-06  0.289E-03    0.21       6.9  T
   8    -42.6223422 -0.107583E-06  0.899E-04    0.21      22.2  T
   9    -42.6223422 -0.115802E-07  0.165E-04    0.21     121.2  T
     SCC iter.                  ...        0 min,  0.011 sec
     gradient                   ...        0 min,  0.011 sec
 * total energy  :   -42.0997258 Eh     change       -0.3183305E-02 Eh
   gradient norm :     0.0139123 Eh/α   predicted    -0.2220080E-02 ( -30.26%)
   displ. norm   :     0.4469635 α      lambda       -0.3401518E-02
   maximum displ.:     0.2648928 α      in ANC's #10, #6, #8, ...

........................................................................
.............................. CYCLE   23 ..............................
........................................................................

 iter      E             dE          RMSdq      gap      omega  full diag
   1    -42.6160609 -0.426161E+02  0.348E-01    0.21       0.0  T
   2    -42.6158357  0.225172E-03  0.210E-01    0.20       1.0  T
   3    -42.6130671  0.276859E-02  0.377E-01    0.30       1.0  T
   4    -42.6159272 -0.286008E-02  0.837E-02    0.20       1.0  T
   5    -42.6162019 -0.274672E-03  0.231E-02    0.22       1.0  T
   6    -42.6162160 -0.141417E-04  0.798E-03    0.21       2.5  T
   7    -42.6162169 -0.873691E-06  0.407E-03    0.21       4.9  T
   8    -42.6162171 -0.225481E-06  0.102E-03    0.21      19.7  T
   9    -42.6162171 -0.165383E-07  0.219E-04    0.21      91.2  T
  10    -42.6162171 -0.211564E-09  0.114E-04    0.21     175.9  T
     SCC iter.                  ...        0 min,  0.012 sec
     gradient                   ...        0 min,  0.011 sec
 * total energy  :   -42.1016467 Eh     change       -0.1920823E-02 Eh
   gradient norm :     0.0194969 Eh/α   predicted    -0.2040531E-02 (   6.23%)
   displ. norm   :     0.1263938 α      lambda       -0.7424919E-03
   maximum displ.:     0.0804528 α      in ANC's #6, #10, #5, ...

........................................................................
.............................. CYCLE   24 ..............................
........................................................................

 iter      E             dE          RMSdq      gap      omega  full diag
   1    -42.6200597 -0.426201E+02  0.684E-02    0.21       0.0  T
   2    -42.6200616 -0.190504E-05  0.398E-02    0.21       1.0  T
   3    -42.6200418  0.197980E-04  0.246E-02    0.21       1.0  T
   4    -42.6200583 -0.165106E-04  0.127E-02    0.21       1.6  T
   5    -42.6200621 -0.380023E-05  0.732E-03    0.21       2.7  T
   6    -42.6200633 -0.124645E-05  0.136E-03    0.21      14.7  T
   7    -42.6200634 -0.208257E-07  0.646E-04    0.21      30.9  T
   8    -42.6200634 -0.435523E-08  0.111E-04    0.21     180.5  T
     SCC iter.                  ...        0 min,  0.010 sec
     gradient                   ...        0 min,  0.012 sec
 * total energy  :   -42.1022249 Eh     change       -0.5781956E-03 Eh
   gradient norm :     0.0115855 Eh/α   predicted    -0.3771773E-03 ( -34.77%)
   displ. norm   :     0.1961745 α      lambda       -0.7057814E-03
   maximum displ.:     0.1046074 α      in ANC's #6, #5, #10, ...

........................................................................
.............................. CYCLE   25 ..............................
........................................................................

 iter      E             dE          RMSdq      gap      omega  full diag
   1    -42.6252266 -0.426252E+02  0.129E-01    0.21       0.0  T
   2    -42.6252160  0.106368E-04  0.778E-02    0.21       1.0  T
   3    -42.6248167  0.399275E-03  0.128E-01    0.24       1.0  T
   4    -42.6252233 -0.406564E-03  0.182E-02    0.21       1.1  T
   5    -42.6252337 -0.104225E-04  0.453E-03    0.21       4.4  T
   6    -42.6252344 -0.706010E-06  0.143E-03    0.21      14.0  T
   7    -42.6252344 -0.299156E-07  0.699E-04    0.21      28.6  T
   8    -42.6252344 -0.379272E-08  0.242E-04    0.21      82.5  T
     SCC iter.                  ...        0 min,  0.010 sec
     gradient                   ...        0 min,  0.011 sec
 * total energy  :   -42.1026680 Eh     change       -0.4431097E-03 Eh
   gradient norm :     0.0048744 Eh/α   predicted    -0.3664951E-03 ( -17.29%)
   displ. norm   :     0.1127812 α      lambda       -0.1748082E-03
   maximum displ.:     0.0618481 α      in ANC's #5, #8, #9, ...

........................................................................
.............................. CYCLE   26 ..............................
........................................................................

 iter      E             dE          RMSdq      gap      omega  full diag
   1    -42.6265283 -0.426265E+02  0.843E-02    0.21       0.0  T
   2    -42.6265205  0.780465E-05  0.511E-02    0.21       1.0  T
   3    -42.6263054  0.215162E-03  0.942E-02    0.23       1.0  T
   4    -42.6265293 -0.223950E-03  0.678E-03    0.21       3.0  T
   5    -42.6265307 -0.137971E-05  0.211E-03    0.21       9.5  T
   6    -42.6265309 -0.157019E-06  0.557E-04    0.21      35.9  T
   7    -42.6265309 -0.325728E-08  0.308E-04    0.21      64.9  T
     SCC iter.                  ...        0 min,  0.009 sec
     gradient                   ...        0 min,  0.011 sec
 * total energy  :   -42.1028010 Eh     change       -0.1329971E-03 Eh
   gradient norm :     0.0041317 Eh/α   predicted    -0.8851709E-04 ( -33.44%)
   displ. norm   :     0.1531439 α      lambda       -0.1952507E-03
   maximum displ.:     0.0923853 α      in ANC's #5, #8, #9, ...

........................................................................
.............................. CYCLE   27 ..............................
........................................................................

 iter      E             dE          RMSdq      gap      omega  full diag
   1    -42.6275040 -0.426275E+02  0.107E-01    0.21       0.0  T
   2    -42.6274998  0.429149E-05  0.635E-02    0.21       1.0  T
   3    -42.6272561  0.243646E-03  0.969E-02    0.23       1.0  T
   4    -42.6275063 -0.250169E-03  0.423E-03    0.21       4.7  T
   5    -42.6275066 -0.344216E-06  0.174E-03    0.21      11.5  T
   6    -42.6275067 -0.537138E-07  0.770E-04    0.21      26.0  T
   7    -42.6275067 -0.138839E-08  0.406E-04    0.21      49.2  T
     SCC iter.                  ...        0 min,  0.009 sec
     gradient                   ...        0 min,  0.011 sec
 * total energy  :   -42.1029341 Eh     change       -0.1331511E-03 Eh
   gradient norm :     0.0035779 Eh/α   predicted    -0.9991596E-04 ( -24.96%)
   displ. norm   :     0.1224712 α      lambda       -0.9063444E-04
   maximum displ.:     0.0737779 α      in ANC's #5, #8, #1, ...

........................................................................
.............................. CYCLE   28 ..............................
........................................................................

 iter      E             dE          RMSdq      gap      omega  full diag
   1    -42.6265414 -0.426265E+02  0.783E-02    0.21       0.0  T
   2    -42.6265412  0.221713E-06  0.458E-02    0.21       1.0  T
   3    -42.6265026  0.385656E-04  0.397E-02    0.22       1.0  T
   4    -42.6265412 -0.386082E-04  0.522E-03    0.21       3.8  T
   5    -42.6265421 -0.905718E-06  0.166E-03    0.21      12.1  T
   6    -42.6265422 -0.835030E-07  0.621E-04    0.21      32.2  T
   7    -42.6265422 -0.249586E-08  0.285E-04    0.21      70.2  T
     SCC iter.                  ...        0 min,  0.009 sec
     gradient                   ...        0 min,  0.011 sec
 * total energy  :   -42.1029935 Eh     change       -0.5941933E-04 Eh
   gradient norm :     0.0036901 Eh/α   predicted    -0.4599766E-04 ( -22.59%)
   displ. norm   :     0.0890038 α      lambda       -0.5898133E-04
   maximum displ.:     0.0486520 α      in ANC's #1, #5, #6, ...

........................................................................
.............................. CYCLE   29 ..............................
........................................................................

 iter      E             dE          RMSdq      gap      omega  full diag
   1    -42.6268581 -0.426269E+02  0.380E-02    0.21       0.0  T
   2    -42.6268524  0.573376E-05  0.270E-02    0.22       1.0  T
   3    -42.6268163  0.360921E-04  0.428E-02    0.21       1.0  T
   4    -42.6268588 -0.424923E-04  0.552E-03    0.22       3.6  T
   5    -42.6268597 -0.871138E-06  0.224E-03    0.22       8.9  T
   6    -42.6268598 -0.134150E-06  0.942E-04    0.22      21.2  T
   7    -42.6268598 -0.826255E-08  0.372E-04    0.22      53.8  T
     SCC iter.                  ...        0 min,  0.009 sec
     gradient                   ...        0 min,  0.011 sec
 * total energy  :   -42.1030177 Eh     change       -0.2411752E-04 Eh
   gradient norm :     0.0034261 Eh/α   predicted    -0.2978643E-04 (  23.51%)
   displ. norm   :     0.0596940 α      lambda       -0.3352314E-04
   maximum displ.:     0.0354028 α      in ANC's #5, #1, #8, ...

   *** GEOMETRY OPTIMIZATION CONVERGED AFTER 29 ITERATIONS ***

------------------------------------------------------------------------
 total energy gain   :        -9.7849944 Eh    -6140.1767 kcal/mol
 total RMSD          :         0.9298474 a0        0.4921 Å
 total power (kW/mol):      -885.8792862 (step)********** (real)
------------------------------------------------------------------------

 ANCopt (total)                0 d,  0 h,  0 min,  0.830 sec
 optimizer setup                ...        0 min,  0.000 sec (  0.040%)
 model hessian                  ...        0 min,  0.011 sec (  1.305%)
 ANC generation                 ...        0 min,  0.001 sec (  0.175%)
 coordinate transformation      ...        0 min,  0.000 sec (  0.033%)
 single point calculation       ...        0 min,  0.810 sec ( 97.585%)
 optimization log               ...        0 min,  0.003 sec (  0.329%)
 hessian update                 ...        0 min,  0.000 sec (  0.046%)
 rational function              ...        0 min,  0.003 sec (  0.330%)

================
 final structure:
================
25
 xtb: 6.6.1 (8d0f1dd)
C            3.25292908394560        1.24112325939536        0.01949155121019
N            2.31920769186560        0.14751902066161        0.04823299982040
C            2.61047771223405       -1.14792101629338        0.08277635508728
N            1.47549509171208       -1.87714799590190        0.11950065884391
C            0.41500975983672       -1.00512180670413        0.10259434485246
C            0.95107192266252        0.27598913091847        0.05870750543172
C            0.12216432532353        1.46133227853608        0.02000540955643
O            0.51907066973517        2.60344592241044       -0.01542685905886
N           -1.23674805406576        1.12626832574897        0.02377623914914
C           -2.19136972493584        2.22987756220636       -0.02646407534240
C           -1.81006182579037       -0.11409359495360        0.06061174580317
O           -2.99107085519142       -0.30692082114407        0.04740861093116
N           -0.91387673914056       -1.26572293062695        0.12130334338543
C           -1.47218849910054       -2.48322775064153        0.19282044559637
H            3.77414276111738        1.31912639317819        0.97462894470768
H            3.98899901832885        1.09057270937653       -0.76975944676744
H            2.70426153290037        2.16538897112956       -0.15806094550206
H            3.59947456573716       -1.56384479803882        0.08197188601550
H           -1.62944335786301        3.16027894662230       -0.01784418241048
H           -2.79025240638345        2.15936153230032       -0.93344555215715
H           -2.85673166242784        2.18099194500515        0.83395020030136
H           -0.87094421295434       -3.36471868477283        0.24350324989407
H           -2.70203373948122       -4.79599024634865       -1.42430479761692
H           -2.54341954243114       -2.53246648687021        0.20934470947965
H            1.43626799846645       -2.88586132359374        0.13584927668929

 Bond Distances (Angstroems)
 ---------------------------
C1-N2=1.4383         C1-H15=1.0909        C1-H16=1.0897        C1-H17=1.0894        N2-C1=1.4383         N2-C3=1.3282         
N2-C6=1.3742         C3-N2=1.3282         C3-N4=1.3496         C3-H18=1.0729        N4-C3=1.3496         N4-C5=1.3731         
N4-H25=1.0096        C5-N4=1.3731         C5-C6=1.3894         C5-N13=1.3543        C6-N2=1.3742         C6-C5=1.3894         
C6-C7=1.4469         C7-C6=1.4469         C7-O8=1.2096         C7-N9=1.3996         O8-C7=1.2096         N9-C7=1.3996         
N9-C10=1.4601        N9-C11=1.3669        C10-N9=1.4601        C10-H19=1.0870       C10-H20=1.0892       C10-H21=1.0888       
C11-N9=1.3669        C11-O12=1.1967       C11-N13=1.4605       O12-C11=1.1967       N13-C5=1.3543        N13-C11=1.4605       
N13-C14=1.3413       C14-N13=1.3413       C14-H22=1.0682       C14-H24=1.0725       H15-C1=1.0909        H16-C1=1.0897        
H17-C1=1.0894        H18-C3=1.0729        H19-C10=1.0870       H20-C10=1.0892       H21-C10=1.0888       H22-C14=1.0682       
H24-C14=1.0725       H25-N4=1.0096        
 C  H  Rav=1.0832 sigma=0.0086  Rmin=1.0682  Rmax=1.0909     9
 C  C  Rav=1.4182 sigma=0.0287  Rmin=1.3894  Rmax=1.4469     2
 N  H  Rav=1.0096 sigma=0.0000  Rmin=1.0096  Rmax=1.0096     1
 N  C  Rav=1.3860 sigma=0.0450  Rmin=1.3282  Rmax=1.4605    11
 O  C  Rav=1.2032 sigma=0.0065  Rmin=1.1967  Rmax=1.2096     2

 selected bond angles (degree)
 --------------------
H15-C1-N2=110.31               H16-C1-N2=110.36               H16-C1-H15=108.74              H17-C1-N2=108.75               
H17-C1-H15=108.82              H17-C1-H16=109.84              C3-N2-C1=126.85                C6-N2-C1=125.13                
C6-N2-C3=108.02                N4-C3-N2=110.08                H18-C3-N2=125.47               H18-C3-N4=124.46               
C5-N4-C3=107.82                H25-N4-C3=124.96               H25-N4-C5=127.21               C6-C5-N4=106.74                
N13-C5-N4=129.45               N13-C5-C6=123.81               C5-C6-N2=107.35                C7-C6-N2=130.30                
C7-C6-C5=122.36                O8-C7-C6=125.89                N9-C7-C6=111.10                N9-C7-O8=123.00                
C10-N9-C7=116.99               C11-N9-C7=128.65               C11-N9-C10=114.37              H19-C10-N9=107.98              
H20-C10-N9=109.83              H20-C10-H19=110.26             H21-C10-N9=109.78              H21-C10-H19=110.37             
H21-C10-H20=108.61             

 selected dihedral angles (degree)
 ---------------------------------
C3-N2-C1-H15=290.76           C3-N2-C1-H16= 50.94           C3-N2-C1-H17=171.49           C6-N2-C1-H15=110.02           
C6-N2-C1-H16=230.21           C6-N2-C1-H17=350.75           N4-C3-N2-C1=179.20            N4-C3-N2-C6=359.83            
H18-C3-N2-C1=359.20           H18-C3-N2-C6=179.83           C5-N4-C3-N2=  0.23            C5-N4-C3-H18=180.22           
H25-N4-C3-N2=179.02           H25-N4-C3-H18=359.02          C6-C5-N4-C3=359.81            C6-C5-N4-H25=181.05           
N13-C5-N4-C3=179.74           N13-C5-N4-H25=  0.98          C5-C6-N2-C1=180.67            C5-C6-N2-C3=  0.05            
C7-C6-N2-C1=  1.29            C7-C6-N2-C3=180.67            N2-C6-C5-N4=  0.08            N2-C6-C5-N13=180.15           
C7-C6-C5-N4=179.52            C7-C6-C5-N13=359.59           O8-C7-C6-N2=359.09            O8-C7-C6-C5=179.79            
N9-C7-C6-N2=178.88            N9-C7-C6-C5=359.59            C10-N9-C7-C6=180.59           C10-N9-C7-O8=  0.39           
C11-N9-C7-C6=  0.15           C11-N9-C7-O8=179.95           H19-C10-N9-C7=357.70          H19-C10-N9-C11=178.08         
H20-C10-N9-C7=117.97          H20-C10-N9-C11=298.35         H21-C10-N9-C7=237.33          H21-C10-N9-C11= 57.70         
           -------------------------------------------------
          |                Final Singlepoint                |
           -------------------------------------------------

          ...................................................
          :                      SETUP                      :
          :.................................................:
          :  # basis functions                  67          :
          :  # atomic orbitals                  67          :
          :  # shells                           39          :
          :  # electrons                        74          :
          :  max. iterations                   250          :
          :  Hamiltonian                  GFN2-xTB          :
          :  restarted?                      false          :
          :  GBSA solvation                  false          :
          :  PC potential                    false          :
          :  electronic temp.         5000.0000000     K    :
          :  accuracy                    1.0000000          :
          :  -> integral cutoff          0.2500000E+02      :
          :  -> integral neglect         0.1000000E-07      :
          :  -> SCF convergence          0.1000000E-05 Eh   :
          :  -> wf. convergence          0.1000000E-03 e    :
          :  Broyden damping             0.4000000          :
          ...................................................

 iter      E             dE          RMSdq      gap      omega  full diag
   1    -42.6268598 -0.426269E+02  0.952E-05    0.22       0.0  T
   2    -42.6268598  0.383466E-09  0.135E-04    0.22     148.2  T
   3    -42.6268598 -0.433232E-09  0.639E-05    0.22     313.2  T

   *** convergence criteria satisfied after 3 iterations ***

         #    Occupation            Energy/Eh            Energy/eV
      -------------------------------------------------------------
         1        2.0000           -0.9188671             -25.0036
       ...           ...                  ...                  ...
        31        1.9996           -0.6211560             -16.9025
        32        1.9986           -0.6002340             -16.3332
        33        1.9976           -0.5913982             -16.0928
        34        1.9967           -0.5866857             -15.9645
        35        1.9879           -0.5658647             -15.3980
        36        1.9868           -0.5644451             -15.3593
        37        1.0866           -0.4878359             -13.2747 (HOMO)
        38        0.8381           -0.4799138             -13.0591 (LUMO)
        39        0.0968           -0.4379296             -11.9167
        40        0.0098           -0.4010298             -10.9126
        41        0.0019           -0.3752529             -10.2112
        42        0.0000           -0.2904113              -7.9025
       ...           ...                  ...                  ...
        67                          0.5544653              15.0878
      -------------------------------------------------------------
                  HL-Gap            0.0079220 Eh            0.2156 eV
             Fermi-level           -0.4850859 Eh          -13.1999 eV

 SCC (total)                   0 d,  0 h,  0 min,  0.021 sec
 SCC setup                      ...        0 min,  0.000 sec (  0.874%)
 Dispersion                     ...        0 min,  0.000 sec (  0.796%)
 classical contributions        ...        0 min,  0.000 sec (  0.317%)
 integral evaluation            ...        0 min,  0.004 sec ( 20.362%)
 iterations                     ...        0 min,  0.004 sec ( 21.109%)
 molecular gradient             ...        0 min,  0.011 sec ( 55.943%)
 printout                       ...        0 min,  0.000 sec (  0.565%)

         :::::::::::::::::::::::::::::::::::::::::::::::::::::
         ::                     SUMMARY                     ::
         :::::::::::::::::::::::::::::::::::::::::::::::::::::
         :: total energy             -42.103017665940 Eh    ::
         :: gradient norm              0.003427072004 Eh/a0 ::
         :: HOMO-LUMO gap              0.215569729309 eV    ::
         ::.................................................::
         :: SCC energy               -42.626859805899 Eh    ::
         :: -> isotropic ES            0.139930511108 Eh    ::
         :: -> anisotropic ES         -0.005137313575 Eh    ::
         :: -> anisotropic XC          0.012875993111 Eh    ::
         :: -> dispersion             -0.022649131519 Eh    ::
         :: repulsion energy           0.523757461807 Eh    ::
         :: add. restraining           0.000000039574 Eh    ::
         :: total charge               0.999999999988 e     ::
         :::::::::::::::::::::::::::::::::::::::::::::::::::::

           -------------------------------------------------
          |                Property Printout                |
           -------------------------------------------------

    * Orbital Energies and Occupations

         #    Occupation            Energy/Eh            Energy/eV
      -------------------------------------------------------------
         1        2.0000           -0.9188671             -25.0036
       ...           ...                  ...                  ...
        25        2.0000           -0.6705036             -18.2453
        26        2.0000           -0.6701194             -18.2349
        27        2.0000           -0.6612957             -17.9948
        28        1.9999           -0.6372846             -17.3414
        29        1.9998           -0.6333346             -17.2339
        30        1.9998           -0.6296036             -17.1324
        31        1.9996           -0.6211560             -16.9025
        32        1.9986           -0.6002340             -16.3332
        33        1.9976           -0.5913982             -16.0928
        34        1.9967           -0.5866857             -15.9645
        35        1.9879           -0.5658647             -15.3980
        36        1.9868           -0.5644451             -15.3593
        37        1.0866           -0.4878359             -13.2747 (HOMO)
        38        0.8381           -0.4799138             -13.0591 (LUMO)
        39        0.0968           -0.4379296             -11.9167
        40        0.0098           -0.4010298             -10.9126
        41        0.0019           -0.3752529             -10.2112
        42        0.0000           -0.2904113              -7.9025
        43                         -0.2152389              -5.8569
        44                         -0.2021968              -5.5021
        45                         -0.1524770              -4.1491
        46                         -0.1363201              -3.7095
        47                         -0.0701618              -1.9092
        48                         -0.0418906              -1.1399
       ...                                ...                  ...
        67                          0.5544653              15.0878
      -------------------------------------------------------------
                  HL-Gap            0.0079220 Eh            0.2156 eV
             Fermi-level           -0.4850859 Eh          -13.1999 eV

     #   Z          covCN         q      C6AA      α(0)
     1   6 C        3.691    -0.097    22.539     6.794
     2   7 N        2.831     0.086    19.750     6.600
     3   6 C        3.052     0.054    26.736     8.480
     4   7 N        2.790    -0.057    22.331     7.019
     5   6 C        3.038     0.093    25.898     8.347
     6   6 C        3.114    -0.016    28.249     8.707
     7   6 C        2.763     0.267    22.493     7.767
     8   8 O        0.858    -0.364    20.978     6.141
     9   7 N        2.744    -0.078    22.750     7.084
    10   6 C        3.713    -0.065    21.873     6.682
    11   6 C        2.734     0.311    21.722     7.631
    12   8 O        0.859    -0.336    20.443     6.062
    13   7 N        2.735     0.009    21.099     6.822
    14   6 C        2.797    -0.057    29.391     8.881
    15   1 H        0.924     0.111     1.688     2.032
    16   1 H        0.925     0.107     1.721     2.052
    17   1 H        0.925     0.139     1.465     1.893
    18   1 H        0.926     0.128     1.548     1.945
    19   1 H        0.925     0.117     1.641     2.003
    20   1 H        0.925     0.099     1.796     2.096
    21   1 H        0.925     0.100     1.789     2.092
    22   1 H        0.927     0.090     1.879     2.143
    23   1 H        0.000    -0.008     7.960     5.159
    24   1 H        0.926     0.135     1.497     1.913
    25   1 H        0.860     0.230     0.965     1.539

 Mol. C6AA /au·bohr⁶  :       6830.218475
 Mol. C8AA /au·bohr⁸  :     155796.042957
 Mol. α(0) /au        :        127.883215


Wiberg/Mayer (AO) data.
largest (>0.10) Wiberg bond orders for each atom

 ---------------------------------------------------------------------------
     #   Z sym  total        # sym  WBO       # sym  WBO       # sym  WBO
 ---------------------------------------------------------------------------
     1   6 C    3.912 --     2 N    0.984    16 H    0.962    17 H    0.959
                            15 H    0.955
     2   7 N    3.674 --     3 C    1.386     6 C    1.165     1 C    0.984
     3   6 C    3.843 --     2 N    1.386     4 N    1.288    18 H    0.951
     4   7 N    3.555 --     3 C    1.288     5 C    1.166    25 H    0.918
     5   6 C    3.886 --     6 C    1.340     4 N    1.166    13 N    1.164
     6   6 C    3.858 --     5 C    1.340     2 N    1.165     7 C    1.074
     7   6 C    3.917 --     8 O    1.676     9 N    1.081     6 C    1.074
     8   8 O    1.989 --     7 C    1.676     9 N    0.138
     9   7 N    3.569 --    11 C    1.171     7 C    1.081    10 C    0.962
                            12 O    0.151     8 O    0.138
    10   6 C    3.910 --    19 H    0.967    21 H    0.966    20 H    0.965
                             9 N    0.962
    11   6 C    3.925 --    12 O    1.729     9 N    1.171    13 N    0.931
    12   8 O    2.057 --    11 C    1.729     9 N    0.151
    13   7 N    3.623 --    14 C    1.304     5 C    1.164    11 C    0.931
    14   6 C    3.350 --    13 N    1.304    22 H    0.969    24 H    0.957
    15   1 H    0.984 --     1 C    0.955
    16   1 H    0.986 --     1 C    0.962
    17   1 H    0.980 --     1 C    0.959
    18   1 H    0.982 --     3 C    0.951
    19   1 H    0.985 --    10 C    0.967
    20   1 H    0.986 --    10 C    0.965
    21   1 H    0.986 --    10 C    0.966
    22   1 H    0.991 --    14 C    0.969
    23   1 H    0.015
    24   1 H    0.981 --    14 C    0.957
    25   1 H    0.946 --     4 N    0.918
 ---------------------------------------------------------------------------

Topologies differ in total number of bonds
Writing topology from bond orders to xtbtopo.mol

molecular dipole:
                 x           y           z       tot (Debye)
 q only:        2.703      -1.630       0.204
   full:        2.979      -2.217       0.221       9.455
molecular quadrupole (traceless):
                xx          xy          yy          xz          yz          zz
 q only:       14.434      -7.997       3.021       0.239      -1.475     -17.455
  q+dip:       12.374     -11.000       2.965       0.377      -1.401     -15.339
   full:       11.247     -10.889       1.952       0.369      -1.302     -13.199

           -------------------------------------------------
          |                Geometry Summary                 |
           -------------------------------------------------

      molecular mass/u    :      195.1988581
   center of mass at/Å    :        0.0418097       0.0664565       0.0522260
  moments of inertia/u·Å² :        0.4907337E+03   0.7236959E+03   0.1202768E+04
rotational constants/cm⁻¹ :        0.3435189E-01   0.2329380E-01   0.1401569E-01

 * 23 selected distances

     #   Z          #   Z                                           value/Å
     1   6 C        2   7 N                                       1.4382741
     2   7 N        3   6 C                                       1.3282307
     3   6 C        4   7 N                                       1.3495579
     4   7 N        5   6 C                                       1.3730787
     2   7 N        6   6 C                                       1.3741944
     5   6 C        6   6 C                                       1.3894367
     7   6 C        8   8 O                                       1.2096338
     7   6 C        9   7 N                                       1.3996161
     9   7 N       10   6 C                                       1.4600618 (max)
     9   7 N       11   6 C                                       1.3669468
    11   6 C       12   8 O                                       1.1967202
     5   6 C       13   7 N                                       1.3543274
    13   7 N       14   6 C                                       1.3413221
     1   6 C       15   1 H                                       1.0908876
     1   6 C       16   1 H                                       1.0896705
     1   6 C       17   1 H                                       1.0894165
     3   6 C       18   1 H                                       1.0728971
    10   6 C       19   1 H                                       1.0869602
    10   6 C       20   1 H                                       1.0891504
    10   6 C       21   1 H                                       1.0887650
    14   6 C       22   1 H                                       1.0682181
    14   6 C       24   1 H                                       1.0724895
     4   7 N       25   1 H                                       1.0096082 (min)

 * 5 distinct bonds (by element types)

   Z      Z             #   av. dist./Å        max./Å        min./Å
   1 H    6 C           9     1.0831617     1.0908876     1.0682181
   6 C    6 C           1     1.3894367     1.3894367     1.3894367
   1 H    7 N           1     1.0096082     1.0096082     1.0096082
   6 C    7 N          10     1.3785610     1.4600618     1.3282307
   6 C    8 O           2     1.2031770     1.2096338     1.1967202


optimized geometry written to: xtbopt.xyz


           -------------------------------------------------
          | TOTAL ENERGY              -42.103017665940 Eh   |
          | GRADIENT NORM               0.003427072004 Eh/α |
          | HOMO-LUMO GAP               0.215569729309 eV   |
           -------------------------------------------------

------------------------------------------------------------------------
 * finished run on 2024/06/05 at 19:58:20.735     
------------------------------------------------------------------------
 total:
 * wall-time:     0 d,  0 h,  0 min,  0.918 sec
 *  cpu-time:     0 d,  0 h,  0 min,  0.896 sec
 * ratio c/w:     0.975 speedup
 SCF:
 * wall-time:     0 d,  0 h,  0 min,  0.033 sec
 *  cpu-time:     0 d,  0 h,  0 min,  0.033 sec
 * ratio c/w:     1.000 speedup
 ANC optimizer:
 * wall-time:     0 d,  0 h,  0 min,  0.854 sec
 *  cpu-time:     0 d,  0 h,  0 min,  0.851 sec
 * ratio c/w:     0.996 speedup

