      -----------------------------------------------------------      
     |                   =====================                   |     
     |                           x T B                           |     
     |                   =====================                   |     
     |                         S. Grimme                         |     
     |          Mulliken Center for Theoretical Chemistry        |     
     |                    University of Bonn                     |     
      -----------------------------------------------------------      

   * xtb version 6.6.1 (8d0f1dd) compiled by 'conda@1efc2f54142f' on 2023-08-01

   xtb is free software: you can redistribute it and/or modify it under
   the terms of the GNU Lesser General Public License as published by
   the Free Software Foundation, either version 3 of the License, or
   (at your option) any later version.
   
   xtb is distributed in the hope that it will be useful,
   but WITHOUT ANY WARRANTY; without even the implied warranty of
   MERCHANTABILITY or FITNESS FOR A PARTICULAR PURPOSE.  See the
   GNU Lesser General Public License for more details.
   
   Cite this work as:
   * C. Bannwarth, E. Caldeweyher, S. Ehlert, A. Hansen, P. Pracht,
     J. Seibert, S. Spicher, S. Grimme, WIREs Comput. Mol. Sci., 2020, 11,
     e01493. DOI: 10.1002/wcms.1493
   
   for GFN2-xTB:
   * C. Bannwarth, S. Ehlert and S. Grimme., J. Chem. Theory Comput., 2019,
     15, 1652-1671. DOI: 10.1021/acs.jctc.8b01176
   for GFN1-xTB:
   * S. Grimme, C. Bannwarth, P. Shushkov, J. Chem. Theory Comput., 2017,
     13, 1989-2009. DOI: 10.1021/acs.jctc.7b00118
   for GFN0-xTB:
   * P. Pracht, E. Caldeweyher, S. Ehlert, S. Grimme, ChemRxiv, 2019, preprint.
     DOI: 10.26434/chemrxiv.8326202.v1
   for GFN-FF:
   * S. Spicher and S. Grimme, Angew. Chem. Int. Ed., 2020, 59, 15665-15673.
     DOI: 10.1002/anie.202004239
   
   for ALPB and GBSA implicit solvation:
   * S. Ehlert, M. Stahn, S. Spicher, S. Grimme, J. Chem. Theory Comput.,
     2021, 17, 4250-4261. DOI: 10.1021/acs.jctc.1c00471
   
   for DFT-D4:
   * E. Caldeweyher, C. Bannwarth and S. Grimme, J. Chem. Phys., 2017,
     147, 034112. DOI: 10.1063/1.4993215
   * E. Caldeweyher, S. Ehlert, A. Hansen, H. Neugebauer, S. Spicher,
     C. Bannwarth and S. Grimme, J. Chem. Phys., 2019, 150, 154122.
     DOI: 10.1063/1.5090222
   * E. Caldeweyher, J.-M. Mewes, S. Ehlert and S. Grimme, Phys. Chem. Chem. Phys.
     2020, 22, 8499-8512. DOI: 10.1039/D0CP00502A
   
   for sTDA-xTB:
   * S. Grimme and C. Bannwarth, J. Chem. Phys., 2016, 145, 054103.
     DOI: 10.1063/1.4959605
   
   in the mass-spec context:
   * V. Asgeirsson, C. Bauer and S. Grimme, Chem. Sci., 2017, 8, 4879.
     DOI: 10.1039/c7sc00601b
   * J. Koopman and S. Grimme, ACS Omega 2019, 4, 12, 15120-15133.
     DOI: 10.1021/acsomega.9b02011
   
   for metadynamics refer to:
   * S. Grimme, J. Chem. Theory Comput., 2019, 155, 2847-2862
     DOI: 10.1021/acs.jctc.9b00143
   
   for SPH calculations refer to:
   * S. Spicher and S. Grimme, J. Chem. Theory Comput., 2021, 17, 1701-1714
     DOI: 10.1021/acs.jctc.0c01306
   
   with help from (in alphabetical order)
   P. Atkinson, C. Bannwarth, F. Bohle, G. Brandenburg, E. Caldeweyher
   M. Checinski, S. Dohm, S. Ehlert, S. Ehrlich, I. Gerasimov, C. Hölzer
   A. Katbashev, J. Koopman, C. Lavigne, S. Lehtola, F. März, M. Müller,
   F. Musil, H. Neugebauer, J. Pisarek, C. Plett, P. Pracht, F. Pultar,
   J. Seibert, P. Shushkov, S. Spicher, M. Stahn, M. Steiner, T. Strunk,
   J. Stückrath, T. Rose, and J. Unsleber
   
 * started run on 2024/06/05 at 19:58:11.901     

           -------------------------------------------------
          |                Calculation Setup                |
           -------------------------------------------------

          program call               : xtb struc.xyz --opt loose --input .xc1 --gfn2
          hostname                   : n-62-21-70
          coordinate file            : struc.xyz
          omp threads                :                     1

   ID    Z sym.   atoms
    1    6 C      1, 3, 5-7, 10, 11, 14
    2    7 N      2, 4, 9, 13
    3    8 O      8, 12
    4    1 H      15-25
constraining bond 7 16 to    4.7133300 Å, actual value:    3.9875359 Å

           -------------------------------------------------
          |                 G F N 2 - x T B                 |
           -------------------------------------------------

        Reference                      10.1021/acs.jctc.8b01176
      * Hamiltonian:
        H0-scaling (s, p, d)           1.850000    2.230000    2.230000
        zeta-weighting                 0.500000
      * Dispersion:
        s8                             2.700000
        a1                             0.520000
        a2                             5.000000
        s9                             5.000000
      * Repulsion:
        kExp                           1.500000    1.000000
        rExp                           1.000000
      * Coulomb:
        alpha                          2.000000
        third order                    shell-resolved
        anisotropic                    true
        a3                             3.000000
        a5                             4.000000
        cn-shift                       1.200000
        cn-exp                         4.000000
        max-rad                        5.000000


          ...................................................
          :                      SETUP                      :
          :.................................................:
          :  # basis functions                  67          :
          :  # atomic orbitals                  67          :
          :  # shells                           39          :
          :  # electrons                        74          :
          :  max. iterations                   250          :
          :  Hamiltonian                  GFN2-xTB          :
          :  restarted?                      false          :
          :  GBSA solvation                  false          :
          :  PC potential                    false          :
          :  electronic temp.         5000.0000000     K    :
          :  accuracy                    1.0000000          :
          :  -> integral cutoff          0.2500000E+02      :
          :  -> integral neglect         0.1000000E-07      :
          :  -> SCF convergence          0.1000000E-05 Eh   :
          :  -> wf. convergence          0.1000000E-03 e    :
          :  Broyden damping             0.4000000          :
          ...................................................

 iter      E             dE          RMSdq      gap      omega  full diag
   1    -42.5894031 -0.425894E+02  0.445E+00    3.52       0.0  T
   2    -42.7683054 -0.178902E+00  0.251E+00    3.36       1.0  T
   3    -42.7759211 -0.761567E-02  0.147E+00    3.35       1.0  T
   4    -42.7728404  0.308066E-02  0.553E-01    3.33       1.0  T
   5    -42.7789548 -0.611444E-02  0.112E-01    3.35       1.0  T
   6    -42.7790473 -0.924914E-04  0.614E-02    3.33       1.0  T
   7    -42.7790721 -0.247928E-04  0.258E-02    3.34       1.0  T
   8    -42.7790772 -0.508996E-05  0.938E-03    3.34       2.1  T
   9    -42.7790779 -0.669422E-06  0.448E-03    3.34       4.5  T
  10    -42.7790780 -0.821511E-07  0.115E-03    3.34      17.4  T
  11    -42.7790780 -0.322662E-08  0.553E-04    3.34      36.2  T
  12    -42.7790780 -0.287052E-08  0.180E-04    3.34     111.1  T

   *** convergence criteria satisfied after 12 iterations ***

         #    Occupation            Energy/Eh            Energy/eV
      -------------------------------------------------------------
         1        2.0000           -0.9185990             -24.9964
       ...           ...                  ...                  ...
        31        1.9996           -0.6230278             -16.9534
        32        1.9995           -0.6194601             -16.8564
        33        1.9979           -0.5974976             -16.2587
        34        1.9932           -0.5789629             -15.7544
        35        1.9817           -0.5631863             -15.3251
        36        1.9779           -0.5602245             -15.2445
        37        1.9748           -0.5581234             -15.1873 (HOMO)
        38        0.0652           -0.4353579             -11.8467 (LUMO)
        39        0.0099           -0.4050467             -11.0219
        40        0.0013           -0.3732218             -10.1559
        41        0.0000           -0.2886859              -7.8555
        42                         -0.2065804              -5.6213
       ...                                ...                  ...
        67                          0.5625656              15.3082
      -------------------------------------------------------------
                  HL-Gap            0.1227656 Eh            3.3406 eV
             Fermi-level           -0.4890455 Eh          -13.3076 eV

 SCC (total)                   0 d,  0 h,  0 min,  0.068 sec
 SCC setup                      ...        0 min,  0.000 sec (  0.330%)
 Dispersion                     ...        0 min,  0.000 sec (  0.410%)
 classical contributions        ...        0 min,  0.000 sec (  0.113%)
 integral evaluation            ...        0 min,  0.005 sec (  7.762%)
 iterations                     ...        0 min,  0.037 sec ( 53.759%)
 molecular gradient             ...        0 min,  0.025 sec ( 37.368%)
 printout                       ...        0 min,  0.000 sec (  0.240%)

         :::::::::::::::::::::::::::::::::::::::::::::::::::::
         ::                     SUMMARY                     ::
         :::::::::::::::::::::::::::::::::::::::::::::::::::::
         :: total energy             -46.010168064310 Eh    ::
         :: gradient norm              7.760616988081 Eh/a0 ::
         :: HOMO-LUMO gap              3.340621582928 eV    ::
         ::.................................................::
         :: SCC energy               -42.779077977399 Eh    ::
         :: -> isotropic ES            0.141123876439 Eh    ::
         :: -> anisotropic ES         -0.005230418907 Eh    ::
         :: -> anisotropic XC          0.011966818540 Eh    ::
         :: -> dispersion             -0.022657731803 Eh    ::
         :: repulsion energy           0.531105277918 Eh    ::
         :: add. restraining          -3.762309523838 Eh    ::
         :: total charge               1.000000000002 e     ::
         :::::::::::::::::::::::::::::::::::::::::::::::::::::

      ----------------------------------------------------------- 
     |                   =====================                   |
     |                        A N C O P T                        |
     |                   =====================                   |
     |               Approximate Normal Coordinate               |
     |                Rational Function Optimizer                |
      ----------------------------------------------------------- 

          ...................................................
          :                      SETUP                      :
          :.................................................:
          :   optimization level             loose          :
          :   max. optcycles                   200          :
          :   ANC micro-cycles                  20          :
          :   degrees of freedom                69          :
          :.................................................:
          :   RF solver                   davidson          :
          :   write xtbopt.log                true          :
          :   linear?                        false          :
          :   energy convergence         0.5000000E-04 Eh   :
          :   grad. convergence          0.4000000E-02 Eh/α :
          :   maxmium RF displ.          1.0000000          :
          :   Hlow (freq-cutoff)         0.1000000E-01      :
          :   Hmax (freq-cutoff)         5.0000000          :
          :   S6 in model hess.         20.0000000          :
          ...................................................

generating ANC from model Hessian ...
Using Lindh-Hessian (1995)
 Shifting diagonal of input Hessian by    7.3453639764821990     
 Lowest  eigenvalues of input Hessian
    0.010000    0.000000    0.000000    0.000000    0.000000    0.000000
    0.000000    7.348626    7.350900    7.354819    7.356191    7.357053
    7.358185    7.363784    7.365770    7.372343    7.382634    7.387338
 Highest eigenvalues
    9.444966    9.505187    9.574131    9.635249    9.847714   10.385601


........................................................................
.............................. CYCLE    1 ..............................
........................................................................

 iter      E             dE          RMSdq      gap      omega  full diag
   1    -42.7790780 -0.427791E+02  0.626E-05    3.34       0.0  T
   2    -42.7790780 -0.124203E-10  0.329E-05    3.34     607.4  T
   3    -42.7790780  0.106581E-12  0.193E-05    3.34    1034.2  T
     SCC iter.                  ...        0 min,  0.005 sec
     gradient                   ...        0 min,  0.013 sec
 * total energy  :   -46.0101681 Eh     change       -0.6650680E-10 Eh
   gradient norm :     7.7606167 Eh/α   predicted     0.0000000E+00 (-100.00%)
   displ. norm   :     0.9984695 α      lambda       -0.7739847E+01
   maximum displ.:     0.9970917 α      in ANC's #1, #11, #9, ...

........................................................................
.............................. CYCLE    2 ..............................
........................................................................

 iter      E             dE          RMSdq      gap      omega  full diag
   1    -42.7500800 -0.427501E+02  0.154E+00    2.75       0.0  T
   2    -42.7643031 -0.142231E-01  0.956E-01    1.83       1.0  T
   3    -42.7718434 -0.754029E-02  0.507E-01    2.36       1.0  T
   4    -42.7723097 -0.466354E-03  0.248E-01    2.03       1.0  T
   5    -42.7736401 -0.133035E-02  0.510E-02    2.16       1.0  T
   6    -42.7736691 -0.290405E-04  0.199E-02    2.16       1.0  T
   7    -42.7736719 -0.278249E-05  0.879E-03    2.17       2.3  T
   8    -42.7736726 -0.641464E-06  0.251E-03    2.17       8.0  T
   9    -42.7736727 -0.158619E-06  0.820E-04    2.17      24.4  T
  10    -42.7736727 -0.186525E-09  0.423E-04    2.17      47.3  T
     SCC iter.                  ...        0 min,  0.014 sec
     gradient                   ...        0 min,  0.013 sec
 * total energy  :   -57.5700929 Eh     change       -0.1155992E+02 Eh
   gradient norm :    15.3966041 Eh/α   predicted    -0.7732501E+01 ( -33.11%)
   displ. norm   :     0.9990752 α      lambda       -0.1537938E+02
   maximum displ.:     0.9972232 α      in ANC's #1, #9, #10, ...

........................................................................
.............................. CYCLE    3 ..............................
........................................................................

 iter      E             dE          RMSdq      gap      omega  full diag
   1    -42.6259464 -0.426259E+02  0.138E+00    1.46       0.0  T
   2    -42.6248352  0.111123E-02  0.926E-01    1.11       1.0  T
   3    -42.6210849  0.375027E-02  0.732E-01    1.69       1.0  T
   4    -42.6308653 -0.978041E-02  0.288E-01    1.22       1.0  T
   5    -42.6332994 -0.243406E-02  0.568E-02    1.37       1.0  T
   6    -42.6333671 -0.677525E-04  0.275E-02    1.34       1.0  T
   7    -42.6333718 -0.465704E-05  0.125E-02    1.34       1.6  T
   8    -42.6333750 -0.323137E-05  0.379E-03    1.34       5.3  T
   9    -42.6333751 -0.148715E-06  0.147E-03    1.34      13.6  T
  10    -42.6333752 -0.129187E-07  0.808E-04    1.34      24.8  T
  11    -42.6333752 -0.903406E-08  0.266E-04    1.34      75.1  T
     SCC iter.                  ...        0 min,  0.015 sec
     gradient                   ...        0 min,  0.014 sec
 * total energy  :   -76.8392932 Eh     change       -0.1926920E+02 Eh
   gradient norm :    23.3322274 Eh/α   predicted    -0.1536517E+02 ( -20.26%)
   displ. norm   :     0.9990840 α      lambda       -0.2330737E+02
   maximum displ.:     0.9957987 α      in ANC's #1, #10, #9, ...

........................................................................
.............................. CYCLE    4 ..............................
........................................................................

 iter      E             dE          RMSdq      gap      omega  full diag
   1    -42.3407106 -0.423407E+02  0.154E+00    0.67       0.0  T
   2    -42.3300212  0.106894E-01  0.123E+00    1.29       1.0  T
   3    -42.3635454 -0.335242E-01  0.810E-01    0.70       1.0  T
   4    -42.3629882  0.557140E-03  0.547E-01    1.18       1.0  T
   5    -42.3758317 -0.128435E-01  0.187E-01    0.91       1.0  T
   6    -42.3765827 -0.750949E-03  0.492E-02    0.94       1.0  T
   7    -42.3765815  0.115706E-05  0.241E-02    0.92       1.0  T
   8    -42.3766035 -0.219535E-04  0.714E-03    0.93       2.8  T
   9    -42.3766041 -0.620271E-06  0.280E-03    0.93       7.1  T
  10    -42.3766042 -0.108202E-06  0.138E-03    0.93      14.5  T
  11    -42.3766042 -0.292533E-07  0.654E-04    0.93      30.6  T
  12    -42.3766043 -0.103230E-07  0.192E-04    0.93     104.1  T
     SCC iter.                  ...        0 min,  0.016 sec
     gradient                   ...        0 min,  0.013 sec
 * total energy  :  -104.3298144 Eh     change       -0.2749052E+02 Eh
   gradient norm :    31.6522070 Eh/α   predicted    -0.2328604E+02 ( -15.29%)
   displ. norm   :     0.9994338 α      lambda       -0.3163224E+02
   maximum displ.:     0.9968407 α      in ANC's #1, #16, #2, ...

........................................................................
.............................. CYCLE    5 ..............................
........................................................................

 iter      E             dE          RMSdq      gap      omega  full diag
   1    -42.0153306 -0.420153E+02  0.249E+00    0.05       0.0  T
   2    -41.7453390  0.269992E+00  0.315E+00    0.39       1.0  T
   3    -42.0637666 -0.318428E+00  0.135E+00    0.27       1.0  T
   4    -42.0791418 -0.153752E-01  0.101E+00    0.08       1.0  T
   5    -42.0997758 -0.206341E-01  0.440E-01    0.38       1.0  T
   6    -42.1085761 -0.880029E-02  0.110E-01    0.23       1.0  T
   7    -42.1086248 -0.486976E-04  0.731E-02    0.22       1.0  T
   8    -42.1086897 -0.649156E-04  0.286E-02    0.23       1.0  T
   9    -42.1087110 -0.212586E-04  0.114E-02    0.23       1.8  T
  10    -42.1087144 -0.336361E-05  0.395E-03    0.23       5.1  T
  11    -42.1087147 -0.289504E-06  0.102E-03    0.23      19.7  T
  12    -42.1087147 -0.184663E-07  0.500E-04    0.23      40.0  T
  13    -42.1087147 -0.349286E-08  0.243E-04    0.23      82.4  T
     SCC iter.                  ...        0 min,  0.018 sec
     gradient                   ...        0 min,  0.013 sec
 * total energy  :  -139.9067729 Eh     change       -0.3557696E+02 Eh
   gradient norm :    39.4474977 Eh/α   predicted    -0.3161435E+02 ( -11.14%)
   displ. norm   :     0.9994924 α      lambda       -0.3942559E+02
   maximum displ.:     0.9964778 α      in ANC's #1, #11, #22, ...

........................................................................
.............................. CYCLE    6 ..............................
........................................................................

 iter      E             dE          RMSdq      gap      omega  full diag
   1    -41.9273437 -0.419273E+02  0.235E+00    0.18       0.0  T
   2    -41.4762895  0.451054E+00  0.396E+00    0.36       1.0  T
   3    -41.9434386 -0.467149E+00  0.162E+00    0.15       1.0  T
   4    -42.0160476 -0.726090E-01  0.769E-01    0.40       1.0  T
   5    -42.0178673 -0.181972E-02  0.482E-01    0.30       1.0  T
   6    -42.0236093 -0.574197E-02  0.199E-01    0.35       1.0  T
   7    -42.0250167 -0.140736E-02  0.660E-02    0.35       1.0  T
   8    -42.0250479 -0.312770E-04  0.364E-02    0.35       1.0  T
   9    -42.0250863 -0.383823E-04  0.138E-02    0.35       1.5  T
  10    -42.0250900 -0.369406E-05  0.332E-03    0.35       6.0  T
  11    -42.0250899  0.747258E-07  0.227E-03    0.35       8.8  T
  12    -42.0250901 -0.119525E-06  0.869E-04    0.35      23.0  T
  13    -42.0250901 -0.211637E-07  0.335E-04    0.35      59.8  T
     SCC iter.                  ...        0 min,  0.018 sec
     gradient                   ...        0 min,  0.013 sec
 * total energy  :  -177.9085062 Eh     change       -0.3800173E+02 Eh
   gradient norm :    17.1767198 Eh/α   predicted    -0.3940558E+02 (   3.69%)
   displ. norm   :     0.5469371 α      lambda       -0.9364317E+01
   maximum displ.:     0.5401804 α      in ANC's #1, #11, #22, ...

........................................................................
.............................. CYCLE    7 ..............................
........................................................................

 iter      E             dE          RMSdq      gap      omega  full diag
   1    -41.9353548 -0.419354E+02  0.187E+00    0.31       0.0  T
   2    -41.2965426  0.638812E+00  0.443E+00    0.37       1.0  T
   3    -41.8976996 -0.601157E+00  0.183E+00    0.16       1.0  T
   4    -42.0188942 -0.121195E+00  0.669E-01    0.20       1.0  T
   5    -42.0290453 -0.101510E-01  0.422E-01    0.33       1.0  T
   6    -42.0328381 -0.379283E-02  0.205E-01    0.22       1.0  T
   7    -42.0338940 -0.105591E-02  0.817E-02    0.26       1.0  T
   8    -42.0340058 -0.111787E-03  0.473E-02    0.25       1.0  T
   9    -42.0340712 -0.654588E-04  0.138E-02    0.26       1.4  T
  10    -42.0340759 -0.465673E-05  0.434E-03    0.25       4.6  T
  11    -42.0340763 -0.377929E-06  0.157E-03    0.25      12.7  T
  12    -42.0340763 -0.217587E-07  0.795E-04    0.25      25.1  T
  13    -42.0340763 -0.432231E-08  0.347E-04    0.25      57.7  T
     SCC iter.                  ...        0 min,  0.018 sec
     gradient                   ...        0 min,  0.013 sec
 * total energy  :  -177.6115537 Eh     change        0.2969524E+00 Eh
   gradient norm :    32.7567163 Eh/α   predicted    -0.6082778E+01 (*******%)
   displ. norm   :     0.7339510 α      lambda       -0.2386275E+02
   maximum displ.:     0.6921983 α      in ANC's #1, #2, #11, ...

........................................................................
.............................. CYCLE    8 ..............................
........................................................................

 iter      E             dE          RMSdq      gap      omega  full diag
   1    -41.9635843 -0.419636E+02  0.175E+00    0.20       0.0  T
   2    -41.1898834  0.773701E+00  0.472E+00    0.16       1.0  T
   3    -41.9200525 -0.730169E+00  0.183E+00    0.16       1.0  T
   4    -42.0428168 -0.122764E+00  0.657E-01    0.14       1.0  T
   5    -42.0455304 -0.271362E-02  0.536E-01    0.23       1.0  T
   6    -42.0528735 -0.734314E-02  0.268E-01    0.13       1.0  T
   7    -42.0551185 -0.224491E-02  0.910E-02    0.16       1.0  T
   8    -42.0553199 -0.201421E-03  0.434E-02    0.15       1.0  T
   9    -42.0553631 -0.431830E-04  0.193E-02    0.15       1.0  T
  10    -42.0553749 -0.118066E-04  0.419E-03    0.15       4.8  T
  11    -42.0553753 -0.426387E-06  0.135E-03    0.15      14.8  T
  12    -42.0553753 -0.289632E-07  0.600E-04    0.15      33.4  T
  13    -42.0553753 -0.142511E-08  0.194E-04    0.15     103.2  T
     SCC iter.                  ...        0 min,  0.018 sec
     gradient                   ...        0 min,  0.013 sec
 * total energy  :  -155.9345325 Eh     change        0.2167702E+02 Eh
   gradient norm :    41.5720676 Eh/α   predicted    -0.1835866E+02 (-184.69%)
   displ. norm   :     0.3665924 α      lambda       -0.1495084E+02
   maximum displ.:     0.3248047 α      in ANC's #1, #2, #22, ...

........................................................................
.............................. CYCLE    9 ..............................
........................................................................

 iter      E             dE          RMSdq      gap      omega  full diag
   1    -42.0268254 -0.420268E+02  0.982E-01    0.19       0.0  T
   2    -41.8764046  0.150421E+00  0.210E+00    0.22       1.0  T
   3    -42.0325726 -0.156168E+00  0.729E-01    0.21       1.0  T
   4    -42.0447350 -0.121623E-01  0.497E-01    0.23       1.0  T
   5    -42.0517758 -0.704083E-02  0.240E-01    0.15       1.0  T
   6    -42.0533846 -0.160876E-02  0.100E-01    0.19       1.0  T
   7    -42.0536567 -0.272173E-03  0.484E-02    0.18       1.0  T
   8    -42.0537424 -0.856760E-04  0.128E-02    0.18       1.6  T
   9    -42.0537433 -0.902987E-06  0.831E-03    0.18       2.4  T
  10    -42.0537454 -0.205406E-05  0.198E-03    0.18      10.1  T
  11    -42.0537455 -0.900105E-07  0.461E-04    0.18      43.4  T
  12    -42.0537455  0.159382E-09  0.296E-04    0.18      67.5  T
     SCC iter.                  ...        0 min,  0.016 sec
     gradient                   ...        0 min,  0.013 sec
 * total energy  :  -170.4149285 Eh     change       -0.1448040E+02 Eh
   gradient norm :    37.8287980 Eh/α   predicted    -0.8480121E+01 ( -41.44%)
   displ. norm   :     0.9209171 α      lambda       -0.3447061E+02
   maximum displ.:     0.9151268 α      in ANC's #1, #11, #22, ...

........................................................................
.............................. CYCLE   10 ..............................
........................................................................

 iter      E             dE          RMSdq      gap      omega  full diag
   1    -41.9444411 -0.419444E+02  0.219E+00    0.44       0.0  T
   2    -41.7545587  0.189882E+00  0.284E+00    0.02       1.0  T
   3    -41.9891380 -0.234579E+00  0.140E+00    0.43       1.0  T
   4    -42.0012126 -0.120746E-01  0.119E+00    0.20       1.0  T
   5    -42.0484064 -0.471938E-01  0.353E-01    0.34       1.0  T
   6    -42.0510092 -0.260288E-02  0.166E-01    0.37       1.0  T
   7    -42.0517271 -0.717820E-03  0.678E-02    0.36       1.0  T
   8    -42.0518536 -0.126511E-03  0.417E-02    0.35       1.0  T
   9    -42.0519152 -0.616261E-04  0.136E-02    0.35       1.5  T
  10    -42.0519192 -0.397314E-05  0.393E-03    0.35       5.1  T
  11    -42.0519192 -0.508333E-07  0.233E-03    0.35       8.6  T
  12    -42.0519193 -0.713606E-07  0.116E-03    0.35      17.3  T
  13    -42.0519193 -0.322447E-07  0.403E-04    0.35      49.6  T
  14    -42.0519193 -0.274346E-08  0.116E-04    0.35     171.9  T
     SCC iter.                  ...        0 min,  0.019 sec
     gradient                   ...        0 min,  0.013 sec
 * total energy  :  -177.6408531 Eh     change       -0.7225925E+01 Eh
   gradient norm :    20.0760706 Eh/α   predicted    -0.3185237E+02 ( 340.81%)
   displ. norm   :     0.4103130 α      lambda       -0.7008570E+01
   maximum displ.:     0.2971382 α      in ANC's #1, #2, #22, ...

........................................................................
.............................. CYCLE   11 ..............................
........................................................................

 iter      E             dE          RMSdq      gap      omega  full diag
   1    -42.0402617 -0.420403E+02  0.109E+00    0.36       0.0  T
   2    -42.0353387  0.492300E-02  0.915E-01    0.31       1.0  T
   3    -42.0584824 -0.231437E-01  0.431E-01    0.33       1.0  T
   4    -42.0483874  0.100951E-01  0.629E-01    0.25       1.0  T
   5    -42.0588107 -0.104233E-01  0.310E-01    0.35       1.0  T
   6    -42.0621679 -0.335714E-02  0.691E-02    0.33       1.0  T
   7    -42.0623294 -0.161564E-03  0.261E-02    0.34       1.0  T
   8    -42.0623424 -0.129859E-04  0.137E-02    0.33       1.5  T
   9    -42.0623469 -0.451416E-05  0.493E-03    0.33       4.1  T
  10    -42.0623476 -0.621408E-06  0.107E-03    0.33      18.7  T
  11    -42.0623476 -0.104396E-07  0.529E-04    0.33      37.8  T
  12    -42.0623476 -0.595173E-08  0.105E-04    0.33     189.8  T
     SCC iter.                  ...        0 min,  0.016 sec
     gradient                   ...        0 min,  0.013 sec
 * total energy  :  -177.5934921 Eh     change        0.4736104E-01 Eh
   gradient norm :    34.6046468 Eh/α   predicted    -0.4094263E+01 (*******%)
   displ. norm   :     0.9952280 α      lambda       -0.1706795E+02
   maximum displ.:     0.7037691 α      in ANC's #1, #2, #22, ...

........................................................................
.............................. CYCLE   12 ..............................
........................................................................

 iter      E             dE          RMSdq      gap      omega  full diag
   1    -41.9428043 -0.419428E+02  0.240E+00    0.24       0.0  T
   2    -41.5863034  0.356501E+00  0.334E+00    0.47       1.0  T
   3    -41.9483691 -0.362066E+00  0.194E+00    0.18       1.0  T
   4    -42.0264831 -0.781140E-01  0.124E+00    0.38       1.0  T
   5    -42.0421361 -0.156530E-01  0.969E-01    0.21       1.0  T
   6    -42.0677486 -0.256125E-01  0.457E-01    0.24       1.0  T
   7    -42.0768879 -0.913921E-02  0.106E-01    0.30       1.0  T
   8    -42.0770545 -0.166620E-03  0.613E-02    0.29       1.0  T
   9    -42.0771399 -0.854431E-04  0.336E-02    0.29       1.0  T
  10    -42.0771793 -0.393826E-04  0.479E-03    0.29       4.2  T
  11    -42.0771799 -0.618177E-06  0.217E-03    0.29       9.2  T
  12    -42.0771800 -0.954993E-07  0.111E-03    0.29      18.0  T
  13    -42.0771800 -0.259624E-07  0.484E-04    0.29      41.3  T
  14    -42.0771801 -0.855854E-08  0.102E-04    0.29     196.6  T
     SCC iter.                  ...        0 min,  0.019 sec
     gradient                   ...        0 min,  0.013 sec
 * total energy  :  -149.2033938 Eh     change        0.2839010E+02 Eh
   gradient norm :    41.0409079 Eh/α   predicted    -0.1698673E+02 (-159.83%)
   displ. norm   :     0.5191585 α      lambda       -0.2102188E+02
   maximum displ.:     0.3753662 α      in ANC's #1, #2, #22, ...

........................................................................
.............................. CYCLE   13 ..............................
........................................................................

 iter      E             dE          RMSdq      gap      omega  full diag
   1    -42.0380222 -0.420380E+02  0.140E+00    0.23       0.0  T
   2    -41.9813245  0.566977E-01  0.151E+00    0.23       1.0  T
   3    -42.0182831 -0.369586E-01  0.126E+00    0.36       1.0  T
   4    -42.0537318 -0.354487E-01  0.764E-01    0.25       1.0  T
   5    -42.0699921 -0.162603E-01  0.240E-01    0.21       1.0  T
   6    -42.0713656 -0.137348E-02  0.119E-01    0.29       1.0  T
   7    -42.0718709 -0.505373E-03  0.436E-02    0.25       1.0  T
   8    -42.0719386 -0.676811E-04  0.159E-02    0.26       1.3  T
   9    -42.0719411 -0.243271E-05  0.490E-03    0.26       4.1  T
  10    -42.0719418 -0.743508E-06  0.127E-03    0.26      15.8  T
  11    -42.0719418 -0.141995E-07  0.670E-04    0.26      29.8  T
  12    -42.0719418 -0.914699E-08  0.254E-04    0.26      78.6  T
     SCC iter.                  ...        0 min,  0.016 sec
     gradient                   ...        0 min,  0.013 sec
 * total energy  :  -169.7329848 Eh     change       -0.2052959E+02 Eh
   gradient norm :    37.8353770 Eh/α   predicted    -0.1334392E+02 ( -35.00%)
   displ. norm   :     0.8854673 α      lambda       -0.3202506E+02
   maximum displ.:     0.6236016 α      in ANC's #1, #2, #22, ...

........................................................................
.............................. CYCLE   14 ..............................
........................................................................

 iter      E             dE          RMSdq      gap      omega  full diag
   1    -42.0078041 -0.420078E+02  0.209E+00    0.30       0.0  T
   2    -41.9986921  0.911197E-02  0.151E+00    0.33       1.0  T
   3    -42.0538932 -0.552011E-01  0.918E-01    0.28       1.0  T
   4    -42.0404766  0.134166E-01  0.972E-01    0.34       1.0  T
   5    -42.0631293 -0.226527E-01  0.559E-01    0.24       1.0  T
   6    -42.0750243 -0.118950E-01  0.101E-01    0.33       1.0  T
   7    -42.0750536 -0.292564E-04  0.480E-02    0.33       1.0  T
   8    -42.0750664 -0.128175E-04  0.285E-02    0.33       1.0  T
   9    -42.0750991 -0.326956E-04  0.557E-03    0.33       3.6  T
  10    -42.0750994 -0.328043E-06  0.294E-03    0.33       6.8  T
  11    -42.0750995 -0.144977E-06  0.108E-03    0.33      18.5  T
  12    -42.0750996 -0.264511E-07  0.382E-04    0.33      52.3  T
  13    -42.0750996 -0.177458E-08  0.173E-04    0.33     115.9  T
     SCC iter.                  ...        0 min,  0.018 sec
     gradient                   ...        0 min,  0.013 sec
 * total energy  :  -177.6075255 Eh     change       -0.7874541E+01 Eh
   gradient norm :    20.6140890 Eh/α   predicted    -0.2856723E+02 ( 262.78%)
   displ. norm   :     0.2952238 α      lambda       -0.4837841E+01
   maximum displ.:     0.2077532 α      in ANC's #1, #2, #22, ...

........................................................................
.............................. CYCLE   15 ..............................
........................................................................

 iter      E             dE          RMSdq      gap      omega  full diag
   1    -42.0905976 -0.420906E+02  0.645E-01    0.32       0.0  T
   2    -42.0841955  0.640203E-02  0.623E-01    0.22       1.0  T
   3    -42.0839985  0.197010E-03  0.602E-01    0.37       1.0  T
   4    -42.0930609 -0.906242E-02  0.354E-01    0.24       1.0  T
   5    -42.0966323 -0.357139E-02  0.843E-02    0.30       1.0  T
   6    -42.0968242 -0.191865E-03  0.245E-02    0.29       1.0  T
   7    -42.0968391 -0.148976E-04  0.115E-02    0.29       1.7  T
   8    -42.0968416 -0.251971E-05  0.555E-03    0.30       3.6  T
   9    -42.0968422 -0.542146E-06  0.241E-03    0.29       8.3  T
  10    -42.0968424 -0.217073E-06  0.613E-04    0.29      32.6  T
  11    -42.0968424 -0.131837E-08  0.275E-04    0.29      72.8  T
     SCC iter.                  ...        0 min,  0.015 sec
     gradient                   ...        0 min,  0.013 sec
 * total energy  :  -176.3722864 Eh     change        0.1235239E+01 Eh
   gradient norm :    61.5126709 Eh/α   predicted    -0.2629746E+01 (-312.89%)
   displ. norm   :     0.2461300 α      lambda       -0.3061774E+01
   maximum displ.:     0.0854090 α      in ANC's #1, #22, #9, ...

........................................................................
.............................. CYCLE   16 ..............................
........................................................................

 iter      E             dE          RMSdq      gap      omega  full diag
   1    -42.0637043 -0.420637E+02  0.396E-01    0.34       0.0  T
   2    -42.0459321  0.177722E-01  0.758E-01    0.33       1.0  T
   3    -42.0646863 -0.187542E-01  0.221E-01    0.33       1.0  T
   4    -42.0636229  0.106334E-02  0.240E-01    0.37       1.0  T
   5    -42.0655555 -0.193260E-02  0.470E-02    0.34       1.0  T
   6    -42.0656378 -0.822591E-04  0.171E-02    0.34       1.2  T
   7    -42.0656408 -0.303558E-05  0.111E-02    0.34       1.8  T
   8    -42.0656436 -0.278346E-05  0.458E-03    0.34       4.4  T
   9    -42.0656441 -0.524814E-06  0.138E-03    0.34      14.5  T
  10    -42.0656441 -0.263099E-07  0.636E-04    0.34      31.5  T
  11    -42.0656442 -0.525176E-08  0.232E-04    0.34      86.2  T
     SCC iter.                  ...        0 min,  0.015 sec
     gradient                   ...        0 min,  0.013 sec
 * total energy  :  -178.3201670 Eh     change       -0.1947881E+01 Eh
   gradient norm :    16.9354142 Eh/α   predicted    -0.1623633E+01 ( -16.65%)
   displ. norm   :     0.4092600 α      lambda       -0.1087256E+01
   maximum displ.:     0.1330872 α      in ANC's #9, #2, #23, ...

........................................................................
.............................. CYCLE   17 ..............................
........................................................................

 iter      E             dE          RMSdq      gap      omega  full diag
   1    -42.1158741 -0.421159E+02  0.890E-01    0.30       0.0  T
   2    -42.0833474  0.325267E-01  0.119E+00    0.06       1.0  T
   3    -42.1125518 -0.292044E-01  0.646E-01    0.36       1.0  T
   4    -42.1169032 -0.435145E-02  0.516E-01    0.16       1.0  T
   5    -42.1256005 -0.869732E-02  0.135E-01    0.25       1.0  T
   6    -42.1262208 -0.620283E-03  0.506E-02    0.25       1.0  T
   7    -42.1262694 -0.485720E-04  0.189E-02    0.25       1.1  T
   8    -42.1262747 -0.533856E-05  0.724E-03    0.25       2.8  T
   9    -42.1262759 -0.113974E-05  0.308E-03    0.25       6.5  T
  10    -42.1262760 -0.129517E-06  0.147E-03    0.25      13.6  T
  11    -42.1262760 -0.402815E-07  0.412E-04    0.25      48.5  T
  12    -42.1262760 -0.128459E-08  0.195E-04    0.25     102.3  T
     SCC iter.                  ...        0 min,  0.017 sec
     gradient                   ...        0 min,  0.013 sec
 * total energy  :  -178.3388744 Eh     change       -0.1870741E-01 Eh
   gradient norm :    13.4838551 Eh/α   predicted    -0.6346839E+00 (3292.69%)
   displ. norm   :     0.1469813 α      lambda       -0.8134246E+00
   maximum displ.:     0.0843718 α      in ANC's #2, #11, #1, ...

........................................................................
.............................. CYCLE   18 ..............................
........................................................................

 iter      E             dE          RMSdq      gap      omega  full diag
   1    -42.1052331 -0.421052E+02  0.336E-01    0.27       0.0  T
   2    -42.1047665  0.466590E-03  0.288E-01    0.29       1.0  T
   3    -42.1051480 -0.381513E-03  0.216E-01    0.23       1.0  T
   4    -42.1038201  0.132791E-02  0.285E-01    0.32       1.0  T
   5    -42.1066435 -0.282335E-02  0.485E-02    0.27       1.0  T
   6    -42.1067123 -0.687964E-04  0.184E-02    0.27       1.1  T
   7    -42.1067200 -0.771844E-05  0.935E-03    0.27       2.1  T
   8    -42.1067215 -0.153358E-05  0.414E-03    0.27       4.8  T
   9    -42.1067220 -0.500119E-06  0.116E-03    0.27      17.3  T
  10    -42.1067220 -0.357276E-07  0.431E-04    0.27      46.4  T
  11    -42.1067220 -0.103802E-08  0.141E-04    0.27     141.5  T
     SCC iter.                  ...        0 min,  0.015 sec
     gradient                   ...        0 min,  0.013 sec
 * total energy  :  -178.6816626 Eh     change       -0.3427883E+00 Eh
   gradient norm :     0.3377689 Eh/α   predicted    -0.4154996E+00 (  21.21%)
   displ. norm   :     0.1922601 α      lambda       -0.4011193E-01
   maximum displ.:     0.0611285 α      in ANC's #11, #23, #22, ...

........................................................................
.............................. CYCLE   19 ..............................
........................................................................

 iter      E             dE          RMSdq      gap      omega  full diag
   1    -42.1390599 -0.421391E+02  0.334E-01    0.23       0.0  T
   2    -42.1334734  0.558643E-02  0.470E-01    0.13       1.0  T
   3    -42.1387606 -0.528716E-02  0.219E-01    0.25       1.0  T
   4    -42.1392293 -0.468748E-03  0.151E-01    0.19       1.0  T
   5    -42.1400033 -0.773905E-03  0.260E-02    0.21       1.0  T
   6    -42.1400014  0.187757E-05  0.195E-02    0.21       1.0  T
   7    -42.1400135 -0.120773E-04  0.976E-03    0.21       2.0  T
   8    -42.1400163 -0.283724E-05  0.250E-03    0.21       8.0  T
   9    -42.1400164 -0.672184E-07  0.106E-03    0.21      18.9  T
  10    -42.1400163  0.665241E-08  0.755E-04    0.21      26.5  T
  11    -42.1400164 -0.201663E-07  0.196E-04    0.21     102.3  T
     SCC iter.                  ...        0 min,  0.015 sec
     gradient                   ...        0 min,  0.013 sec
 * total energy  :  -178.7161467 Eh     change       -0.3448404E-01 Eh
   gradient norm :     1.7924217 Eh/α   predicted    -0.2079747E-01 ( -39.69%)
   displ. norm   :     0.7353672 α      lambda       -0.1624686E+00
   maximum displ.:     0.2040821 α      in ANC's #32, #22, #27, ...

........................................................................
.............................. CYCLE   20 ..............................
........................................................................

 iter      E             dE          RMSdq      gap      omega  full diag
   1    -42.2477112 -0.422477E+02  0.136E+00    0.13       0.0  T
   2    -42.1955148  0.521964E-01  0.142E+00    0.25       1.0  T
   3    -42.2160473 -0.205325E-01  0.118E+00    0.24       1.0  T
   4    -42.2321525 -0.161052E-01  0.794E-01    0.03       1.0  T
   5    -42.2569656 -0.248132E-01  0.278E-01    0.05       1.0  T
   6    -42.2592387 -0.227304E-02  0.701E-02    0.05       1.0  T
   7    -42.2593021 -0.633876E-04  0.370E-02    0.05       1.0  T
   8    -42.2593264 -0.243292E-04  0.157E-02    0.05       1.3  T
   9    -42.2593307 -0.432288E-05  0.496E-03    0.05       4.0  T
  10    -42.2593310 -0.265678E-06  0.250E-03    0.05       8.0  T
  11    -42.2593311 -0.841222E-07  0.118E-03    0.05      16.9  T
  12    -42.2593311 -0.387275E-07  0.346E-04    0.05      57.7  T
  13    -42.2593311 -0.540659E-09  0.119E-04    0.05     168.3  T
     SCC iter.                  ...        0 min,  0.018 sec
     gradient                   ...        0 min,  0.013 sec
 * total energy  :  -178.8505176 Eh     change       -0.1343709E+00 Eh
   gradient norm :     0.8141126 Eh/α   predicted    -0.1251483E+00 (  -6.86%)
   displ. norm   :     0.6101888 α      lambda       -0.1052261E+00
   maximum displ.:     0.1895838 α      in ANC's #25, #32, #27, ...
 * RMSD in coord.:     1.0863283 α      energy gain  -0.1328403E+03 Eh

generating ANC from model Hessian ...
Using Lindh-Hessian (1995)
 Shifting diagonal of input Hessian by    3.3795484456606792     
 Lowest  eigenvalues of input Hessian
    0.010000    0.000000    0.000000    0.000000    0.000000    0.000000
    0.000000    3.380858    3.383244    3.383579    3.385037    3.389185
    3.390811    3.392511    3.394967    3.400913    3.401964    3.405202
 Highest eigenvalues
    5.577089    5.786255    5.813420    6.021649  184.813461  203.557039


........................................................................
.............................. CYCLE   21 ..............................
........................................................................

 iter      E             dE          RMSdq      gap      omega  full diag
   1    -42.3074957 -0.423075E+02  0.130E+00    0.45       0.0  T
   2    -42.1547510  0.152745E+00  0.193E+00    0.39       1.0  T
   3    -42.2562825 -0.101532E+00  0.146E+00    0.76       1.0  T
   4    -42.3082543 -0.519718E-01  0.766E-01    0.28       1.0  T
   5    -42.3272950 -0.190407E-01  0.109E-01    0.13       1.0  T
   6    -42.3274501 -0.155125E-03  0.534E-02    0.15       1.0  T
   7    -42.3274779 -0.277979E-04  0.270E-02    0.15       1.0  T
   8    -42.3274872 -0.928925E-05  0.932E-03    0.15       2.1  T
   9    -42.3274888 -0.163249E-05  0.331E-03    0.15       6.0  T
  10    -42.3274889 -0.102550E-06  0.145E-03    0.15      13.8  T
  11    -42.3274890 -0.285897E-07  0.563E-04    0.15      35.5  T
  12    -42.3274890 -0.455086E-08  0.293E-04    0.15      68.2  T
     SCC iter.                  ...        0 min,  0.016 sec
     gradient                   ...        0 min,  0.013 sec
 * total energy  :  -178.9213998 Eh     change       -0.7088220E-01 Eh
   gradient norm :     2.6830455 Eh/α   predicted     0.0000000E+00 (-100.00%)
   displ. norm   :     0.9962490 α      lambda       -0.2654930E+01
   maximum displ.:     0.9950753 α      in ANC's #1, #44, #49, ...

........................................................................
.............................. CYCLE   22 ..............................
........................................................................

 iter      E             dE          RMSdq      gap      omega  full diag
   1    -42.1192234 -0.421192E+02  0.210E+00    0.38       0.0  T
   2    -42.0255450  0.936784E-01  0.236E+00    0.16       1.0  T
   3    -42.1641231 -0.138578E+00  0.937E-01    0.15       1.0  T
   4    -42.1631981  0.924985E-03  0.512E-01    0.19       1.0  T
   5    -42.1682559 -0.505777E-02  0.219E-01    0.12       1.0  T
   6    -42.1690045 -0.748640E-03  0.175E-01    0.16       1.0  T
   7    -42.1700873 -0.108277E-02  0.477E-02    0.12       1.0  T
   8    -42.1701395 -0.521493E-04  0.151E-02    0.12       1.3  T
   9    -42.1701451 -0.569628E-05  0.713E-03    0.12       2.8  T
  10    -42.1701466 -0.141371E-05  0.240E-03    0.12       8.3  T
  11    -42.1701466 -0.290199E-07  0.128E-03    0.12      15.6  T
  12    -42.1701466 -0.464714E-07  0.597E-04    0.12      33.5  T
  13    -42.1701466 -0.673067E-08  0.265E-04    0.12      75.3  T
     SCC iter.                  ...        0 min,  0.018 sec
     gradient                   ...        0 min,  0.013 sec
 * total energy  :  -165.5872606 Eh     change        0.1333414E+02 Eh
   gradient norm :    40.5414395 Eh/α   predicted    -0.2654895E+01 (-119.91%)
   displ. norm   :     0.5982885 α      lambda       -0.2425436E+02
   maximum displ.:     0.5962715 α      in ANC's #1, #49, #51, ...

........................................................................
.............................. CYCLE   23 ..............................
........................................................................

 iter      E             dE          RMSdq      gap      omega  full diag
   1    -42.2288290 -0.422288E+02  0.140E+00    0.18       0.0  T
   2    -41.9505464  0.278283E+00  0.289E+00    1.24       1.0  T
   3    -42.2554158 -0.304869E+00  0.674E-01    0.17       1.0  T
   4    -42.2165097  0.389061E-01  0.113E+00    0.30       1.0  T
   5    -42.2625339 -0.460243E-01  0.156E-01    0.10       1.0  T
   6    -42.2630239 -0.489962E-03  0.618E-02    0.09       1.0  T
   7    -42.2631144 -0.904496E-04  0.181E-02    0.09       1.1  T
   8    -42.2631174 -0.305231E-05  0.864E-03    0.09       2.3  T
   9    -42.2631191 -0.167615E-05  0.280E-03    0.09       7.1  T
  10    -42.2631191 -0.351608E-07  0.120E-03    0.09      16.6  T
  11    -42.2631191 -0.131804E-07  0.522E-04    0.09      38.3  T
  12    -42.2631191 -0.451649E-08  0.255E-04    0.09      78.4  T
     SCC iter.                  ...        0 min,  0.016 sec
     gradient                   ...        0 min,  0.013 sec
 * total energy  :  -169.1037931 Eh     change       -0.3516533E+01 Eh
   gradient norm :   207.7708820 Eh/α   predicted    -0.1646816E+02 ( 368.31%)
   displ. norm   :     0.4145965 α      lambda       -0.8610755E+02
   maximum displ.:     0.4114094 α      in ANC's #1, #69, #61, ...

........................................................................
.............................. CYCLE   24 ..............................
........................................................................

 iter      E             dE          RMSdq      gap      omega  full diag
   1    -42.1821012 -0.421821E+02  0.101E+00    0.20       0.0  T
   2    -42.1299108  0.521904E-01  0.148E+00    0.22       1.0  T
   3    -42.1958302 -0.659193E-01  0.438E-01    0.11       1.0  T
   4    -42.1828062  0.130240E-01  0.592E-01    0.29       1.0  T
   5    -42.1960772 -0.132710E-01  0.141E-01    0.11       1.0  T
   6    -42.1967468 -0.669653E-03  0.325E-02    0.12       1.0  T
   7    -42.1967479 -0.107847E-05  0.237E-02    0.13       1.0  T
   8    -42.1967617 -0.138138E-04  0.719E-03    0.12       2.8  T
   9    -42.1967627 -0.978302E-06  0.388E-03    0.12       5.2  T
  10    -42.1967631 -0.374085E-06  0.142E-03    0.12      14.1  T
  11    -42.1967631 -0.346757E-07  0.533E-04    0.12      37.5  T
  12    -42.1967631 -0.990045E-08  0.115E-04    0.12     174.3  T
     SCC iter.                  ...        0 min,  0.016 sec
     gradient                   ...        0 min,  0.013 sec
 * total energy  :  -172.6904988 Eh     change       -0.3586706E+01 Eh
   gradient norm :    35.7992573 Eh/α   predicted    -0.5045443E+02 (1306.71%)
   displ. norm   :     0.1051672 α      lambda       -0.2222247E+01
   maximum displ.:     0.0596386 α      in ANC's #61, #69, #1, ...

........................................................................
.............................. CYCLE   25 ..............................
........................................................................

 iter      E             dE          RMSdq      gap      omega  full diag
   1    -42.1992893 -0.421993E+02  0.215E-01    0.14       0.0  T
   2    -42.1940026  0.528678E-02  0.402E-01    0.18       1.0  T
   3    -42.1998583 -0.585577E-02  0.101E-01    0.12       1.0  T
   4    -42.1996321  0.226203E-03  0.896E-02    0.12       1.0  T
   5    -42.1998602 -0.228118E-03  0.198E-02    0.12       1.0  T
   6    -42.1998687 -0.848090E-05  0.130E-02    0.12       1.5  T
   7    -42.1998722 -0.345922E-05  0.330E-03    0.12       6.1  T
   8    -42.1998727 -0.484059E-06  0.831E-04    0.12      24.1  T
   9    -42.1998727 -0.105149E-07  0.418E-04    0.12      47.8  T
     SCC iter.                  ...        0 min,  0.013 sec
     gradient                   ...        0 min,  0.013 sec
 * total energy  :  -174.5970079 Eh     change       -0.1906509E+01 Eh
   gradient norm :    32.7798837 Eh/α   predicted    -0.1123427E+01 ( -41.07%)
   displ. norm   :     0.8044497 α      lambda       -0.2564387E+02
   maximum displ.:     0.7610908 α      in ANC's #1, #61, #69, ...

........................................................................
.............................. CYCLE   26 ..............................
........................................................................

 iter      E             dE          RMSdq      gap      omega  full diag
   1    -42.3143009 -0.423143E+02  0.206E+00    0.10       0.0  T
   2    -41.9956838  0.318617E+00  0.339E+00    1.55       1.0  T
   3    -42.3496130 -0.353929E+00  0.116E+00    0.33       1.0  T
   4    -42.3200580  0.295550E-01  0.157E+00    0.80       1.0  T
   5    -42.3929766 -0.729186E-01  0.310E-01    0.21       1.0  T
   6    -42.3953168 -0.234013E-02  0.126E-01    0.19       1.0  T
   7    -42.3958050 -0.488180E-03  0.496E-02    0.15       1.0  T
   8    -42.3958561 -0.511959E-04  0.129E-02    0.15       1.6  T
   9    -42.3958590 -0.281112E-05  0.678E-03    0.15       3.0  T
  10    -42.3958595 -0.564563E-06  0.310E-03    0.15       6.4  T
  11    -42.3958596 -0.112771E-06  0.157E-03    0.15      12.8  T
  12    -42.3958597 -0.616876E-07  0.594E-04    0.15      33.7  T
  13    -42.3958597 -0.611473E-08  0.246E-04    0.15      81.3  T
     SCC iter.                  ...        0 min,  0.018 sec
     gradient                   ...        0 min,  0.013 sec
 * total energy  :  -178.0975082 Eh     change       -0.3500500E+01 Eh
   gradient norm :    19.5690722 Eh/α   predicted    -0.2111954E+02 ( 503.33%)
   displ. norm   :     0.2899166 α      lambda       -0.5664129E+01
   maximum displ.:     0.2322770 α      in ANC's #1, #69, #61, ...

........................................................................
.............................. CYCLE   27 ..............................
........................................................................

 iter      E             dE          RMSdq      gap      omega  full diag
   1    -42.3205636 -0.423206E+02  0.618E-01    0.14       0.0  T
   2    -42.3053455  0.152181E-01  0.845E-01    0.12       1.0  T
   3    -42.3208315 -0.154860E-01  0.387E-01    0.27       1.0  T
   4    -42.3139409  0.689055E-02  0.572E-01    0.18       1.0  T
   5    -42.3265501 -0.126092E-01  0.104E-01    0.13       1.0  T
   6    -42.3267311 -0.180985E-03  0.331E-02    0.13       1.0  T
   7    -42.3267617 -0.305651E-04  0.118E-02    0.13       1.7  T
   8    -42.3267638 -0.213105E-05  0.537E-03    0.12       3.7  T
   9    -42.3267644 -0.608699E-06  0.183E-03    0.13      11.0  T
  10    -42.3267644  0.468710E-07  0.146E-03    0.13      13.7  T
  11    -42.3267644 -0.717702E-07  0.549E-04    0.13      36.4  T
  12    -42.3267644 -0.516969E-08  0.192E-04    0.13     104.3  T
     SCC iter.                  ...        0 min,  0.016 sec
     gradient                   ...        0 min,  0.013 sec
================
 final structure:
================
25
 xtb: 6.6.1 (8d0f1dd)
C            3.21786164340000        1.13591514650000        0.01837059260000
N            2.27034809790000        0.05199982890000        0.00038279530000
C            2.54167221030000       -1.23971668410000       -0.00834188300000
N            1.39367826450000       -1.95088267900000       -0.00850347120000
C            0.35269634020000       -1.06748964300000        0.00059917290000
C            0.90759959010000        0.20069750900000        0.00663590170000
C            0.07590235260000        1.39864294500000       -0.00284827040000
O            0.48715076820000        2.53168346660000       -0.01725767220000
N           -1.27221500230000        1.06666939660000        0.00165480230000
C           -2.23229981500000        2.16656245330000       -0.00245172030000
C           -1.84872931540000       -0.19179276200000        0.00496135950000
O           -3.03273030250000       -0.36103538130000        0.00858583760000
N           -0.96599111670000       -1.30060631840000        0.00174701630000
C           -1.52030655580000       -2.64076660390000       -0.00239033190000
H            3.71480285180000        1.18589984860000        0.98803183970000
H            3.97079415090000        0.99383197990000       -0.75543416370000
H            2.68321036910000        2.07051068580000       -0.15067179540000
H            3.52469367910000       -1.66989040330000       -0.01523639120000
H           -1.67672429040000        3.10039111610000        0.00486339690000
H           -2.85755792270000        2.10547813320000       -0.89185337000000
H           -2.87119733260000        2.09858159720000        0.87661144540000
H           -1.20589108080000       -3.18768007210000        0.88663215920000
H           -1.21982032550000       -3.17678505510000       -0.90288069810000
H           -2.60531402170000       -2.54255916880000        0.00649952960000
H            1.32879827740000       -2.95942079410000       -0.01653446370000

 Bond Distances (Angstroems)
 ---------------------------
C1-N2=1.4398         C1-H15=1.0907        C1-H16=1.0890        C1-H17=1.0899        N2-C1=1.4398         N2-C3=1.3199         
N2-C6=1.3709         C3-N2=1.3199         C3-N4=1.3504         C3-H18=1.0730        N4-C3=1.3504         N4-C5=1.3653         
N4-H25=1.0107        C5-N4=1.3653         C5-C6=1.3843         C5-N13=1.3391        C6-N2=1.3709         C6-C5=1.3843         
C6-C7=1.4584         C7-C6=1.4584         C7-O8=1.2055         C7-N9=1.3884         O8-C7=1.2055         N9-C7=1.3884         
N9-C10=1.4600        N9-C11=1.3842        C10-N9=1.4600        C10-H19=1.0866       C10-H20=1.0889       C10-H21=1.0888       
C11-N9=1.3842        C11-O12=1.1960       C11-N13=1.4173       O12-C11=1.1960       N13-C5=1.3391        N13-C11=1.4173       
N13-C14=1.4503       C14-N13=1.4503       C14-H22=1.0901       C14-H23=1.0902       C14-H24=1.0895       H15-C1=1.0907        
H16-C1=1.0890        H17-C1=1.0899        H18-C3=1.0730        H19-C10=1.0866       H20-C10=1.0889       H21-C10=1.0888       
H22-C14=1.0901       H23-C14=1.0902       H24-C14=1.0895       H25-N4=1.0107        
 C  H  Rav=1.0877 sigma=0.0050  Rmin=1.0730  Rmax=1.0907    10
 C  C  Rav=1.4213 sigma=0.0370  Rmin=1.3843  Rmax=1.4584     2
 N  H  Rav=1.0107 sigma=0.0000  Rmin=1.0107  Rmax=1.0107     1
 N  C  Rav=1.3896 sigma=0.0445  Rmin=1.3199  Rmax=1.4600    11
 O  C  Rav=1.2007 sigma=0.0047  Rmin=1.1960  Rmax=1.2055     2

 selected bond angles (degree)
 --------------------
H15-C1-N2=110.21               H16-C1-N2=110.36               H16-C1-H15=108.82              H17-C1-N2=108.71               
H17-C1-H15=108.79              H17-C1-H16=109.93              C3-N2-C1=126.98                C6-N2-C1=124.92                
C6-N2-C3=108.09                N4-C3-N2=109.91                H18-C3-N2=125.50               H18-C3-N4=124.59               
C5-N4-C3=107.90                H25-N4-C3=125.46               H25-N4-C5=126.64               C6-C5-N4=106.69                
N13-C5-N4=129.66               N13-C5-C6=123.66               C5-C6-N2=107.40                C7-C6-N2=130.99                
C7-C6-C5=121.59                O8-C7-C6=125.28                N9-C7-C6=110.94                N9-C7-O8=123.78                
C10-N9-C7=117.28               C11-N9-C7=128.45               C11-N9-C10=114.27              H19-C10-N9=108.13              
H20-C10-N9=109.73              H20-C10-H19=110.32             H21-C10-N9=109.67              H21-C10-H19=110.38             
H21-C10-H20=108.60             

 selected dihedral angles (degree)
 ---------------------------------
C3-N2-C1-H15=289.54           C3-N2-C1-H16= 49.76           C3-N2-C1-H17=170.39           C6-N2-C1-H15=108.66           
C6-N2-C1-H16=228.88           C6-N2-C1-H17=349.51           N4-C3-N2-C1=179.26            N4-C3-N2-C6=  0.00            
H18-C3-N2-C1=359.21           H18-C3-N2-C6=179.97           C5-N4-C3-N2=  0.00            C5-N4-C3-H18=180.05           
H25-N4-C3-N2=179.85           H25-N4-C3-H18=359.90          C6-C5-N4-C3=  0.00            C6-C5-N4-H25=180.14           
N13-C5-N4-C3=179.88           N13-C5-N4-H25=  0.03          C5-C6-N2-C1=180.71            C5-C6-N2-C3=359.97            
C7-C6-N2-C1=  1.78            C7-C6-N2-C3=181.03            N2-C6-C5-N4=  0.03            N2-C6-C5-N13=180.13           
C7-C6-C5-N4=179.08            C7-C6-C5-N13=359.18           O8-C7-C6-N2=359.91            O8-C7-C6-C5=181.10            
N9-C7-C6-N2=179.67            N9-C7-C6-C5=  0.86            C10-N9-C7-C6=179.81           C10-N9-C7-O8=359.58           
C11-N9-C7-C6=359.56           C11-N9-C7-O8=179.33           H19-C10-N9-C7=359.25          H19-C10-N9-C11=179.46         
H20-C10-N9-C7=119.63          H20-C10-N9-C11=299.84         H21-C10-N9-C7=238.84          H21-C10-N9-C11= 59.06         
           -------------------------------------------------
          |                Final Singlepoint                |
           -------------------------------------------------

          ...................................................
          :                      SETUP                      :
          :.................................................:
          :  # basis functions                  67          :
          :  # atomic orbitals                  67          :
          :  # shells                           39          :
          :  # electrons                        74          :
          :  max. iterations                   250          :
          :  Hamiltonian                  GFN2-xTB          :
          :  restarted?                      false          :
          :  GBSA solvation                  false          :
          :  PC potential                    false          :
          :  electronic temp.         5000.0000000     K    :
          :  accuracy                    1.0000000          :
          :  -> integral cutoff          0.2500000E+02      :
          :  -> integral neglect         0.1000000E-07      :
          :  -> SCF convergence          0.1000000E-05 Eh   :
          :  -> wf. convergence          0.1000000E-03 e    :
          :  Broyden damping             0.4000000          :
          ...................................................

 iter      E             dE          RMSdq      gap      omega  full diag
   1    -42.6169730 -0.426170E+02  0.325E+00    2.04       0.0  T
   2    -42.7319271 -0.114954E+00  0.214E+00    3.39       1.0  T
   3    -42.7742743 -0.423472E-01  0.122E+00    3.23       1.0  T
   4    -42.7766010 -0.232667E-02  0.408E-01    3.37       1.0  T
   5    -42.7789584 -0.235742E-02  0.102E-01    3.33       1.0  T
   6    -42.7790587 -0.100261E-03  0.502E-02    3.35       1.0  T
   7    -42.7790764 -0.177434E-04  0.152E-02    3.34       1.3  T
   8    -42.7790778 -0.138425E-05  0.573E-03    3.34       3.5  T
   9    -42.7790779 -0.116331E-06  0.228E-03    3.34       8.8  T
  10    -42.7790780 -0.505615E-07  0.868E-04    3.34      23.0  T
  11    -42.7790780 -0.384392E-08  0.400E-04    3.34      50.0  T

   *** convergence criteria satisfied after 11 iterations ***

         #    Occupation            Energy/Eh            Energy/eV
      -------------------------------------------------------------
         1        2.0000           -0.9185951             -24.9962
       ...           ...                  ...                  ...
        31        1.9996           -0.6230273             -16.9534
        32        1.9995           -0.6194612             -16.8564
        33        1.9979           -0.5975005             -16.2588
        34        1.9932           -0.5789655             -15.7545
        35        1.9817           -0.5631915             -15.3252
        36        1.9779           -0.5602281             -15.2446
        37        1.9748           -0.5581222             -15.1873 (HOMO)
        38        0.0652           -0.4353569             -11.8467 (LUMO)
        39        0.0099           -0.4050438             -11.0218
        40        0.0013           -0.3732228             -10.1559
        41        0.0000           -0.2886867              -7.8556
        42                         -0.2065791              -5.6213
       ...                                ...                  ...
        67                          0.5625633              15.3081
      -------------------------------------------------------------
                  HL-Gap            0.1227654 Eh            3.3406 eV
             Fermi-level           -0.4890460 Eh          -13.3076 eV

 SCC (total)                   0 d,  0 h,  0 min,  0.034 sec
 SCC setup                      ...        0 min,  0.000 sec (  0.579%)
 Dispersion                     ...        0 min,  0.000 sec (  0.580%)
 classical contributions        ...        0 min,  0.000 sec (  0.227%)
 integral evaluation            ...        0 min,  0.005 sec ( 14.956%)
 iterations                     ...        0 min,  0.015 sec ( 44.875%)
 molecular gradient             ...        0 min,  0.013 sec ( 38.374%)
 printout                       ...        0 min,  0.000 sec (  0.369%)

         :::::::::::::::::::::::::::::::::::::::::::::::::::::
         ::                     SUMMARY                     ::
         :::::::::::::::::::::::::::::::::::::::::::::::::::::
         :: total energy             -46.010168062757 Eh    ::
         :: gradient norm              7.760617294457 Eh/a0 ::
         :: HOMO-LUMO gap              3.340615224717 eV    ::
         ::.................................................::
         :: SCC energy               -42.779077975846 Eh    ::
         :: -> isotropic ES            0.141134322836 Eh    ::
         :: -> anisotropic ES         -0.005230638897 Eh    ::
         :: -> anisotropic XC          0.011967010523 Eh    ::
         :: -> dispersion             -0.022657717471 Eh    ::
         :: repulsion energy           0.531105277918 Eh    ::
         :: add. restraining          -3.762309523838 Eh    ::
         :: total charge               1.000000000002 e     ::
         :::::::::::::::::::::::::::::::::::::::::::::::::::::


last geometry written to: xtblast.xyz

########################################################################
[ERROR] Program stopped due to fatal error
-5- Geometry optimization failed
-4- xtb_geoopt: Trying to recover from failed geometry optimization
-3- xtb_geoopt: Geometry optimization did not converge
-2- optimizer_ancopt: Could not relax structure
-1- optimizer_relax: |grad| > 500, something is totally wrong!
########################################################################
