25
 energy: -46.010168064376 gnorm: 7.760616740540 xtb: 6.6.1 (8d0f1dd)
C            3.21786164340000        1.13591514650000        0.01837059260000
N            2.27034809790000        0.05199982890000        0.00038279530000
C            2.54167221030000       -1.23971668410000       -0.00834188300000
N            1.39367826450000       -1.95088267900000       -0.00850347120000
C            0.35269634020000       -1.06748964300000        0.00059917290000
C            0.90759959010000        0.20069750900000        0.00663590170000
C            0.07590235260000        1.39864294500000       -0.00284827040000
O            0.48715076820000        2.53168346660000       -0.01725767220000
N           -1.27221500230000        1.06666939660000        0.00165480230000
C           -2.23229981500000        2.16656245330000       -0.00245172030000
C           -1.84872931540000       -0.19179276200000        0.00496135950000
O           -3.03273030250000       -0.36103538130000        0.00858583760000
N           -0.96599111670000       -1.30060631840000        0.00174701630000
C           -1.52030655580000       -2.64076660390000       -0.00239033190000
H            3.71480285180000        1.18589984860000        0.98803183970000
H            3.97079415090000        0.99383197990000       -0.75543416370000
H            2.68321036910000        2.07051068580000       -0.15067179540000
H            3.52469367910000       -1.66989040330000       -0.01523639120000
H           -1.67672429040000        3.10039111610000        0.00486339690000
H           -2.85755792270000        2.10547813320000       -0.89185337000000
H           -2.87119733260000        2.09858159720000        0.87661144540000
H           -1.20589108080000       -3.18768007210000        0.88663215920000
H           -1.21982032550000       -3.17678505510000       -0.90288069810000
H           -2.60531402170000       -2.54255916880000        0.00649952960000
H            1.32879827740000       -2.95942079410000       -0.01653446370000
25
 energy: -57.570092880093 gnorm: 15.396607912298 xtb: 6.6.1 (8d0f1dd)
C            3.21274417731237        1.13676127394554        0.02239631511136
N            2.27045245496412        0.05168607339406        0.00072519115697
C            2.54185946787033       -1.23993715002733       -0.00837482437249
N            1.39353028856862       -1.95099763417290       -0.00849187600878
C            0.35261367403924       -1.06745585608493        0.00061098030137
C            0.91276513458402        0.19833398843612        0.00636689647594
C            0.43299044801518        1.35998535116544       -0.07511960901378
O            0.49228312765190        2.53376483945218       -0.01751622591499
N           -1.26329023578310        1.06680883200785        0.00137087945919
C           -2.23163256270832        2.16641468131530       -0.00240850480822
C           -1.84840748758968       -0.19159543375606        0.00495569675144
O           -3.03277072522440       -0.36091525337150        0.00862559306016
N           -0.96613036639099       -1.30056856102639        0.00171422661170
C           -1.52031052070973       -2.64074732676604       -0.00239161424021
H            3.71514751879159        1.18586782699415        0.98792001431302
H            3.59853379462849        1.03216707362530       -0.68681908456868
H            2.68303824679845        2.07055264827708       -0.15050113245465
H            3.52468946686117       -1.66988355113432       -0.01523683095918
H           -1.67674842809963        3.10042518274061        0.00485507091289
H           -2.85755168459702        2.10545375574062       -0.89183329840187
H           -2.87117116966247        2.09856665166461        0.87661492270585
H           -1.20588259939475       -3.18768335633896        0.88662937688217
H           -1.21981198564755       -3.17678747181603       -0.90288171928751
H           -2.60531167835162       -2.54256757162503        0.00649795023085
H            1.32880315817376       -2.95941047103936       -0.01653677604254
25
 energy: -76.839293242105 gnorm: 23.332312428745 xtb: 6.6.1 (8d0f1dd)
C            3.20392249092742        1.13875021408008        0.03423741523688
N            2.27088216849486        0.05075021509165        0.00130797574132
C            2.54212336529486       -1.24008055222244       -0.00831243035675
N            1.39342303514865       -1.95097724537304       -0.00844983572127
C            0.35198335602403       -1.06788491113289        0.00058889641724
C            0.91780279494200        0.19408738324444        0.00631695939992
C            0.79488736345395        1.32461260579168       -0.14776111962922
O            0.49652393917333        2.53565921731594       -0.01783512658459
N           -1.25751676090119        1.06604928227616        0.00103991137475
C           -2.23076098440375        2.16609100272617       -0.00244311513537
C           -1.84798599788022       -0.19056513882841        0.00488239389610
O           -3.03302435464089       -0.36103457125454        0.00859359215672
N           -0.96575824041875       -1.30070410402002        0.00166402544467
C           -1.52026925663945       -2.64073689093087       -0.00242755062744
H            3.71546732339071        1.18586498532451        0.98784506259417
H            3.22894727319619        1.06950230578611       -0.62599872557167
H            2.68264597167053        2.07084762810716       -0.15000586097942
H            3.52471185303725       -1.66986998770945       -0.01515282453137
H           -1.67676204231206        3.10043659733227        0.00481257267459
H           -2.85753216298595        2.10539965583626       -0.89189849944248
H           -2.87116422645918        2.09850982098016        0.87655920184466
H           -1.20587384089568       -3.18769925431995        0.88659744719612
H           -1.21976312938024       -3.17680260123606       -0.90291377014256
H           -2.60529815534969       -2.54257771352952        0.00643571473408
H            1.32881973161327       -2.95938940173536       -0.01651069208908
25
 energy: -104.329814388383 gnorm: 31.652244611837 xtb: 6.6.1 (8d0f1dd)
C            3.20002253094225        1.14165483214854        0.05917661377783
N            2.27160858031326        0.04907921735806        0.00236822404532
C            2.54247114280427       -1.24025121004311       -0.00805276688802
N            1.39342942432834       -1.95091487258887       -0.00832864909755
C            0.35135635032855       -1.06844961740706        0.00057122435301
C            0.92120868884519        0.18740674984905        0.00697853389020
C            1.15756226582286        1.29490741002768       -0.22138262802679
O            0.50008291484182        2.53515648967837       -0.01831012027787
N           -1.25433327066754        1.06524396157953        0.00071318198853
C           -2.23006422463449        2.16564192169099       -0.00265091911589
C           -1.84759589326558       -0.18960795007675        0.00468279303358
O           -3.03334949407838       -0.36128503002853        0.00832139024941
N           -0.96542015382746       -1.30084631889636        0.00154081623696
C           -1.52016524849230       -2.64075075000901       -0.00258260215893
H            3.71572515081913        1.18594133416295        0.98799825133846
H            2.85841243454769        1.10606028880875       -0.57792254370455
H            2.68207920908938        2.07154642621069       -0.14908354127316
H            3.52477940816977       -1.66979004218557       -0.01481858344268
H           -1.67682952708931        3.10039607464487        0.00464042940827
H           -2.85750506582183        2.10528658635198       -0.89219100865857
H           -2.87128520309501        2.09839713575091        0.87629569683663
H           -1.20585646611249       -3.18774577980530        0.88647107782696
H           -1.21957741029756       -3.17684950525105       -0.90304261419400
H           -2.60522911534912       -2.54264952804734        0.00617735487142
H            1.32890448597854       -2.95933928232342       -0.01639799311856
25
 energy: -139.906772904195 gnorm: 39.448446071889 xtb: 6.6.1 (8d0f1dd)
C            3.20346557653135        1.14249994184610        0.07067370009733
N            2.27253485646166        0.04685327052870        0.00326511084006
C            2.54282668119313       -1.24061222554499       -0.00818932274786
N            1.39345864112370       -1.95097627336692       -0.00842524276840
C            0.35086855988799       -1.06871603675722        0.00051893164339
C            0.92217714485247        0.18241145601838        0.00763226403777
C            1.51707980098010        1.26264917739119       -0.29811029624815
O            0.50333326225433        2.53415802390165       -0.01883533651187
N           -1.25207593765176        1.06489273966479        0.00070974726269
C           -2.22948825912920        2.16528294876887       -0.00246538784173
C           -1.84725052915158       -0.18885094928787        0.00479883872105
O           -3.03362407657522       -0.36140766622801        0.00852479901037
N           -0.96529679808973       -1.30093457524091        0.00157705018128
C           -1.52013223699990       -2.64071595124142       -0.00251434326884
H            3.71616929701520        1.18593629847646        0.98778173282544
H            2.48723879900923        1.14576891385852       -0.51478772636553
H            2.68167361909206        2.07237386292035       -0.14859377052710
H            3.52480908365324       -1.66981283531428       -0.01502609162386
H           -1.67681524390321        3.10038688289396        0.00478377107655
H           -2.85756801421703        2.10527197826802       -0.89199549809737
H           -2.87123244058238        2.09836695835944        0.87652035232432
H           -1.20578758691591       -3.18776601900960        0.88651751148854
H           -1.21961748385440       -3.17685025320987       -0.90299835949498
H           -2.60522481181031       -2.54264919862704        0.00631475616075
H            1.32890961092618       -2.95932192746833       -0.01650557227386
25
 energy: -177.908506186832 gnorm: 17.178105933189 xtb: 6.6.1 (8d0f1dd)
C            3.20416174309966        1.14251906590760        0.07239754548428
N            2.27385969971919        0.04425810198265        0.00374171357177
C            2.54300468614458       -1.24110685662704       -0.00884184271576
N            1.39341804964195       -1.95124626116058       -0.00875560568488
C            0.35058307571645       -1.06855265300735        0.00038989546715
C            0.92260757455441        0.18021512394897        0.00772527255605
C            1.87625750699261        1.22319876737958       -0.37921031762221
O            0.50605472250422        2.53399640453617       -0.01915662414419
N           -1.25003209964074        1.06487971928805        0.00102296320881
C           -2.22884575792450        2.16516522797657       -0.00179418257782
C           -1.84692184001840       -0.18818968806974        0.00532245097818
O           -3.03383110235274       -0.36123317683647        0.00938329192231
N           -0.96540581863631       -1.30091277151022        0.00185037401498
C           -1.52029207836066       -2.64056719456768       -0.00209611896257
H            3.71675273788840        1.18566515493073        0.98707105571241
H            2.11988518052541        1.18896489470458       -0.43896441059260
H            2.68205259764456        2.07300917499251       -0.14879676760630
H            3.52472233979325       -1.67007892511322       -0.01593904449451
H           -1.67656735183767        3.10050811978097        0.00529563115746
H           -2.85765219330821        2.10547750566458       -0.89118108064816
H           -2.87083957537875        2.09855974901916        0.87736168631475
H           -1.20576716886803       -3.18768738168447        0.88684633897472
H           -1.22007652458010       -3.17675207211618       -0.90266932954985
H           -2.60539860456310       -2.54245046935078        0.00702374102359
H            1.32870171534453       -2.95940101846841       -0.01685501788762
25
 energy: -177.611553739667 gnorm: 32.792081402416 xtb: 6.6.1 (8d0f1dd)
C            3.21201917753039        1.14101055077877        0.07251836382542
N            2.27878074372545        0.03225854042109        0.00678276737189
C            2.54372884687645       -1.24266170192710       -0.01048345923280
N            1.39286442254537       -1.95211352088166       -0.00941609162784
C            0.35031102987015       -1.06764588727184       -0.00004331107499
C            0.91965547991982        0.18077740946805        0.00906449038647
C            2.06269665789274        1.19079721487696       -0.44105686169107
O            0.50713021286166        2.53394295225737       -0.01927578549234
N           -1.25223759454009        1.06496133781368        0.00180367713570
C           -2.22720377202057        2.16507791255141       -0.00052476263428
C           -1.84596464207970       -0.18642629935443        0.00643096630365
O           -3.03439276938250       -0.36045730404077        0.01119918553488
N           -0.96576663729029       -1.30068831650824        0.00253962736066
C           -1.52096583660774       -2.64004132931221       -0.00103724875158
H            3.71794553606894        1.18453087247242        0.98667757002398
H            1.92042740297768        1.22906170231875       -0.38984365528332
H            2.68566088716084        2.07544008595685       -0.14923840824473
H            3.52434545279807       -1.67116230157325       -0.01781009698022
H           -1.67551480618268        3.10101545982910        0.00619935547675
H           -2.85751696220170        2.10627723686768       -0.88961942936472
H           -2.86971314421795        2.09942908912453        0.87904928274810
H           -1.20616301335339       -3.18729418131476        0.88773519656456
H           -1.22148704125076       -3.17641563840767       -0.90178899995775
H           -2.60610396215216       -2.54164916319799        0.00867973817843
H            1.32789584515195       -2.95978617934674       -0.01737049267486
25
 energy: -155.934532492811 gnorm: 41.651769481655 xtb: 6.6.1 (8d0f1dd)
C            3.22040804324488        1.13677741059034        0.06735775651691
N            2.28054130829083        0.02407584934723        0.00477023357371
C            2.54309018379568       -1.24620005175677       -0.01513470518593
N            1.39063683031450       -1.95385682035767       -0.01151492952402
C            0.34927487070214       -1.06749669139725       -0.00042890208802
C            0.91727348581986        0.18082740892762        0.00881751798921
C            2.29728498273791        1.10306971123775       -0.55508490482994
O            0.50883425312221        2.53350762121722       -0.02025360072846
N           -1.25380824184740        1.06633584158423        0.00431651139236
C           -2.22424871254005        2.16743109675547        0.00354720635034
C           -1.84561870161633       -0.18359462531643        0.01025264632719
O           -3.03492918559454       -0.35690807136765        0.01734283841649
N           -0.96716441935148       -1.29946287320192        0.00491139569369
C           -1.52387828899922       -2.63812819170061        0.00268670223893
H            3.72148536460743        1.18061749344737        0.98039730947993
H            1.68258723638693        1.31674088960519       -0.28958013320340
H            2.68923824279251        2.07436190788593       -0.15410923229841
H            3.52254073987462       -1.67514518733667       -0.02401343406612
H           -1.67175912732326        3.10307834730904        0.00900425251196
H           -2.85670553382676        2.10951216018364       -0.88435947094304
H           -2.86551041518808        2.10305049883716        0.88439865680820
H           -1.20802489696777       -3.18558737742453        0.89096458432641
H           -1.22678590617030       -3.17506737786261       -0.89854368965801
H           -2.60891611509485       -2.53849737390250        0.01446833254069
H            1.32458551693054       -2.96120305370358       -0.01904132374066
25
 energy: -170.414928494772 gnorm: 37.864802194527 xtb: 6.6.1 (8d0f1dd)
C            3.22927678914369        1.13932761314599        0.07762384256106
N            2.28094208795884        0.02007876860927        0.01001829735346
C            2.54493173095626       -1.24537543385465       -0.01266061999259
N            1.39219126998408       -1.95310673054381       -0.01040261727312
C            0.35004068882333       -1.06698330142235       -0.00045886762195
C            0.91554412711547        0.18065481188566        0.01119791534351
C            2.18288871770487        1.16561792015291       -0.49880306682870
O            0.50740905050331        2.53393706731243       -0.01922244537354
N           -1.25491680211733        1.06489272633716        0.00285223661950
C           -2.22554776430976        2.16496822043836        0.00120174716066
C           -1.84497675684527       -0.18453816181289        0.00786503139169
O           -3.03499187760898       -0.35968876983680        0.01353075110806
N           -0.96616089470978       -1.30046129420581        0.00335427933273
C           -1.52165977266925       -2.63948733370990        0.00021699750532
H            3.71971954737506        1.18353469088660        0.98573611612137
H            1.78320671676787        1.26355175559881       -0.35259036526962
H            2.68813281078582        2.07867793414984       -0.14988838774869
H            3.52397116306303       -1.67233516393511       -0.02024255912003
H           -1.67441028620148        3.10152266973252        0.00748953925954
H           -2.85749974031222        2.10712818729415       -0.88750523998729
H           -2.86841307372044        2.10030358660359        0.88129584964945
H           -1.20643425986722       -3.18691542555726        0.88876294317158
H           -1.22307080008630       -3.17604719642870       -0.90077070229048
H           -2.60682856615677       -2.54082009469455        0.01072301491440
H            1.32708740852319       -2.96019850454545       -0.01815207208634
25
 energy: -177.640853100943 gnorm: 20.095942446540 xtb: 6.6.1 (8d0f1dd)
C            3.23505522365628        1.13796823353392        0.07968937689592
N            2.28234051727853        0.01661034660102        0.01317405260236
C            2.54555719410641       -1.24643484589993       -0.01071317442776
N            1.39220045967215       -1.95342671235894       -0.00916969669536
C            0.35001647021010       -1.06676113703599       -0.00028567566195
C            0.91236966104654        0.18041895508112        0.01317231349365
C            1.85136898147712        1.20203284252112       -0.40935391544427
O            0.50635296651407        2.53340895845318       -0.01909040064414
N           -1.25822914914378        1.06463184895907        0.00160876148214
C           -2.22516989603123        2.16462159626927       -0.00105476236238
C           -1.84459622396522       -0.18391770105174        0.00623536526730
O           -3.03523536146863       -0.35976520792044        0.01093776764431
N           -0.96618666984935       -1.30051201889653        0.00261417603723
C           -1.52165524869813       -2.63942818928702       -0.00080499998135
H            3.71924431859861        1.18374259155131        0.98959226255432
H            2.11315857348724        1.23195727573439       -0.44320643139260
H            2.68925301593058        2.08053974153827       -0.14744975489327
H            3.52405154441684       -1.67247783689526       -0.01718396524140
H           -1.67428856783272        3.10152164374349        0.00557388569329
H           -2.85672210789707        2.10704120961540       -0.89030135743177
H           -2.86911295900166        2.10044839912704        0.87854857815515
H           -1.20720775566455       -3.18679337520192        0.88807290304657
H           -1.22235880490820       -3.17615983268310       -0.90148149886664
H           -2.60686308704122       -2.54077447108491        0.00878392279221
H            1.32708841920729       -2.96025377281284       -0.01673611472157
25
 energy: -177.593492059376 gnorm: 35.346554397679 xtb: 6.6.1 (8d0f1dd)
C            3.22971620879183        1.14316847469110        0.08936856674952
N            2.28548078429072        0.01446822646843        0.01961317582430
C            2.54828429542895       -1.24387939298674       -0.00759795006907
N            1.39531221881723       -1.95180506395667       -0.00799249549666
C            0.35128959174769       -1.06585713817352       -0.00065759001649
C            0.91630950407773        0.17880011744424        0.01567021677794
C            1.96326847237971        1.28552758738646       -0.38298091142644
O            0.50846457960418        2.53639459459751       -0.01744166599930
N           -1.25100192818481        1.06217960643443       -0.00046206211536
C           -2.22745530161045        2.15995208782111       -0.00378661865148
C           -1.84365203581783       -0.18607117424746        0.00292689985794
O           -3.03499659318680       -0.36501485567568        0.00567729960765
N           -0.96416610164368       -1.30236784920625        0.00021791000662
C           -1.51733690313845       -2.64212590910369       -0.00470889217958
H            3.71643066994853        1.18921587497044        0.99777588519500
H            1.97199253411852        1.16063039928332       -0.47213041719954
H            2.68818055602034        2.08714176052185       -0.14095325081566
H            3.52691360464634       -1.66696327229665       -0.01235209488998
H           -1.67953732944038        3.09851432347221        0.00412593398386
H           -2.85888466838850        2.10244050908279       -0.89415295154426
H           -2.87415029080084        2.09499321993167        0.87471369614170
H           -1.20347696990917       -3.18946307398395        0.88441558637635
H           -1.21571116575112       -3.17799221377862       -0.90516814407976
H           -2.60276634530943       -2.54533258974394        0.00313575933855
H            1.33192412740971       -2.95831570735240       -0.01608426747585
25
 energy: -149.203393756155 gnorm: 41.615245804576 xtb: 6.6.1 (8d0f1dd)
C            3.22771256448796        1.15518844933039        0.10509246625282
N            2.28930260571309        0.01607921716590        0.03199470334541
C            2.55403633031114       -1.23571615837157        0.00054188143954
N            1.40312467446377       -1.94716746704457       -0.00509885140757
C            0.35503516967703       -1.06427058595332       -0.00126981246339
C            0.91415438331835        0.18070459618606        0.02083947243386
C            2.25600885877958        1.49257497052458       -0.30848255861632
O            0.50046432284482        2.53805830888658       -0.01293958224734
N           -1.25532688443320        1.05607420328153       -0.00480127296947
C           -2.23557231190250        2.14936491610099       -0.01061536154123
C           -1.84243377407239       -0.19293856212315       -0.00520067608580
O           -3.03425061051539       -0.37822147305792       -0.00739941314452
N           -0.95905873223803       -1.30698063353813       -0.00565153337456
C           -1.50672395646834       -2.64892206461117       -0.01439218514074
H            3.70794494259286        1.20286796682508        1.01595172515623
H            1.65539459093205        0.97869241010772       -0.53820341535748
H            2.68274209018510        2.10085365677798       -0.12658968102229
H            3.53376681737302       -1.65310257263256       -0.00048831034764
H           -1.69260426047860        3.09101433173558        0.00063523865040
H           -2.86432971760263        2.09112470014489       -0.90363759785074
H           -2.88672941954795        2.08151693651160        0.86526669043459
H           -1.19423551110176       -3.19604885479602        0.87531883092865
H           -1.19927521450034       -3.18248326934139       -0.91427523130119
H           -2.59260494766818       -2.55663197093991       -0.01083207702514
H            1.34388950395055       -2.95339250956920       -0.01459183084607
25
 energy: -169.732984799461 gnorm: 38.490718724885 xtb: 6.6.1 (8d0f1dd)
C            3.23696284968423        1.14590969044547        0.09990807826439
N            2.28852159261103        0.01232883416717        0.02736002430466
C            2.55151982913950       -1.24100877498724       -0.00349736803146
N            1.39921435786256       -1.94975722493386       -0.00655116383298
C            0.35306842750098       -1.06488352760263       -0.00103138185181
C            0.91312512231738        0.18004747347399        0.01900685471653
C            2.09685130037046        1.38781605635318       -0.34766626896826
O            0.50418580728334        2.53631165243840       -0.01519122421870
N           -1.25653043053375        1.05900693668111       -0.00256874389973
C           -2.23112635749205        2.15447333160229       -0.00723918768643
C           -1.84276422532362       -0.18892630472410       -0.00110913881185
O           -3.03478365477721       -0.37155454033155       -0.00081701956954
N           -0.96162177422361       -1.30466763536263       -0.00268034885835
C           -1.51215972706521       -2.64546383474763       -0.00945977789356
H            3.71264008459751        1.19590770031339        1.00751843418824
H            1.81867181708664        1.07215294635173       -0.51056970195942
H            2.68863248652030        2.10040047484605       -0.13250571780728
H            3.53037343100889       -1.66032390140250       -0.00644806261798
H           -1.68585217312071        3.09481476852185        0.00232622847932
H           -2.86150260576592        2.09689030213245       -0.89892787491901
H           -2.88032709645363        2.08840723487125        0.86999628597301
H           -1.19900211388221       -3.19267059092842        0.87994736736269
H           -1.20765696161441       -3.18018736447151       -0.90960447731842
H           -2.59778278023170       -2.55084926312454       -0.00374843332685
H            1.33777430860120       -2.95593589798169       -0.01527576381720
25
 energy: -177.607525485285 gnorm: 20.633411254700 xtb: 6.6.1 (8d0f1dd)
C            3.23932337464277        1.13617958654351        0.08688262953426
N            2.29171142221433       -0.00030280576702        0.02227939995424
C            2.54815187002967       -1.25176600904629       -0.01139031463360
N            1.39251624189235       -1.95482261494153       -0.00930930921812
C            0.34930911437983       -1.06511262869465       -0.00102084311882
C            0.91495106784540        0.17544781429809        0.01783198114350
C            1.82424667504305        1.21382065243479       -0.42228262567853
O            0.51757080378726        2.53553752848111       -0.01940677320059
N           -1.24983963438666        1.06379447456425        0.00116404216686
C           -2.22173975143820        2.16240162972457       -0.00099519319254
C           -1.84242044061499       -0.18062890224504        0.00613464019404
O           -3.03601714469816       -0.36003242594865        0.01092300302444
N           -0.96620642586059       -1.30071760549895        0.00251386316580
C           -1.52145951932624       -2.63933052789735       -0.00084904463332
H            3.72151815675188        1.18399402837522        0.99515806104368
H            2.08863595713875        1.24258473040771       -0.45712937831155
H            2.69422929150279        2.08602003194045       -0.14453602947335
H            3.52473351723068       -1.67300464897566       -0.01708921304880
H           -1.67404374891372        3.10141070572651        0.00555124284009
H           -2.85665772342533        2.10687379677768       -0.89041106822173
H           -2.86910103147998        2.10027382644106        0.87861595296780
H           -1.20715519480554       -3.18689844475717        0.88799965983456
H           -1.22225140619535       -3.17621713686938       -0.90155213463938
H           -2.60677217237534       -2.54081530114040        0.00868589330212
H            1.32719821516134       -2.96045121233285       -0.01659682390108
25
 energy: -176.372286358143 gnorm: 61.943328412275 xtb: 6.6.1 (8d0f1dd)
C            3.23816589901845        1.13585556690140        0.09926395317349
N            2.30233811470153       -0.01498971075813        0.03363954614250
C            2.55213407782457       -1.25496697911595       -0.01007058881007
N            1.39472242824866       -1.95509382153228       -0.00866045208045
C            0.34929054642096       -1.06338030476980       -0.00195583524780
C            0.92135756992048        0.16961524950283        0.02289583669646
C            1.87372458035927        1.27323936882762       -0.41947091798454
O            0.52921999783217        2.53994542642369       -0.01869327173080
N           -1.23538207542603        1.06156877891136       -0.00061536866554
C           -2.22009696156441        2.15749345846292       -0.00260998124005
C           -1.84001375435653       -0.17917673783367        0.00401712088492
O           -3.03636450878718       -0.36347945243646        0.00769638393510
N           -0.96502887906913       -1.30202544773815        0.00100060918523
C           -1.51850804259002       -2.64072539336579       -0.00324945653685
H            3.72193462811852        1.18748787649451        1.00516099858402
H            1.96829206298436        1.20604808710138       -0.48552915582002
H            2.70131342852497        2.10020688143613       -0.13662079165183
H            3.52716197692405       -1.67005900059134       -0.01403312807327
H           -1.67711158714976        3.09947052074541        0.00460588981531
H           -2.85794157977501        2.10382381905974       -0.89286130090244