      -----------------------------------------------------------      
     |                   =====================                   |     
     |                           x T B                           |     
     |                   =====================                   |     
     |                         S. Grimme                         |     
     |          Mulliken Center for Theoretical Chemistry        |     
     |                    University of Bonn                     |     
      -----------------------------------------------------------      

   * xtb version 6.6.1 (8d0f1dd) compiled by 'conda@1efc2f54142f' on 2023-08-01

   xtb is free software: you can redistribute it and/or modify it under
   the terms of the GNU Lesser General Public License as published by
   the Free Software Foundation, either version 3 of the License, or
   (at your option) any later version.
   
   xtb is distributed in the hope that it will be useful,
   but WITHOUT ANY WARRANTY; without even the implied warranty of
   MERCHANTABILITY or FITNESS FOR A PARTICULAR PURPOSE.  See the
   GNU Lesser General Public License for more details.
   
   Cite this work as:
   * C. Bannwarth, E. Caldeweyher, S. Ehlert, A. Hansen, P. Pracht,
     J. Seibert, S. Spicher, S. Grimme, WIREs Comput. Mol. Sci., 2020, 11,
     e01493. DOI: 10.1002/wcms.1493
   
   for GFN2-xTB:
   * C. Bannwarth, S. Ehlert and S. Grimme., J. Chem. Theory Comput., 2019,
     15, 1652-1671. DOI: 10.1021/acs.jctc.8b01176
   for GFN1-xTB:
   * S. Grimme, C. Bannwarth, P. Shushkov, J. Chem. Theory Comput., 2017,
     13, 1989-2009. DOI: 10.1021/acs.jctc.7b00118
   for GFN0-xTB:
   * P. Pracht, E. Caldeweyher, S. Ehlert, S. Grimme, ChemRxiv, 2019, preprint.
     DOI: 10.26434/chemrxiv.8326202.v1
   for GFN-FF:
   * S. Spicher and S. Grimme, Angew. Chem. Int. Ed., 2020, 59, 15665-15673.
     DOI: 10.1002/anie.202004239
   
   for ALPB and GBSA implicit solvation:
   * S. Ehlert, M. Stahn, S. Spicher, S. Grimme, J. Chem. Theory Comput.,
     2021, 17, 4250-4261. DOI: 10.1021/acs.jctc.1c00471
   
   for DFT-D4:
   * E. Caldeweyher, C. Bannwarth and S. Grimme, J. Chem. Phys., 2017,
     147, 034112. DOI: 10.1063/1.4993215
   * E. Caldeweyher, S. Ehlert, A. Hansen, H. Neugebauer, S. Spicher,
     C. Bannwarth and S. Grimme, J. Chem. Phys., 2019, 150, 154122.
     DOI: 10.1063/1.5090222
   * E. Caldeweyher, J.-M. Mewes, S. Ehlert and S. Grimme, Phys. Chem. Chem. Phys.
     2020, 22, 8499-8512. DOI: 10.1039/D0CP00502A
   
   for sTDA-xTB:
   * S. Grimme and C. Bannwarth, J. Chem. Phys., 2016, 145, 054103.
     DOI: 10.1063/1.4959605
   
   in the mass-spec context:
   * V. Asgeirsson, C. Bauer and S. Grimme, Chem. Sci., 2017, 8, 4879.
     DOI: 10.1039/c7sc00601b
   * J. Koopman and S. Grimme, ACS Omega 2019, 4, 12, 15120-15133.
     DOI: 10.1021/acsomega.9b02011
   
   for metadynamics refer to:
   * S. Grimme, J. Chem. Theory Comput., 2019, 155, 2847-2862
     DOI: 10.1021/acs.jctc.9b00143
   
   for SPH calculations refer to:
   * S. Spicher and S. Grimme, J. Chem. Theory Comput., 2021, 17, 1701-1714
     DOI: 10.1021/acs.jctc.0c01306
   
   with help from (in alphabetical order)
   P. Atkinson, C. Bannwarth, F. Bohle, G. Brandenburg, E. Caldeweyher
   M. Checinski, S. Dohm, S. Ehlert, S. Ehrlich, I. Gerasimov, C. Hölzer
   A. Katbashev, J. Koopman, C. Lavigne, S. Lehtola, F. März, M. Müller,
   F. Musil, H. Neugebauer, J. Pisarek, C. Plett, P. Pracht, F. Pultar,
   J. Seibert, P. Shushkov, S. Spicher, M. Stahn, M. Steiner, T. Strunk,
   J. Stückrath, T. Rose, and J. Unsleber
   
 * started run on 2024/04/06 at 11:16:45.470     

           -------------------------------------------------
          |                Calculation Setup                |
           -------------------------------------------------

          program call               : xtb struc.xyz --opt loose --input .xc1 --gfn2
          hostname                   : n-62-30-23
          coordinate file            : struc.xyz
          omp threads                :                     1

   ID    Z sym.   atoms
    1    7 N      1, 17
    2    6 C      2-6, 8, 9, 11-16, 18-23, 25, 26, 28-33
    3    8 O      7, 10, 24, 27
    4    1 H      34-72
constraining bond 20 50 to    3.7133300 Å, actual value:    2.6663396 Å

           -------------------------------------------------
          |                 G F N 2 - x T B                 |
           -------------------------------------------------

        Reference                      10.1021/acs.jctc.8b01176
      * Hamiltonian:
        H0-scaling (s, p, d)           1.850000    2.230000    2.230000
        zeta-weighting                 0.500000
      * Dispersion:
        s8                             2.700000
        a1                             0.520000
        a2                             5.000000
        s9                             5.000000
      * Repulsion:
        kExp                           1.500000    1.000000
        rExp                           1.000000
      * Coulomb:
        alpha                          2.000000
        third order                    shell-resolved
        anisotropic                    true
        a3                             3.000000
        a5                             4.000000
        cn-shift                       1.200000
        cn-exp                         4.000000
        max-rad                        5.000000


          ...................................................
          :                      SETUP                      :
          :.................................................:
          :  # basis functions                 171          :
          :  # atomic orbitals                 171          :
          :  # shells                          105          :
          :  # electrons                       180          :
          :  max. iterations                   250          :
          :  Hamiltonian                  GFN2-xTB          :
          :  restarted?                      false          :
          :  GBSA solvation                  false          :
          :  PC potential                    false          :
          :  electronic temp.         5000.0000000     K    :
          :  accuracy                    1.0000000          :
          :  -> integral cutoff          0.2500000E+02      :
          :  -> integral neglect         0.1000000E-07      :
          :  -> SCF convergence          0.1000000E-05 Eh   :
          :  -> wf. convergence          0.1000000E-03 e    :
          :  Broyden damping             0.4000000          :
          ...................................................

 iter      E             dE          RMSdq      gap      omega  full diag
   1   -100.5973919 -0.100597E+03  0.374E+00    3.20       0.0  T
   2   -100.7362642 -0.138872E+00  0.221E+00    1.08       1.0  T
   3   -100.7049001  0.313641E-01  0.141E+00    3.29       1.0  T
   4   -100.7721690 -0.672689E-01  0.526E-01    1.50       1.0  T
   5   -100.7894292 -0.172602E-01  0.190E-01    1.98       1.0  T
   6   -100.7911978 -0.176856E-02  0.792E-02    1.77       1.0  T
   7   -100.7914750 -0.277198E-03  0.375E-02    1.83       1.0  T
   8   -100.7914914 -0.164582E-04  0.140E-02    1.83       1.0  T
   9   -100.7914976 -0.616739E-05  0.474E-03    1.82       2.5  T
  10   -100.7914988 -0.118227E-05  0.172E-03    1.82       6.8  T
  11   -100.7914989 -0.139928E-06  0.766E-04    1.82      15.4  T
  12   -100.7914989 -0.773143E-08  0.318E-04    1.82      37.0  T

   *** convergence criteria satisfied after 12 iterations ***

         #    Occupation            Energy/Eh            Energy/eV
      -------------------------------------------------------------
         1        2.0000           -0.8078051             -21.9815
       ...           ...                  ...                  ...
        84        1.9966           -0.5157491             -14.0342
        85        1.9959           -0.5128261             -13.9547
        86        1.9840           -0.4911498             -13.3649
        87        1.9795           -0.4872543             -13.2589
        88        1.9640           -0.4782114             -13.0128
        89        1.8920           -0.4602041             -12.5228
        90        1.8557           -0.4553147             -12.3897 (HOMO)
        91        0.3166           -0.3884132             -10.5693 (LUMO)
        92        0.0218           -0.3434697              -9.3463
        93        0.0041           -0.3169887              -8.6257
        94        0.0034           -0.3139726              -8.5436
        95        0.0029           -0.3112618              -8.4699
       ...           ...                  ...                  ...
       171                          0.5822580              15.8440
      -------------------------------------------------------------
                  HL-Gap            0.0669015 Eh            1.8205 eV
             Fermi-level           -0.4148687 Eh          -11.2892 eV

 SCC (total)                   0 d,  0 h,  0 min,  0.191 sec
 SCC setup                      ...        0 min,  0.001 sec (  0.667%)
 Dispersion                     ...        0 min,  0.002 sec (  1.151%)
 classical contributions        ...        0 min,  0.001 sec (  0.300%)
 integral evaluation            ...        0 min,  0.019 sec (  9.752%)
 iterations                     ...        0 min,  0.098 sec ( 51.532%)
 molecular gradient             ...        0 min,  0.069 sec ( 36.250%)
 printout                       ...        0 min,  0.001 sec (  0.340%)

         :::::::::::::::::::::::::::::::::::::::::::::::::::::
         ::                     SUMMARY                     ::
         :::::::::::::::::::::::::::::::::::::::::::::::::::::
         :: total energy             -99.599858951881 Eh    ::
         :: gradient norm              0.281936596564 Eh/a0 ::
         :: HOMO-LUMO gap              1.820481192090 eV    ::
         ::.................................................::
         :: SCC energy              -100.791498925389 Eh    ::
         :: -> isotropic ES            0.109302908418 Eh    ::
         :: -> anisotropic ES          0.005415138735 Eh    ::
         :: -> anisotropic XC          0.042392697176 Eh    ::
         :: -> dispersion             -0.075527661009 Eh    ::
         :: repulsion energy           1.386151658689 Eh    ::
         :: add. restraining          -0.195728037687 Eh    ::
         :: total charge               1.000000000108 e     ::
         :::::::::::::::::::::::::::::::::::::::::::::::::::::

      ----------------------------------------------------------- 
     |                   =====================                   |
     |                        A N C O P T                        |
     |                   =====================                   |
     |               Approximate Normal Coordinate               |
     |                Rational Function Optimizer                |
      ----------------------------------------------------------- 

          ...................................................
          :                      SETUP                      :
          :.................................................:
          :   optimization level             loose          :
          :   max. optcycles                   200          :
          :   ANC micro-cycles                  20          :
          :   degrees of freedom               210          :
          :.................................................:
          :   RF solver                   davidson          :
          :   write xtbopt.log                true          :
          :   linear?                        false          :
          :   energy convergence         0.5000000E-04 Eh   :
          :   grad. convergence          0.4000000E-02 Eh/α :
          :   maxmium RF displ.          1.0000000          :
          :   Hlow (freq-cutoff)         0.1000000E-01      :
          :   Hmax (freq-cutoff)         5.0000000          :
          :   S6 in model hess.         20.0000000          :
          ...................................................

generating ANC from model Hessian ...
Using Lindh-Hessian (1995)
 Shifting diagonal of input Hessian by    9.7327197976894472E-002
 Lowest  eigenvalues of input Hessian
    0.010000    0.000000    0.000000    0.000000    0.000000    0.000000
    0.000000    0.097387    0.097450    0.097513    0.097642    0.097670
    0.098001    0.098340    0.098514    0.098677    0.099268    0.099654
 Highest eigenvalues
    2.123277    2.133285    2.144624    2.266771    2.271082    2.274382


........................................................................
.............................. CYCLE    1 ..............................
........................................................................

 iter      E             dE          RMSdq      gap      omega  full diag
   1   -100.7914989 -0.100791E+03  0.114E-04    1.82       0.0  T
   2   -100.7914989 -0.678995E-10  0.713E-05    1.82     165.2  T
   3   -100.7914989  0.665210E-10  0.496E-05    1.82     237.5  T
     SCC iter.                  ...        0 min,  0.026 sec
     gradient                   ...        0 min,  0.069 sec
 * total energy  :   -99.5998590 Eh     change       -0.4035485E-08 Eh
   gradient norm :     0.2819371 Eh/α   predicted     0.0000000E+00 (-100.00%)
   displ. norm   :     0.9561688 α      lambda       -0.2522810E+00
   maximum displ.:     0.9370570 α      in ANC's #1, #120, #40, ...

........................................................................
.............................. CYCLE    2 ..............................
........................................................................

 iter      E             dE          RMSdq      gap      omega  full diag
   1   -100.7325269 -0.100733E+03  0.499E-01    1.86       0.0  T
   2   -100.7328043 -0.277390E-03  0.296E-01    1.88       1.0  T
   3   -100.7315876  0.121665E-02  0.129E-01    1.82       1.0  T
   4   -100.7329690 -0.138134E-02  0.257E-02    1.90       1.0  T
   5   -100.7330182 -0.492611E-04  0.116E-02    1.86       1.0  T
   6   -100.7330259 -0.764779E-05  0.576E-03    1.88       2.0  T
   7   -100.7330272 -0.135687E-05  0.170E-03    1.87       6.9  T
   8   -100.7330274 -0.137485E-06  0.759E-04    1.87      15.5  T
   9   -100.7330274 -0.154203E-07  0.286E-04    1.87      41.3  T
     SCC iter.                  ...        0 min,  0.073 sec
     gradient                   ...        0 min,  0.069 sec
 * total energy  :   -99.8906923 Eh     change       -0.2908333E+00 Eh
   gradient norm :     0.3531924 Eh/α   predicted    -0.2414677E+00 ( -16.97%)
   displ. norm   :     0.9718554 α      lambda       -0.3314297E+00
   maximum displ.:     0.9609993 α      in ANC's #1, #40, #120, ...

........................................................................
.............................. CYCLE    3 ..............................
........................................................................

 iter      E             dE          RMSdq      gap      omega  full diag
   1   -100.5799743 -0.100580E+03  0.576E-01    1.87       0.0  T
   2   -100.5811102 -0.113590E-02  0.344E-01    1.97       1.0  T
   3   -100.5797193  0.139091E-02  0.286E-01    1.80       1.0  T
   4   -100.5836154 -0.389603E-02  0.905E-02    1.99       1.0  T
   5   -100.5843092 -0.693799E-03  0.306E-02    1.88       1.0  T
   6   -100.5843704 -0.612817E-04  0.138E-02    1.92       1.0  T
   7   -100.5843811 -0.106486E-04  0.511E-03    1.91       2.3  T
   8   -100.5843829 -0.181918E-05  0.186E-03    1.91       6.3  T
   9   -100.5843831 -0.189594E-06  0.782E-04    1.91      15.1  T
  10   -100.5843831 -0.988419E-08  0.279E-04    1.91      42.2  T
     SCC iter.                  ...        0 min,  0.081 sec
     gradient                   ...        0 min,  0.069 sec
 * total energy  :  -100.2631285 Eh     change       -0.3724362E+00 Eh
   gradient norm :     0.4730745 Eh/α   predicted    -0.3222332E+00 ( -13.48%)
   displ. norm   :     0.9676069 α      lambda       -0.4368130E+00
   maximum displ.:     0.9499356 α      in ANC's #1, #83, #40, ...

........................................................................
.............................. CYCLE    4 ..............................
........................................................................

 iter      E             dE          RMSdq      gap      omega  full diag
   1   -100.4996038 -0.100500E+03  0.943E-01    0.79       0.0  T
   2   -100.4912855  0.831826E-02  0.579E-01    0.97       1.0  T
   3   -100.4370472  0.542383E-01  0.867E-01    0.83       1.0  T
   4   -100.4955228 -0.584756E-01  0.327E-01    0.98       1.0  T
   5   -100.5052323 -0.970947E-02  0.955E-02    0.86       1.0  T
   6   -100.5058865 -0.654163E-03  0.323E-02    0.89       1.0  T
   7   -100.5059140 -0.275704E-04  0.202E-02    0.89       1.0  T
   8   -100.5059483 -0.342735E-04  0.602E-03    0.89       2.0  T
   9   -100.5059493 -0.952095E-06  0.170E-03    0.88       6.9  T
  10   -100.5059495 -0.265526E-06  0.675E-04    0.88      17.5  T
  11   -100.5059495 -0.102784E-07  0.426E-04    0.88      27.7  T
     SCC iter.                  ...        0 min,  0.088 sec
     gradient                   ...        0 min,  0.069 sec
 * total energy  :  -100.4855523 Eh     change       -0.2224237E+00 Eh
   gradient norm :     1.1633060 Eh/α   predicted    -0.4228926E+00 (  90.13%)
   displ. norm   :     0.4802100 α      lambda       -0.5462860E+00
   maximum displ.:     0.3950431 α      in ANC's #1, #120, #148, ...

........................................................................
.............................. CYCLE    5 ..............................
........................................................................

 iter      E             dE          RMSdq      gap      omega  full diag
   1   -100.5534746 -0.100553E+03  0.561E-01    1.53       0.0  T
   2   -100.5398894  0.135853E-01  0.536E-01    1.39       1.0  T
   3   -100.5578703 -0.179810E-01  0.306E-01    1.50       1.0  T
   4   -100.5621693 -0.429899E-02  0.144E-01    1.48       1.0  T
   5   -100.5635034 -0.133406E-02  0.531E-02    1.50       1.0  T
   6   -100.5637491 -0.245707E-03  0.114E-02    1.48       1.0  T
   7   -100.5637544 -0.532616E-05  0.695E-03    1.49       1.7  T
   8   -100.5637577 -0.328479E-05  0.203E-03    1.49       5.8  T
   9   -100.5637579 -0.201266E-06  0.821E-04    1.49      14.4  T
  10   -100.5637579 -0.257529E-07  0.406E-04    1.49      29.1  T
     SCC iter.                  ...        0 min,  0.081 sec
     gradient                   ...        0 min,  0.069 sec
 * total energy  :  -100.5130473 Eh     change       -0.2749502E-01 Eh
   gradient norm :     0.5092418 Eh/α   predicted    -0.3361306E+00 (1122.51%)
   displ. norm   :     0.3593224 α      lambda       -0.1060549E+00
   maximum displ.:     0.1743458 α      in ANC's #1, #112, #82, ...

........................................................................
.............................. CYCLE    6 ..............................
........................................................................

 iter      E             dE          RMSdq      gap      omega  full diag
   1   -100.5988384 -0.100599E+03  0.266E-01    1.30       0.0  T
   2   -100.5898076  0.903079E-02  0.386E-01    1.09       1.0  T
   3   -100.6011938 -0.113861E-01  0.116E-01    1.25       1.0  T
   4   -100.6005631  0.630713E-03  0.101E-01    1.19       1.0  T
   5   -100.6013884 -0.825311E-03  0.281E-02    1.23       1.0  T
   6   -100.6014556 -0.672753E-04  0.700E-03    1.23       1.7  T
   7   -100.6014593 -0.370278E-05  0.358E-03    1.23       3.3  T
   8   -100.6014600 -0.683373E-06  0.100E-03    1.23      11.8  T
   9   -100.6014600 -0.157892E-07  0.492E-04    1.23      24.0  T
  10   -100.6014601 -0.189229E-07  0.209E-04    1.23      56.3  T
     SCC iter.                  ...        0 min,  0.080 sec
     gradient                   ...        0 min,  0.069 sec
 * total energy  :  -100.6046187 Eh     change       -0.9157141E-01 Eh
   gradient norm :     0.4008804 Eh/α   predicted    -0.5988300E-01 ( -34.61%)
   displ. norm   :     0.6384334 α      lambda       -0.1959232E+00
   maximum displ.:     0.5151797 α      in ANC's #1, #149, #112, ...

........................................................................
.............................. CYCLE    7 ..............................
........................................................................

 iter      E             dE          RMSdq      gap      omega  full diag
   1   -100.6327349 -0.100633E+03  0.437E-01    0.68       0.0  T
   2   -100.6324738  0.261117E-03  0.282E-01    0.88       1.0  T
   3   -100.6257615  0.671230E-02  0.368E-01    0.50       1.0  T
   4   -100.6335900 -0.782851E-02  0.175E-01    0.85       1.0  T
   5   -100.6356329 -0.204288E-02  0.963E-02    0.71       1.0  T
   6   -100.6363557 -0.722817E-03  0.214E-02    0.73       1.0  T
   7   -100.6364125 -0.568229E-04  0.498E-03    0.74       2.4  T
   8   -100.6364134 -0.895269E-06  0.251E-03    0.74       4.7  T
   9   -100.6364136 -0.200980E-06  0.108E-03    0.74      11.0  T
  10   -100.6364137 -0.493893E-07  0.386E-04    0.74      30.5  T
  11   -100.6364137 -0.664548E-08  0.153E-04    0.74      77.0  T
     SCC iter.                  ...        0 min,  0.088 sec
     gradient                   ...        0 min,  0.071 sec
 * total energy  :  -100.5226535 Eh     change        0.8196519E-01 Eh
   gradient norm :     1.6161824 Eh/α   predicted    -0.1378909E+00 (-268.23%)
   displ. norm   :     0.2906107 α      lambda       -0.4423423E+00
   maximum displ.:     0.2428458 α      in ANC's #1, #112, #120, ...

........................................................................
.............................. CYCLE    8 ..............................
........................................................................

 iter      E             dE          RMSdq      gap      omega  full diag
   1   -100.6415757 -0.100642E+03  0.263E-01    1.04       0.0  T
   2   -100.6310074  0.105682E-01  0.389E-01    0.67       1.0  T
   3   -100.6435485 -0.125410E-01  0.152E-01    1.00       1.0  T
   4   -100.6441841 -0.635586E-03  0.929E-02    0.90       1.0  T
   5   -100.6447537 -0.569674E-03  0.473E-02    0.91       1.0  T
   6   -100.6448903 -0.136567E-03  0.152E-02    0.92       1.0  T
   7   -100.6449175 -0.271791E-04  0.274E-03    0.91       4.3  T
   8   -100.6449175 -0.428197E-08  0.147E-03    0.91       8.0  T
   9   -100.6449176 -0.941420E-07  0.502E-04    0.91      23.5  T
  10   -100.6449176 -0.168472E-07  0.151E-04    0.91      78.2  T
     SCC iter.                  ...        0 min,  0.081 sec
     gradient                   ...        0 min,  0.069 sec
 * total energy  :  -100.6707614 Eh     change       -0.1481078E+00 Eh
   gradient norm :     0.1941943 Eh/α   predicted    -0.2398545E+00 (  61.95%)
   displ. norm   :     0.2857629 α      lambda       -0.2024254E-01
   maximum displ.:     0.0962976 α      in ANC's #83, #82, #51, ...

........................................................................
.............................. CYCLE    9 ..............................
........................................................................

 iter      E             dE          RMSdq      gap      omega  full diag
   1   -100.6601679 -0.100660E+03  0.146E-01    0.83       0.0  T
   2   -100.6601359  0.319384E-04  0.102E-01    0.85       1.0  T
   3   -100.6600589  0.770625E-04  0.798E-02    0.83       1.0  T
   4   -100.6603132 -0.254325E-03  0.432E-02    0.83       1.0  T
   5   -100.6604478 -0.134555E-03  0.178E-02    0.85       1.0  T
   6   -100.6604619 -0.141419E-04  0.978E-03    0.83       1.2  T
   7   -100.6604724 -0.105335E-04  0.288E-03    0.84       4.1  T
   8   -100.6604730 -0.570458E-06  0.678E-04    0.84      17.4  T
   9   -100.6604730 -0.123119E-07  0.316E-04    0.84      37.2  T
     SCC iter.                  ...        0 min,  0.072 sec
     gradient                   ...        0 min,  0.069 sec
 * total energy  :  -100.6866157 Eh     change       -0.1585434E-01 Eh
   gradient norm :     0.1670008 Eh/α   predicted    -0.1094784E-01 ( -30.95%)
   displ. norm   :     0.4205092 α      lambda       -0.2298343E-01
   maximum displ.:     0.1360418 α      in ANC's #83, #31, #82, ...

........................................................................
.............................. CYCLE   10 ..............................
........................................................................

 iter      E             dE          RMSdq      gap      omega  full diag
   1   -100.6727310 -0.100673E+03  0.188E-01    0.74       0.0  T
   2   -100.6718920  0.838988E-03  0.145E-01    0.86       1.0  T
   3   -100.6702934  0.159870E-02  0.195E-01    0.63       1.0  T
   4   -100.6727524 -0.245902E-02  0.560E-02    0.80       1.0  T
   5   -100.6730760 -0.323641E-03  0.141E-02    0.76       1.0  T
   6   -100.6730945 -0.184516E-04  0.705E-03    0.77       1.7  T
   7   -100.6730989 -0.447336E-05  0.242E-03    0.77       4.9  T
   8   -100.6730991 -0.203820E-06  0.872E-04    0.77      13.5  T
   9   -100.6730992 -0.342900E-07  0.359E-04    0.77      32.9  T
     SCC iter.                  ...        0 min,  0.072 sec
     gradient                   ...        0 min,  0.069 sec
 * total energy  :  -100.7031041 Eh     change       -0.1648839E-01 Eh
   gradient norm :     0.0775342 Eh/α   predicted    -0.1352337E-01 ( -17.98%)
   displ. norm   :     0.3935078 α      lambda       -0.1134002E-01
   maximum displ.:     0.1519575 α      in ANC's #31, #83, #82, ...

........................................................................
.............................. CYCLE   11 ..............................
........................................................................

 iter      E             dE          RMSdq      gap      omega  full diag
   1   -100.6782886 -0.100678E+03  0.157E-01    0.69       0.0  T
   2   -100.6758935  0.239504E-02  0.183E-01    0.88       1.0  T
   3   -100.6776871 -0.179360E-02  0.129E-01    0.65       1.0  T
   4   -100.6785737 -0.886580E-03  0.414E-02    0.76       1.0  T
   5   -100.6787386 -0.164877E-03  0.152E-02    0.73       1.0  T
   6   -100.6787647 -0.261461E-04  0.477E-03    0.74       2.5  T
   7   -100.6787660 -0.133296E-05  0.202E-03    0.74       5.8  T
   8   -100.6787662 -0.159581E-06  0.519E-04    0.74      22.7  T
   9   -100.6787662 -0.602854E-08  0.227E-04    0.74      51.9  T
     SCC iter.                  ...        0 min,  0.073 sec
     gradient                   ...        0 min,  0.069 sec
 * total energy  :  -100.7116259 Eh     change       -0.8521814E-02 Eh
   gradient norm :     0.0669642 Eh/α   predicted    -0.6547895E-02 ( -23.16%)
   displ. norm   :     0.4234817 α      lambda       -0.9083460E-02
   maximum displ.:     0.1939427 α      in ANC's #31, #83, #29, ...

........................................................................
.............................. CYCLE   12 ..............................
........................................................................

 iter      E             dE          RMSdq      gap      omega  full diag
   1   -100.6808096 -0.100681E+03  0.172E-01    0.64       0.0  T
   2   -100.6752912  0.551843E-02  0.266E-01    0.93       1.0  T
   3   -100.6811934 -0.590215E-02  0.106E-01    0.64       1.0  T
   4   -100.6814631 -0.269749E-03  0.561E-02    0.75       1.0  T
   5   -100.6818034 -0.340341E-03  0.133E-02    0.70       1.0  T
   6   -100.6818218 -0.183719E-04  0.398E-03    0.71       3.0  T
   7   -100.6818223 -0.514686E-06  0.221E-03    0.71       5.3  T
   8   -100.6818226 -0.239260E-06  0.443E-04    0.71      26.6  T
   9   -100.6818226 -0.270057E-08  0.221E-04    0.71      53.3  T
     SCC iter.                  ...        0 min,  0.073 sec
     gradient                   ...        0 min,  0.069 sec
 * total energy  :  -100.7178919 Eh     change       -0.6266028E-02 Eh
   gradient norm :     0.0346273 Eh/α   predicted    -0.5356212E-02 ( -14.52%)
   displ. norm   :     0.4914346 α      lambda       -0.6848054E-02
   maximum displ.:     0.2308325 α      in ANC's #31, #83, #29, ...

........................................................................
.............................. CYCLE   13 ..............................
........................................................................

 iter      E             dE          RMSdq      gap      omega  full diag
   1   -100.6795005 -0.100680E+03  0.186E-01    0.63       0.0  T
   2   -100.6738411  0.565943E-02  0.276E-01    0.92       1.0  T
   3   -100.6799056 -0.606459E-02  0.113E-01    0.63       1.0  T
   4   -100.6800404 -0.134799E-03  0.702E-02    0.75       1.0  T
   5   -100.6805636 -0.523109E-03  0.131E-02    0.69       1.0  T
   6   -100.6805808 -0.172534E-04  0.454E-03    0.70       2.6  T
   7   -100.6805819 -0.110502E-05  0.211E-03    0.70       5.6  T
   8   -100.6805821 -0.166991E-06  0.544E-04    0.70      21.7  T
   9   -100.6805821 -0.691989E-08  0.267E-04    0.70      44.1  T
     SCC iter.                  ...        0 min,  0.073 sec
     gradient                   ...        0 min,  0.069 sec
 * total energy  :  -100.7195430 Eh     change       -0.1651103E-02 Eh
   gradient norm :     0.1267697 Eh/α   predicted    -0.4250917E-02 ( 157.46%)
   displ. norm   :     0.1553709 α      lambda       -0.6780922E-02
   maximum displ.:     0.0737089 α      in ANC's #31, #38, #51, ...

........................................................................
.............................. CYCLE   14 ..............................
........................................................................

 iter      E             dE          RMSdq      gap      omega  full diag
   1   -100.6855721 -0.100686E+03  0.753E-02    0.67       0.0  T
   2   -100.6848293  0.742877E-03  0.103E-01    0.77       1.0  T
   3   -100.6855790 -0.749749E-03  0.484E-02    0.67       1.0  T
   4   -100.6856357 -0.566714E-04  0.255E-02    0.71       1.0  T
   5   -100.6857013 -0.656170E-04  0.548E-03    0.69       2.2  T
   6   -100.6857050 -0.372632E-05  0.141E-03    0.70       8.4  T
   7   -100.6857051 -0.771655E-07  0.962E-04    0.70      12.3  T
   8   -100.6857051 -0.376928E-07  0.273E-04    0.70      43.2  T
     SCC iter.                  ...        0 min,  0.065 sec
     gradient                   ...        0 min,  0.069 sec
 * total energy  :  -100.7236812 Eh     change       -0.4138176E-02 Eh
   gradient norm :     0.0207139 Eh/α   predicted    -0.3472345E-02 ( -16.09%)
   displ. norm   :     0.2932170 α      lambda       -0.2496469E-02
   maximum displ.:     0.1620895 α      in ANC's #31, #38, #29, ...

........................................................................
.............................. CYCLE   15 ..............................
........................................................................

 iter      E             dE          RMSdq      gap      omega  full diag
   1   -100.6886970 -0.100689E+03  0.109E-01    0.65       0.0  T
   2   -100.6866148  0.208213E-02  0.170E-01    0.81       1.0  T
   3   -100.6889067 -0.229191E-02  0.612E-02    0.65       1.0  T
   4   -100.6888396  0.671011E-04  0.480E-02    0.73       1.0  T
   5   -100.6890899 -0.250292E-03  0.722E-03    0.69       1.6  T
   6   -100.6890964 -0.643560E-05  0.173E-03    0.69       6.8  T
   7   -100.6890965 -0.120655E-06  0.113E-03    0.69      10.4  T
   8   -100.6890966 -0.559525E-07  0.330E-04    0.69      35.7  T
   9   -100.6890966 -0.708555E-08  0.137E-04    0.69      85.9  T
     SCC iter.                  ...        0 min,  0.073 sec
     gradient                   ...        0 min,  0.070 sec
 * total energy  :  -100.7256753 Eh     change       -0.1994135E-02 Eh
   gradient norm :     0.0394353 Eh/α   predicted    -0.1355584E-02 ( -32.02%)
   displ. norm   :     0.4511661 α      lambda       -0.3384172E-02
   maximum displ.:     0.2538635 α      in ANC's #31, #38, #29, ...

........................................................................
.............................. CYCLE   16 ..............................
........................................................................

 iter      E             dE          RMSdq      gap      omega  full diag
   1   -100.6930252 -0.100693E+03  0.158E-01    0.66       0.0  T
   2   -100.6897416  0.328361E-02  0.225E-01    0.82       1.0  T
   3   -100.6933861 -0.364452E-02  0.900E-02    0.65       1.0  T
   4   -100.6930598  0.326233E-03  0.798E-02    0.77       1.0  T
   5   -100.6937764 -0.716516E-03  0.115E-02    0.69       1.0  T
   6   -100.6937924 -0.160293E-04  0.279E-03    0.70       4.2  T
   7   -100.6937928 -0.446810E-06  0.162E-03    0.70       7.3  T
   8   -100.6937930 -0.115493E-06  0.517E-04    0.70      22.8  T
   9   -100.6937930 -0.154409E-07  0.192E-04    0.70      61.3  T
     SCC iter.                  ...        0 min,  0.073 sec
     gradient                   ...        0 min,  0.074 sec
 * total energy  :  -100.7282840 Eh     change       -0.2608620E-02 Eh
   gradient norm :     0.0357265 Eh/α   predicted    -0.2036580E-02 ( -21.93%)
   displ. norm   :     0.4609345 α      lambda       -0.2979527E-02
   maximum displ.:     0.2575375 α      in ANC's #31, #38, #29, ...

........................................................................
.............................. CYCLE   17 ..............................
........................................................................

 iter      E             dE          RMSdq      gap      omega  full diag
   1   -100.6962409 -0.100696E+03  0.158E-01    0.69       0.0  T
   2   -100.6937185  0.252235E-02  0.207E-01    0.79       1.0  T
   3   -100.6966176 -0.289909E-02  0.880E-02    0.67       1.0  T
   4   -100.6962034  0.414255E-03  0.820E-02    0.79       1.0  T
   5   -100.6969561 -0.752772E-03  0.135E-02    0.70       1.0  T
   6   -100.6969784 -0.222588E-04  0.342E-03    0.71       3.5  T
   7   -100.6969792 -0.849137E-06  0.147E-03    0.72       8.0  T
   8   -100.6969793 -0.794909E-07  0.593E-04    0.71      19.9  T
   9   -100.6969793 -0.171199E-07  0.222E-04    0.71      53.0  T
     SCC iter.                  ...        0 min,  0.073 sec
     gradient                   ...        0 min,  0.069 sec
 * total energy  :  -100.7306393 Eh     change       -0.2355332E-02 Eh
   gradient norm :     0.0344292 Eh/α   predicted    -0.1806335E-02 ( -23.31%)
   displ. norm   :     0.4806833 α      lambda       -0.3141348E-02
   maximum displ.:     0.2565589 α      in ANC's #31, #38, #29, ...

........................................................................
.............................. CYCLE   18 ..............................
........................................................................

 iter      E             dE          RMSdq      gap      omega  full diag
   1   -100.6979366 -0.100698E+03  0.166E-01    0.72       0.0  T
   2   -100.6955934  0.234314E-02  0.205E-01    0.79       1.0  T
   3   -100.6983895 -0.279607E-02  0.890E-02    0.70       1.0  T
   4   -100.6980471  0.342436E-03  0.776E-02    0.81       1.0  T
   5   -100.6986972 -0.650097E-03  0.155E-02    0.72       1.0  T
   6   -100.6987275 -0.302840E-04  0.401E-03    0.74       2.9  T
   7   -100.6987287 -0.118942E-05  0.147E-03    0.74       8.0  T
   8   -100.6987287 -0.603600E-07  0.671E-04    0.74      17.6  T
   9   -100.6987287 -0.228223E-07  0.251E-04    0.74      47.0  T
     SCC iter.                  ...        0 min,  0.073 sec
     gradient                   ...        0 min,  0.069 sec
 * total energy  :  -100.7331385 Eh     change       -0.2499187E-02 Eh
   gradient norm :     0.0346827 Eh/α   predicted    -0.1933661E-02 ( -22.63%)
   displ. norm   :     0.4756970 α      lambda       -0.3303730E-02
   maximum displ.:     0.2378945 α      in ANC's #31, #38, #29, ...

........................................................................
.............................. CYCLE   19 ..............................
........................................................................

 iter      E             dE          RMSdq      gap      omega  full diag
   1   -100.6985569 -0.100699E+03  0.165E-01    0.74       0.0  T
   2   -100.6965208  0.203603E-02  0.195E-01    0.81       1.0  T
   3   -100.6989869 -0.246606E-02  0.870E-02    0.73       1.0  T
   4   -100.6988128  0.174114E-03  0.663E-02    0.82       1.0  T
   5   -100.6992634 -0.450678E-03  0.161E-02    0.74       1.0  T
   6   -100.6992970 -0.335583E-04  0.424E-03    0.76       2.8  T
   7   -100.6992983 -0.134268E-05  0.146E-03    0.76       8.1  T
   8   -100.6992984 -0.274138E-07  0.700E-04    0.76      16.8  T
   9   -100.6992984 -0.321090E-07  0.231E-04    0.76      51.1  T
     SCC iter.                  ...        0 min,  0.073 sec
     gradient                   ...        0 min,  0.069 sec
 * total energy  :  -100.7357031 Eh     change       -0.2564604E-02 Eh
   gradient norm :     0.0290373 Eh/α   predicted    -0.2025719E-02 ( -21.01%)
   displ. norm   :     0.4306325 α      lambda       -0.2995993E-02
   maximum displ.:     0.2054659 α      in ANC's #31, #29, #17, ...

........................................................................
.............................. CYCLE   20 ..............................
........................................................................

 iter      E             dE          RMSdq      gap      omega  full diag
   1   -100.6991197 -0.100699E+03  0.148E-01    0.76       0.0  T
   2   -100.6977295  0.139022E-02  0.166E-01    0.83       1.0  T
   3   -100.6994128 -0.168328E-02  0.788E-02    0.75       1.0  T
   4   -100.6993854  0.273684E-04  0.518E-02    0.83       1.0  T
   5   -100.6996392 -0.253773E-03  0.156E-02    0.76       1.0  T
   6   -100.6996701 -0.308630E-04  0.408E-03    0.78       2.9  T
   7   -100.6996715 -0.140144E-05  0.129E-03    0.78       9.1  T
   8   -100.6996715 -0.871589E-08  0.682E-04    0.78      17.3  T
   9   -100.6996715 -0.251547E-07  0.200E-04    0.78      58.8  T
     SCC iter.                  ...        0 min,  0.073 sec
     gradient                   ...        0 min,  0.070 sec
 * total energy  :  -100.7379780 Eh     change       -0.2274953E-02 Eh
   gradient norm :     0.0214128 Eh/α   predicted    -0.1775879E-02 ( -21.94%)
   displ. norm   :     0.4066702 α      lambda       -0.2572467E-02
   maximum displ.:     0.1977376 α      in ANC's #31, #29, #17, ...
 * RMSD in coord.:     0.6578503 α      energy gain  -0.1138119E+01 Eh

generating ANC from model Hessian ...
Using Lindh-Hessian (1995)
 Shifting diagonal of input Hessian by    9.9442692541543056E-003
 Lowest  eigenvalues of input Hessian
    0.000000    0.000000    0.000000    0.000000    0.000000    0.000000
    0.010000    0.010051    0.010220    0.010261    0.010300    0.010476
    0.010649    0.010782    0.010832    0.011422    0.011801    0.012499
 Highest eigenvalues
    2.026923    2.040458    2.106474    2.108867    2.156802    2.180567


........................................................................
.............................. CYCLE   21 ..............................
........................................................................

 iter      E             dE          RMSdq      gap      omega  full diag
   1   -100.6994724 -0.100699E+03  0.131E-01    0.77       0.0  T
   2   -100.6986065  0.865883E-03  0.136E-01    0.83       1.0  T
   3   -100.6996502 -0.104367E-02  0.722E-02    0.76       1.0  T
   4   -100.6997176 -0.674419E-04  0.387E-02    0.83       1.0  T
   5   -100.6998442 -0.126518E-03  0.146E-02    0.77       1.0  T
   6   -100.6998701 -0.259438E-04  0.384E-03    0.79       3.1  T
   7   -100.6998715 -0.141255E-05  0.107E-03    0.79      11.0  T
   8   -100.6998715 -0.128483E-07  0.614E-04    0.79      19.2  T
   9   -100.6998715 -0.132652E-07  0.204E-04    0.79      57.9  T
     SCC iter.                  ...        0 min,  0.073 sec
     gradient                   ...        0 min,  0.069 sec
 * total energy  :  -100.7399602 Eh     change       -0.1982188E-02 Eh
   gradient norm :     0.0181111 Eh/α   predicted     0.0000000E+00 (-100.00%)
   displ. norm   :     0.3916837 α      lambda       -0.4011236E-02
   maximum displ.:     0.1761665 α      in ANC's #18, #11, #26, ...

........................................................................
.............................. CYCLE   22 ..............................
........................................................................

 iter      E             dE          RMSdq      gap      omega  full diag
   1   -100.7064800 -0.100706E+03  0.109E-01    0.80       0.0  T
   2   -100.7062581  0.221914E-03  0.856E-02    0.79       1.0  T
   3   -100.7062783 -0.202162E-04  0.736E-02    0.80       1.0  T
   4   -100.7065818 -0.303471E-03  0.720E-03    0.80       1.6  T
   5   -100.7065850 -0.321543E-05  0.282E-03    0.79       4.2  T
   6   -100.7065852 -0.216646E-06  0.236E-03    0.80       5.0  T
   7   -100.7065857 -0.490457E-06  0.996E-04    0.79      11.8  T
   8   -100.7065857 -0.461216E-07  0.299E-04    0.80      39.4  T
     SCC iter.                  ...        0 min,  0.065 sec
     gradient                   ...        0 min,  0.069 sec
 * total energy  :  -100.7433322 Eh     change       -0.3371932E-02 Eh
   gradient norm :     0.0140225 Eh/α   predicted    -0.2313323E-02 ( -31.39%)
   displ. norm   :     0.7010767 α      lambda       -0.5137648E-02
   maximum displ.:     0.3272155 α      in ANC's #18, #26, #11, ...

........................................................................
.............................. CYCLE   23 ..............................
........................................................................

 iter      E             dE          RMSdq      gap      omega  full diag
   1   -100.7102319 -0.100710E+03  0.173E-01    0.82       0.0  T
   2   -100.7093514  0.880566E-03  0.148E-01    0.79       1.0  T
   3   -100.7101351 -0.783738E-03  0.106E-01    0.82       1.0  T
   4   -100.7106278 -0.492751E-03  0.205E-02    0.79       1.0  T
   5   -100.7106637 -0.358745E-04  0.821E-03    0.82       1.4  T
   6   -100.7106698 -0.606059E-05  0.294E-03    0.81       4.0  T
   7   -100.7106703 -0.537787E-06  0.151E-03    0.81       7.8  T
   8   -100.7106704 -0.116641E-06  0.441E-04    0.81      26.7  T
   9   -100.7106704 -0.806418E-08  0.203E-04    0.81      58.1  T
     SCC iter.                  ...        0 min,  0.073 sec
     gradient                   ...        0 min,  0.069 sec
 * total energy  :  -100.7472639 Eh     change       -0.3931760E-02 Eh
   gradient norm :     0.0275586 Eh/α   predicted    -0.3831425E-02 (  -2.55%)
   displ. norm   :     0.6817626 α      lambda       -0.3789287E-02
   maximum displ.:     0.3163744 α      in ANC's #18, #26, #11, ...

........................................................................
.............................. CYCLE   24 ..............................
........................................................................

 iter      E             dE          RMSdq      gap      omega  full diag
   1   -100.7117445 -0.100712E+03  0.151E-01    0.83       0.0  T
   2   -100.7110333  0.711179E-03  0.129E-01    0.80       1.0  T
   3   -100.7117081 -0.674819E-03  0.924E-02    0.84       1.0  T
   4   -100.7120295 -0.321318E-03  0.284E-02    0.80       1.0  T
   5   -100.7121113 -0.818424E-04  0.758E-03    0.83       1.6  T
   6   -100.7121166 -0.531569E-05  0.262E-03    0.82       4.5  T
   7   -100.7121169 -0.333967E-06  0.123E-03    0.82       9.6  T
   8   -100.7121170 -0.714755E-07  0.363E-04    0.82      32.5  T
   9   -100.7121170 -0.557954E-08  0.161E-04    0.82      73.1  T
     SCC iter.                  ...        0 min,  0.073 sec
     gradient                   ...        0 min,  0.069 sec
 * total energy  :  -100.7499188 Eh     change       -0.2654917E-02 Eh
   gradient norm :     0.0393840 Eh/α   predicted    -0.2775279E-02 (   4.53%)
   displ. norm   :     0.5847438 α      lambda       -0.2834642E-02
   maximum displ.:     0.2549423 α      in ANC's #18, #26, #11, ...

........................................................................
.............................. CYCLE   25 ..............................
........................................................................

 iter      E             dE          RMSdq      gap      omega  full diag
   1   -100.7155831 -0.100716E+03  0.124E-01    0.84       0.0  T
   2   -100.7151895  0.393608E-03  0.101E-01    0.83       1.0  T
   3   -100.7155318 -0.342292E-03  0.772E-02    0.84       1.0  T
   4   -100.7157686 -0.236744E-03  0.192E-02    0.82       1.0  T
   5   -100.7158039 -0.353410E-04  0.644E-03    0.84       1.8  T
   6   -100.7158077 -0.384085E-05  0.219E-03    0.83       5.4  T
   7   -100.7158080 -0.227204E-06  0.110E-03    0.83      10.8  T
   8   -100.7158080 -0.620298E-07  0.321E-04    0.83      36.7  T
   9   -100.7158080 -0.482169E-08  0.125E-04    0.83      94.2  T
     SCC iter.                  ...        0 min,  0.073 sec
     gradient                   ...        0 min,  0.069 sec
 * total energy  :  -100.7521464 Eh     change       -0.2227600E-02 Eh
   gradient norm :     0.0174143 Eh/α   predicted    -0.1901944E-02 ( -14.62%)
   displ. norm   :     0.5722029 α      lambda       -0.2703983E-02
   maximum displ.:     0.2219753 α      in ANC's #11, #18, #6, ...

........................................................................
.............................. CYCLE   26 ..............................
........................................................................

 iter      E             dE          RMSdq      gap      omega  full diag
   1   -100.7251516 -0.100725E+03  0.123E-01    0.83       0.0  T
   2   -100.7248402  0.311401E-03  0.997E-02    0.86       1.0  T
   3   -100.7251368 -0.296622E-03  0.726E-02    0.83       1.0  T
   4   -100.7253510 -0.214125E-03  0.117E-02    0.85       1.0  T
   5   -100.7253607 -0.970934E-05  0.399E-03    0.84       3.0  T
   6   -100.7253610 -0.321719E-06  0.343E-03    0.85       3.4  T
   7   -100.7253619 -0.948819E-06  0.135E-03    0.84       8.7  T
   8   -100.7253620 -0.923527E-07  0.386E-04    0.84      30.5  T
   9   -100.7253620 -0.717444E-08  0.176E-04    0.84      67.1  T
     SCC iter.                  ...        0 min,  0.073 sec
     gradient                   ...        0 min,  0.069 sec
 * total energy  :  -100.7542173 Eh     change       -0.2070824E-02 Eh
   gradient norm :     0.0173664 Eh/α   predicted    -0.1794681E-02 ( -13.33%)
   displ. norm   :     0.6700706 α      lambda       -0.2056844E-02
   maximum displ.:     0.2586192 α      in ANC's #11, #18, #26, ...

........................................................................
.............................. CYCLE   27 ..............................
........................................................................

 iter      E             dE          RMSdq      gap      omega  full diag
   1   -100.7237688 -0.100724E+03  0.125E-01    0.85       0.0  T
   2   -100.7236585  0.110239E-03  0.807E-02    0.85       1.0  T
   3   -100.7233805  0.278049E-03  0.905E-02    0.86       1.0  T
   4   -100.7238214 -0.440901E-03  0.164E-02    0.84       1.0  T
   5   -100.7238499 -0.285800E-04  0.518E-03    0.86       2.3  T
   6   -100.7238518 -0.183832E-05  0.279E-03    0.85       4.2  T
   7   -100.7238522 -0.461775E-06  0.916E-04    0.86      12.9  T
   8   -100.7238523 -0.236131E-07  0.393E-04    0.85      30.0  T
     SCC iter.                  ...        0 min,  0.065 sec
     gradient                   ...        0 min,  0.069 sec
 * total energy  :  -100.7558118 Eh     change       -0.1594500E-02 Eh
   gradient norm :     0.0188220 Eh/α   predicted    -0.1490186E-02 (  -6.54%)
   displ. norm   :     0.5846818 α      lambda       -0.1709437E-02
   maximum displ.:     0.2278478 α      in ANC's #11, #6, #8, ...

........................................................................
.............................. CYCLE   28 ..............................
........................................................................

 iter      E             dE          RMSdq      gap      omega  full diag
   1   -100.7283415 -0.100728E+03  0.101E-01    0.86       0.0  T
   2   -100.7282831  0.583460E-04  0.677E-02    0.88       1.0  T
   3   -100.7281158  0.167334E-03  0.681E-02    0.85       1.0  T
   4   -100.7283887 -0.272861E-03  0.575E-03    0.87       2.1  T
   5   -100.7283907 -0.205195E-05  0.273E-03    0.87       4.3  T
   6   -100.7283910 -0.254916E-06  0.124E-03    0.87       9.5  T
   7   -100.7283909  0.298066E-07  0.933E-04    0.87      12.6  T
   8   -100.7283910 -0.829422E-07  0.335E-04    0.87      35.2  T
     SCC iter.                  ...        0 min,  0.065 sec
     gradient                   ...        0 min,  0.069 sec
 * total energy  :  -100.7570541 Eh     change       -0.1242289E-02 Eh
   gradient norm :     0.0172829 Eh/α   predicted    -0.1146929E-02 (  -7.68%)
   displ. norm   :     0.6153260 α      lambda       -0.1189579E-02
   maximum displ.:     0.2325782 α      in ANC's #11, #8, #6, ...

........................................................................
.............................. CYCLE   29 ..............................
........................................................................

 iter      E             dE          RMSdq      gap      omega  full diag
   1   -100.7263344 -0.100726E+03  0.102E-01    0.88       0.0  T
   2   -100.7263204  0.140373E-04  0.603E-02    0.87       1.0  T
   3   -100.7259308  0.389648E-03  0.708E-02    0.92       1.0  T
   4   -100.7263397 -0.408952E-03  0.954E-03    0.87       1.2  T
   5   -100.7263484 -0.864407E-05  0.377E-03    0.88       3.1  T
   6   -100.7263494 -0.104038E-05  0.198E-03    0.88       5.9  T
   7   -100.7263496 -0.177013E-06  0.800E-04    0.88      14.7  T
   8   -100.7263496 -0.220929E-07  0.311E-04    0.88      37.9  T
     SCC iter.                  ...        0 min,  0.065 sec
     gradient                   ...        0 min,  0.069 sec
 * total energy  :  -100.7579470 Eh     change       -0.8929552E-03 Eh
   gradient norm :     0.0148618 Eh/α   predicted    -0.8199993E-03 (  -8.17%)
   displ. norm   :     0.5594810 α      lambda       -0.1188486E-02
   maximum displ.:     0.2072009 α      in ANC's #8, #6, #11, ...

........................................................................
.............................. CYCLE   30 ..............................
........................................................................

 iter      E             dE          RMSdq      gap      omega  full diag
   1   -100.7315515 -0.100732E+03  0.780E-02    0.90       0.0  T
   2   -100.7315399  0.115243E-04  0.477E-02    0.89       1.0  T
   3   -100.7312557  0.284257E-03  0.570E-02    0.93       1.0  T
   4   -100.7315547 -0.299070E-03  0.801E-03    0.89       1.5  T
   5   -100.7315611 -0.638956E-05  0.373E-03    0.90       3.2  T
   6   -100.7315620 -0.873486E-06  0.111E-03    0.90      10.6  T
   7   -100.7315620 -0.560601E-08  0.597E-04    0.90      19.7  T
   8   -100.7315620 -0.169373E-07  0.194E-04    0.90      60.7  T
     SCC iter.                  ...        0 min,  0.065 sec
     gradient                   ...        0 min,  0.069 sec
 * total energy  :  -100.7588639 Eh     change       -0.9169130E-03 Eh
   gradient norm :     0.0114771 Eh/α   predicted    -0.7802568E-03 ( -14.90%)
   displ. norm   :     0.6046694 α      lambda       -0.1055669E-02
   maximum displ.:     0.2478345 α      in ANC's #8, #6, #11, ...

........................................................................
.............................. CYCLE   31 ..............................
........................................................................

 iter      E             dE          RMSdq      gap      omega  full diag
   1   -100.7338770 -0.100734E+03  0.824E-02    0.91       0.0  T
   2   -100.7338789 -0.196384E-05  0.482E-02    0.92       1.0  T
   3   -100.7338495  0.294079E-04  0.174E-02    0.90       1.0  T
   4   -100.7338775 -0.279784E-04  0.615E-03    0.92       1.9  T
   5   -100.7338807 -0.319144E-05  0.210E-03    0.91       5.6  T
   6   -100.7338808 -0.148355E-06  0.132E-03    0.92       8.9  T
   7   -100.7338809 -0.962448E-07  0.676E-04    0.92      17.4  T
   8   -100.7338809 -0.288516E-07  0.201E-04    0.92      58.5  T
     SCC iter.                  ...        0 min,  0.065 sec
     gradient                   ...        0 min,  0.074 sec
 * total energy  :  -100.7596979 Eh     change       -0.8339338E-03 Eh
   gradient norm :     0.0134894 Eh/α   predicted    -0.7208282E-03 ( -13.56%)
   displ. norm   :     0.6623906 α      lambda       -0.1089557E-02
   maximum displ.:     0.2988193 α      in ANC's #8, #5, #11, ...

........................................................................
.............................. CYCLE   32 ..............................
........................................................................

 iter      E             dE          RMSdq      gap      omega  full diag
   1   -100.7334998 -0.100733E+03  0.875E-02    0.93       0.0  T
   2   -100.7334831  0.167146E-04  0.549E-02    0.94       1.0  T
   3   -100.7331265  0.356609E-03  0.641E-02    0.91       1.0  T
   4   -100.7335056 -0.379183E-03  0.119E-02    0.94       1.0  T
   5   -100.7335171 -0.114529E-04  0.275E-03    0.93       4.3  T
   6   -100.7335174 -0.295164E-06  0.184E-03    0.93       6.4  T
   7   -100.7335177 -0.282555E-06  0.647E-04    0.93      18.2  T
   8   -100.7335177 -0.117370E-07  0.200E-04    0.93      58.8  T
     SCC iter.                  ...        0 min,  0.065 sec
     gradient                   ...        0 min,  0.069 sec
 * total energy  :  -100.7605256 Eh     change       -0.8276972E-03 Eh
   gradient norm :     0.0150968 Eh/α   predicted    -0.7838103E-03 (  -5.30%)
   displ. norm   :     0.5755152 α      lambda       -0.9503991E-03
   maximum displ.:     0.2910450 α      in ANC's #8, #5, #27, ...

........................................................................
.............................. CYCLE   33 ..............................
........................................................................

 iter      E             dE          RMSdq      gap      omega  full diag
   1   -100.7371417 -0.100737E+03  0.793E-02    0.94       0.0  T
   2   -100.7371152  0.265004E-04  0.503E-02    0.96       1.0  T
   3   -100.7367185  0.396646E-03  0.665E-02    0.90       1.0  T
   4   -100.7371530 -0.434484E-03  0.744E-03    0.95       1.6  T
   5   -100.7371564 -0.335361E-05  0.231E-03    0.94       5.1  T
   6   -100.7371567 -0.314436E-06  0.129E-03    0.95       9.1  T
   7   -100.7371567 -0.784678E-07  0.525E-04    0.95      22.5  T
   8   -100.7371568 -0.843920E-08  0.151E-04    0.95      78.0  T
     SCC iter.                  ...        0 min,  0.065 sec
     gradient                   ...        0 min,  0.069 sec
 * total energy  :  -100.7612055 Eh     change       -0.6799788E-03 Eh
   gradient norm :     0.0101507 Eh/α   predicted    -0.6326088E-03 (  -6.97%)
   displ. norm   :     0.7045503 α      lambda       -0.8390824E-03
   maximum displ.:     0.3510512 α      in ANC's #8, #5, #11, ...

........................................................................
.............................. CYCLE   34 ..............................
........................................................................

 iter      E             dE          RMSdq      gap      omega  full diag
   1   -100.7305871 -0.100731E+03  0.970E-02    0.95       0.0  T
   2   -100.7305196  0.674874E-04  0.665E-02    0.98       1.0  T
   3   -100.7300138  0.505809E-03  0.788E-02    0.91       1.0  T
   4   -100.7306142 -0.600401E-03  0.120E-02    0.97       1.0  T
   5   -100.7306263 -0.121498E-04  0.422E-03    0.96       2.8  T
   6   -100.7306272 -0.903129E-06  0.170E-03    0.96       6.9  T
   7   -100.7306274 -0.182656E-06  0.979E-04    0.96      12.0  T
   8   -100.7306275 -0.395856E-07  0.290E-04    0.96      40.6  T
     SCC iter.                  ...        0 min,  0.065 sec
     gradient                   ...        0 min,  0.070 sec
 * total energy  :  -100.7617449 Eh     change       -0.5393474E-03 Eh
   gradient norm :     0.0223852 Eh/α   predicted    -0.6277988E-03 (  16.40%)
   displ. norm   :     0.4218537 α      lambda       -0.7125568E-03
   maximum displ.:     0.2259430 α      in ANC's #8, #5, #2, ...

........................................................................
.............................. CYCLE   35 ..............................
........................................................................

 iter      E             dE          RMSdq      gap      omega  full diag
   1   -100.7340989 -0.100734E+03  0.636E-02    0.97       0.0  T
   2   -100.7340725  0.264643E-04  0.420E-02    0.97       1.0  T
   3   -100.7339991  0.733321E-04  0.448E-02    0.97       1.0  T
   4   -100.7341125 -0.113403E-03  0.799E-03    0.98       1.5  T
   5   -100.7341191 -0.653814E-05  0.280E-03    0.97       4.2  T
   6   -100.7341197 -0.642149E-06  0.797E-04    0.97      14.8  T
   7   -100.7341197 -0.714557E-08  0.529E-04    0.97      22.3  T
     SCC iter.                  ...        0 min,  0.057 sec
     gradient                   ...        0 min,  0.069 sec
 * total energy  :  -100.7622575 Eh     change       -0.5126562E-03 Eh
   gradient norm :     0.0099930 Eh/α   predicted    -0.4196835E-03 ( -18.14%)
   displ. norm   :     0.5326530 α      lambda       -0.6036187E-03
   maximum displ.:     0.2777401 α      in ANC's #8, #5, #2, ...

........................................................................
.............................. CYCLE   36 ..............................
........................................................................

 iter      E             dE          RMSdq      gap      omega  full diag
   1   -100.7354958 -0.100735E+03  0.658E-02    0.97       0.0  T
   2   -100.7354916  0.421359E-05  0.401E-02    0.99       1.0  T
   3   -100.7352980  0.193558E-03  0.439E-02    0.94       1.0  T
   4   -100.7354998 -0.201839E-03  0.302E-03    0.98       3.9  T
   5   -100.7355004 -0.602399E-06  0.158E-03    0.98       7.5  T
   6   -100.7355006 -0.164033E-06  0.721E-04    0.98      16.4  T
   7   -100.7355006  0.472960E-08  0.583E-04    0.98      20.2  T
     SCC iter.                  ...        0 min,  0.057 sec
     gradient                   ...        0 min,  0.070 sec
 * total energy  :  -100.7627252 Eh     change       -0.4676817E-03 Eh
   gradient norm :     0.0101744 Eh/α   predicted    -0.3874409E-03 ( -17.16%)
   displ. norm   :     0.5663366 α      lambda       -0.6330896E-03
   maximum displ.:     0.2774944 α      in ANC's #8, #5, #2, ...

........................................................................
.............................. CYCLE   37 ..............................
........................................................................

 iter      E             dE          RMSdq      gap      omega  full diag
   1   -100.7385953 -0.100739E+03  0.615E-02    0.98       0.0  T
   2   -100.7385963 -0.102138E-05  0.367E-02    0.98       1.0  T
   3   -100.7385592  0.370918E-04  0.222E-02    0.99       1.0  T
   4   -100.7385960 -0.367759E-04  0.505E-03    0.98       2.3  T
   5   -100.7385984 -0.239924E-05  0.193E-03    0.99       6.1  T
   6   -100.7385986 -0.226120E-06  0.983E-04    0.98      12.0  T
   7   -100.7385986 -0.206218E-07  0.527E-04    0.99      22.4  T
     SCC iter.                  ...        0 min,  0.057 sec
     gradient                   ...        0 min,  0.069 sec
 * total energy  :  -100.7632341 Eh     change       -0.5088902E-03 Eh
   gradient norm :     0.0099156 Eh/α   predicted    -0.4180745E-03 ( -17.85%)
   displ. norm   :     0.6309068 α      lambda       -0.6388018E-03
   maximum displ.:     0.2971214 α      in ANC's #8, #5, #2, ...

........................................................................
.............................. CYCLE   38 ..............................
........................................................................

 iter      E             dE          RMSdq      gap      omega  full diag
   1   -100.7385724 -0.100739E+03  0.603E-02    0.99       0.0  T
   2   -100.7385703  0.205059E-05  0.365E-02    1.00       1.0  T
   3   -100.7384333  0.136995E-03  0.360E-02    0.96       1.0  T
   4   -100.7385747 -0.141418E-03  0.736E-03    0.99       1.6  T
   5   -100.7385788 -0.401560E-05  0.178E-03    0.99       6.6  T
   6   -100.7385789 -0.114900E-06  0.111E-03    0.99      10.6  T
   7   -100.7385789 -0.402827E-07  0.607E-04    0.99      19.4  T
   8   -100.7385789 -0.132559E-07  0.208E-04    0.99      56.8  T
     SCC iter.                  ...        0 min,  0.065 sec
     gradient                   ...        0 min,  0.075 sec
 * total energy  :  -100.7637438 Eh     change       -0.5096828E-03 Eh
   gradient norm :     0.0101664 Eh/α   predicted    -0.4465384E-03 ( -12.39%)
   displ. norm   :     0.6152265 α      lambda       -0.6196488E-03
   maximum displ.:     0.2674476 α      in ANC's #5, #8, #2, ...

........................................................................
.............................. CYCLE   39 ..............................
........................................................................

 iter      E             dE          RMSdq      gap      omega  full diag
   1   -100.7396365 -0.100740E+03  0.583E-02    0.99       0.0  T
   2   -100.7396361  0.405225E-06  0.348E-02    1.00       1.0  T
   3   -100.7395636  0.725401E-04  0.295E-02    0.97       1.0  T
   4   -100.7396390 -0.754158E-04  0.567E-03    0.99       2.1  T
   5   -100.7396411 -0.209534E-05  0.213E-03    0.99       5.5  T
   6   -100.7396414 -0.308419E-06  0.123E-03    0.99       9.6  T
   7   -100.7396415 -0.805372E-07  0.517E-04    0.99      22.8  T
   8   -100.7396415 -0.751348E-08  0.181E-04    0.99      65.3  T
     SCC iter.                  ...        0 min,  0.065 sec
     gradient                   ...        0 min,  0.069 sec
 * total energy  :  -100.7642100 Eh     change       -0.4661599E-03 Eh
   gradient norm :     0.0084329 Eh/α   predicted    -0.4270947E-03 (  -8.38%)
   displ. norm   :     0.6224216 α      lambda       -0.5461323E-03
   maximum displ.:     0.2896670 α      in ANC's #5, #8, #2, ...

........................................................................
.............................. CYCLE   40 ..............................
........................................................................

 iter      E             dE          RMSdq      gap      omega  full diag
   1   -100.7389276 -0.100739E+03  0.566E-02    0.98       0.0  T
   2   -100.7388952  0.324565E-04  0.388E-02    1.01       1.0  T
   3   -100.7387356  0.159588E-03  0.466E-02    0.96       1.0  T
   4   -100.7389423 -0.206770E-03  0.523E-03    0.99       2.3  T
   5   -100.7389446 -0.221656E-05  0.166E-03    0.99       7.1  T
   6   -100.7389447 -0.111361E-06  0.106E-03    0.99      11.2  T
   7   -100.7389447 -0.394940E-07  0.537E-04    0.99      22.0  T
   8   -100.7389447 -0.104122E-07  0.158E-04    0.99      74.8  T
     SCC iter.                  ...        0 min,  0.065 sec
     gradient                   ...        0 min,  0.069 sec
 * total energy  :  -100.7646119 Eh     change       -0.4019949E-03 Eh
   gradient norm :     0.0114651 Eh/α   predicted    -0.3788582E-03 (  -5.76%)
   displ. norm   :     0.5514622 α      lambda       -0.5311657E-03
   maximum displ.:     0.2608650 α      in ANC's #5, #2, #7, ...

........................................................................
.............................. CYCLE   41 ..............................
........................................................................

 iter      E             dE          RMSdq      gap      omega  full diag
   1   -100.7402233 -0.100740E+03  0.550E-02    0.99       0.0  T
   2   -100.7402173  0.606773E-05  0.345E-02    0.99       1.0  T
   3   -100.7401394  0.778652E-04  0.373E-02    0.99       1.0  T
   4   -100.7402287 -0.892955E-04  0.627E-03    1.00       1.9  T
   5   -100.7402324 -0.369932E-05  0.302E-03    0.99       3.9  T
   6   -100.7402333 -0.858369E-06  0.100E-03    0.99      11.7  T
   7   -100.7402333 -0.332231E-07  0.556E-04    0.99      21.2  T
   8   -100.7402333 -0.101432E-07  0.170E-04    0.99      69.5  T
     SCC iter.                  ...        0 min,  0.066 sec
     gradient                   ...        0 min,  0.069 sec
 * total energy  :  -100.7649374 Eh     change       -0.3254550E-03 Eh
   gradient norm :     0.0114460 Eh/α   predicted    -0.3463543E-03 (   6.42%)
   displ. norm   :     0.5629834 α      lambda       -0.5051565E-03
   maximum displ.:     0.2786812 α      in ANC's #5, #2, #8, ...

........................................................................
.............................. CYCLE   42 ..............................
........................................................................

 iter      E             dE          RMSdq      gap      omega  full diag
   1   -100.7363713 -0.100736E+03  0.672E-02    0.99       0.0  T
   2   -100.7362956  0.757189E-04  0.516E-02    1.02       1.0  T
   3   -100.7362533  0.423086E-04  0.459E-02    0.98       1.0  T
   4   -100.7364007 -0.147383E-03  0.106E-02    1.01       1.1  T
   5   -100.7364098 -0.916060E-05  0.314E-03    1.00       3.8  T
   6   -100.7364104 -0.519948E-06  0.114E-03    1.00      10.3  T
   7   -100.7364104 -0.540237E-07  0.594E-04    1.00      19.8  T
   8   -100.7364104 -0.135690E-07  0.178E-04    1.00      66.3  T
     SCC iter.                  ...        0 min,  0.065 sec
     gradient                   ...        0 min,  0.070 sec
 * total energy  :  -100.7651732 Eh     change       -0.2357503E-03 Eh
   gradient norm :     0.0117019 Eh/α   predicted    -0.3326357E-03 (  41.10%)
   displ. norm   :     0.3209868 α      lambda       -0.3063993E-03
   maximum displ.:     0.1663372 α      in ANC's #2, #5, #7, ...
 * RMSD in coord.:     1.2021097 α      energy gain  -0.2719511E-01 Eh

generating ANC from model Hessian ...
Using Lindh-Hessian (1995)
 Shifting diagonal of input Hessian by    9.9592686486171707E-003
 Lowest  eigenvalues of input Hessian
    0.000000    0.000000    0.000000    0.000000    0.000000    0.000000
    0.010000    0.010068    0.010215    0.010293    0.010367    0.010510
    0.010659    0.010883    0.010914    0.011352    0.011722    0.012695
 Highest eigenvalues
    2.040869    2.104017    2.140683    2.146926    2.180197    2.205451


........................................................................
.............................. CYCLE   43 ..............................
........................................................................

 iter      E             dE          RMSdq      gap      omega  full diag
   1   -100.7405061 -0.100741E+03  0.334E-02    1.00       0.0  T
   2   -100.7404985  0.763490E-05  0.218E-02    1.01       1.0  T
   3   -100.7404497  0.488163E-04  0.270E-02    0.99       1.0  T
   4   -100.7405100 -0.603322E-04  0.335E-03    1.01       3.5  T
   5   -100.7405110 -0.968581E-06  0.145E-03    1.00       8.1  T
   6   -100.7405111 -0.131724E-06  0.596E-04    1.00      19.8  T
   7   -100.7405111 -0.874846E-08  0.378E-04    1.00      31.2  T
     SCC iter.                  ...        0 min,  0.057 sec
     gradient                   ...        0 min,  0.069 sec
 * total energy  :  -100.7653658 Eh     change       -0.1926348E-03 Eh
   gradient norm :     0.0079288 Eh/α   predicted     0.0000000E+00 (-100.00%)
   displ. norm   :     0.0643321 α      lambda       -0.1152591E-03
   maximum displ.:     0.0302117 α      in ANC's #2, #3, #5, ...

........................................................................
.............................. CYCLE   44 ..............................
........................................................................

 iter      E             dE          RMSdq      gap      omega  full diag
   1   -100.7415566 -0.100742E+03  0.166E-02    1.00       0.0  T
   2   -100.7415550  0.157384E-05  0.110E-02    1.00       1.1  T
   3   -100.7415450  0.100250E-04  0.124E-02    1.01       1.0  T
   4   -100.7415573 -0.123338E-04  0.203E-03    1.00       5.8  T
   5   -100.7415577 -0.431494E-06  0.923E-04    1.00      12.8  T
   6   -100.7415578 -0.584812E-07  0.247E-04    1.00      47.7  T
     SCC iter.                  ...        0 min,  0.050 sec
     gradient                   ...        0 min,  0.070 sec
 * total energy  :  -100.7654631 Eh     change       -0.9734020E-04 Eh
   gradient norm :     0.0062674 Eh/α   predicted    -0.6694219E-04 ( -31.23%)
   displ. norm   :     0.1526019 α      lambda       -0.1717131E-03
   maximum displ.:     0.0757733 α      in ANC's #2, #3, #5, ...

........................................................................
.............................. CYCLE   45 ..............................
........................................................................

 iter      E             dE          RMSdq      gap      omega  full diag
   1   -100.7426913 -0.100743E+03  0.318E-02    1.00       0.0  T
   2   -100.7426854  0.592366E-05  0.208E-02    1.00       1.0  T
   3   -100.7426442  0.411842E-04  0.244E-02    1.02       1.0  T
   4   -100.7426943 -0.501475E-04  0.333E-03    1.00       3.5  T
   5   -100.7426954 -0.103864E-05  0.151E-03    1.00       7.8  T
   6   -100.7426955 -0.150261E-06  0.500E-04    1.00      23.6  T
   7   -100.7426955 -0.525203E-08  0.271E-04    1.00      43.5  T
     SCC iter.                  ...        0 min,  0.057 sec
     gradient                   ...        0 min,  0.069 sec
 * total energy  :  -100.7655483 Eh     change       -0.8514523E-04 Eh
   gradient norm :     0.0091458 Eh/α   predicted    -0.8786952E-04 (   3.20%)
   displ. norm   :     0.1137671 α      lambda       -0.8890664E-04
   maximum displ.:     0.0606886 α      in ANC's #2, #3, #5, ...

........................................................................
.............................. CYCLE   46 ..............................
........................................................................

 iter      E             dE          RMSdq      gap      omega  full diag
   1   -100.7427025 -0.100743E+03  0.181E-02    1.00       0.0  T
   2   -100.7427025  0.787041E-07  0.107E-02    1.00       1.1  T
   3   -100.7426943  0.812545E-05  0.885E-03    1.01       1.3  T
   4   -100.7427027 -0.838787E-05  0.121E-03    1.00       9.7  T
   5   -100.7427028 -0.114722E-06  0.453E-04    1.00      26.0  T
   6   -100.7427028 -0.586572E-08  0.223E-04    1.00      52.8  T
     SCC iter.                  ...        0 min,  0.050 sec
     gradient                   ...        0 min,  0.072 sec
 * total energy  :  -100.7656162 Eh     change       -0.6796742E-04 Eh
   gradient norm :     0.0049592 Eh/α   predicted    -0.4503065E-04 ( -33.75%)
   displ. norm   :     0.2014599 α      lambda       -0.1243959E-03
   maximum displ.:     0.1086377 α      in ANC's #2, #3, #5, ...

........................................................................
.............................. CYCLE   47 ..............................
........................................................................

 iter      E             dE          RMSdq      gap      omega  full diag
   1   -100.7421359 -0.100742E+03  0.302E-02    1.00       0.0  T
   2   -100.7421360 -0.139774E-06  0.179E-02    1.00       1.0  T
   3   -100.7421290  0.704326E-05  0.983E-03    1.00       1.2  T
   4   -100.7421363 -0.736291E-05  0.149E-03    1.00       7.9  T
   5   -100.7421364 -0.101542E-06  0.925E-04    1.00      12.7  T
   6   -100.7421365 -0.367624E-07  0.601E-04    1.00      19.6  T
     SCC iter.                  ...        0 min,  0.050 sec
     gradient                   ...        0 min,  0.069 sec
 * total energy  :  -100.7657162 Eh     change       -0.9991767E-04 Eh
   gradient norm :     0.0074610 Eh/α   predicted    -0.6472440E-04 ( -35.22%)
   displ. norm   :     0.2927463 α      lambda       -0.1399047E-03
   maximum displ.:     0.1614210 α      in ANC's #2, #3, #5, ...

........................................................................
.............................. CYCLE   48 ..............................
........................................................................

 iter      E             dE          RMSdq      gap      omega  full diag
   1   -100.7412925 -0.100741E+03  0.412E-02    1.00       0.0  T
   2   -100.7412919  0.594118E-06  0.247E-02    1.00       1.0  T
   3   -100.7412569  0.350362E-04  0.212E-02    0.99       1.0  T
   4   -100.7412932 -0.363684E-04  0.280E-03    1.00       4.2  T
   5   -100.7412940 -0.747957E-06  0.137E-03    1.00       8.6  T
   6   -100.7412941 -0.861740E-07  0.754E-04    1.00      15.6  T
   7   -100.7412941 -0.264446E-07  0.246E-04    1.00      47.8  T
     SCC iter.                  ...        0 min,  0.057 sec
     gradient                   ...        0 min,  0.069 sec
 * total energy  :  -100.7658239 Eh     change       -0.1077295E-03 Eh
   gradient norm :     0.0060432 Eh/α   predicted    -0.7594835E-04 ( -29.50%)
   displ. norm   :     0.2830937 α      lambda       -0.1033501E-03
   maximum displ.:     0.1621795 α      in ANC's #2, #3, #5, ...

........................................................................
.............................. CYCLE   49 ..............................
........................................................................

 iter      E             dE          RMSdq      gap      omega  full diag
   1   -100.7411139 -0.100741E+03  0.364E-02    1.00       0.0  T
   2   -100.7411128  0.106554E-05  0.220E-02    1.00       1.0  T
   3   -100.7410760  0.368041E-04  0.218E-02    0.99       1.0  T
   4   -100.7411146 -0.385303E-04  0.284E-03    1.00       4.1  T
   5   -100.7411154 -0.841555E-06  0.118E-03    1.00      10.0  T
   6   -100.7411155 -0.574234E-07  0.662E-04    1.00      17.8  T
   7   -100.7411155 -0.198617E-07  0.209E-04    1.00      56.3  T
     SCC iter.                  ...        0 min,  0.057 sec
     gradient                   ...        0 min,  0.069 sec
 * total energy  :  -100.7659065 Eh     change       -0.8256960E-04 Eh
   gradient norm :     0.0037525 Eh/α   predicted    -0.5581692E-04 ( -32.40%)
   displ. norm   :     0.2659534 α      lambda       -0.9263588E-04
   maximum displ.:     0.1577276 α      in ANC's #2, #3, #5, ...

........................................................................
.............................. CYCLE   50 ..............................
........................................................................

 iter      E             dE          RMSdq      gap      omega  full diag
   1   -100.7417629 -0.100742E+03  0.303E-02    1.00       0.0  T
   2   -100.7417618  0.108963E-05  0.183E-02    1.00       1.0  T
   3   -100.7417333  0.284635E-04  0.195E-02    1.00       1.0  T
   4   -100.7417634 -0.300552E-04  0.275E-03    1.00       4.3  T
   5   -100.7417642 -0.823972E-06  0.973E-04    1.00      12.1  T
   6   -100.7417642 -0.434682E-07  0.544E-04    1.00      21.7  T
     SCC iter.                  ...        0 min,  0.050 sec
     gradient                   ...        0 min,  0.072 sec
 * total energy  :  -100.7659840 Eh     change       -0.7756410E-04 Eh
   gradient norm :     0.0034882 Eh/α   predicted    -0.4959605E-04 ( -36.06%)
   displ. norm   :     0.2954362 α      lambda       -0.1026472E-03
   maximum displ.:     0.1784923 α      in ANC's #2, #3, #5, ...

........................................................................
.............................. CYCLE   51 ..............................
........................................................................

 iter      E             dE          RMSdq      gap      omega  full diag
   1   -100.7426925 -0.100743E+03  0.306E-02    1.00       0.0  T
   2   -100.7426914  0.103512E-05  0.184E-02    1.01       1.0  T
   3   -100.7426615  0.299564E-04  0.196E-02    1.00       1.0  T
   4   -100.7426930 -0.314846E-04  0.273E-03    1.01       4.3  T
   5   -100.7426937 -0.784098E-06  0.940E-04    1.00      12.5  T
   6   -100.7426938 -0.403648E-07  0.543E-04    1.01      21.7  T
     SCC iter.                  ...        0 min,  0.050 sec
     gradient                   ...        0 min,  0.069 sec
 * total energy  :  -100.7660712 Eh     change       -0.8717674E-04 Eh
   gradient norm :     0.0045024 Eh/α   predicted    -0.5580371E-04 ( -35.99%)
   displ. norm   :     0.3522907 α      lambda       -0.1184118E-03
   maximum displ.:     0.2146895 α      in ANC's #2, #3, #5, ...

........................................................................
.............................. CYCLE   52 ..............................
........................................................................

 iter      E             dE          RMSdq      gap      omega  full diag
   1   -100.7433844 -0.100743E+03  0.337E-02    1.01       0.0  T
   2   -100.7433832  0.112596E-05  0.202E-02    1.01       1.0  T
   3   -100.7433434  0.397967E-04  0.214E-02    1.00       1.0  T
   4   -100.7433851 -0.416734E-04  0.234E-03    1.01       5.0  T
   5   -100.7433856 -0.510471E-06  0.931E-04    1.01      12.7  T
   6   -100.7433856 -0.347484E-07  0.550E-04    1.01      21.4  T
     SCC iter.                  ...        0 min,  0.050 sec
     gradient                   ...        0 min,  0.069 sec
 * total energy  :  -100.7661735 Eh     change       -0.1022753E-03 Eh
   gradient norm :     0.0050782 Eh/α   predicted    -0.6655619E-04 ( -34.92%)
   displ. norm   :     0.4248725 α      lambda       -0.1429768E-03
   maximum displ.:     0.2604883 α      in ANC's #2, #3, #5, ...

........................................................................
.............................. CYCLE   53 ..............................
........................................................................

 iter      E             dE          RMSdq      gap      omega  full diag
   1   -100.7436983 -0.100744E+03  0.396E-02    1.01       0.0  T
   2   -100.7436968  0.157487E-05  0.238E-02    1.01       1.0  T
   3   -100.7436355  0.612204E-04  0.252E-02    0.99       1.0  T
   4   -100.7436996 -0.641032E-04  0.190E-03    1.01       6.2  T
   5   -100.7436999 -0.255815E-06  0.884E-04    1.01      13.3  T
   6   -100.7436999 -0.144037E-07  0.556E-04    1.01      21.2  T
     SCC iter.                  ...        0 min,  0.049 sec
     gradient                   ...        0 min,  0.069 sec
 * total energy  :  -100.7662988 Eh     change       -0.1253698E-03 Eh
   gradient norm :     0.0049747 Eh/α   predicted    -0.8439739E-04 ( -32.68%)
   displ. norm   :     0.5069632 α      lambda       -0.1738414E-03
   maximum displ.:     0.3128839 α      in ANC's #2, #3, #5, ...

........................................................................
.............................. CYCLE   54 ..............................
........................................................................

 iter      E             dE          RMSdq      gap      omega  full diag
   1   -100.7434936 -0.100743E+03  0.471E-02    1.01       0.0  T
   2   -100.7434913  0.231462E-05  0.282E-02    1.02       1.0  T
   3   -100.7433998  0.914803E-04  0.299E-02    0.99       1.0  T
   4   -100.7434955 -0.956524E-04  0.231E-03    1.01       5.1  T
   5   -100.7434959 -0.386201E-06  0.926E-04    1.01      12.7  T
   6   -100.7434959 -0.174263E-07  0.550E-04    1.01      21.4  T
[...]
         :: gradient norm              0.001551269084 Eh/a0 ::
         :: HOMO-LUMO gap              1.032891274195 eV    ::
         ::.................................................::
         :: SCC energy              -100.745985201005 Eh    ::
         :: -> isotropic ES            0.106029928225 Eh    ::
         :: -> anisotropic ES          0.005084403829 Eh    ::
         :: -> anisotropic XC          0.044134667272 Eh    ::
         :: -> dispersion             -0.076888556991 Eh    ::
         :: repulsion energy           1.506610110189 Eh    ::
         :: add. restraining          -1.530300655674 Eh    ::
         :: total charge               1.000000000182 e     ::
         :::::::::::::::::::::::::::::::::::::::::::::::::::::

           -------------------------------------------------
          |                Property Printout                |
           -------------------------------------------------

    * Orbital Energies and Occupations

         #    Occupation            Energy/Eh            Energy/eV
      -------------------------------------------------------------
         1        2.0000           -0.8236755             -22.4134
       ...           ...                  ...                  ...
        78        1.9982           -0.5293977             -14.4056
        79        1.9980           -0.5279512             -14.3663
        80        1.9979           -0.5274021             -14.3513
        81        1.9970           -0.5217129             -14.1965
        82        1.9969           -0.5211937             -14.1824
        83        1.9950           -0.5136398             -13.9768
        84        1.9944           -0.5117438             -13.9253
        85        1.9931           -0.5083712             -13.8335
        86        1.9781           -0.4900321             -13.3345
        87        1.9680           -0.4839351             -13.1685
        88        1.9328           -0.4718827             -12.8406
        89        1.8578           -0.4593910             -12.5007
        90        1.6551           -0.4435360             -12.0692 (HOMO)
        91        0.6078           -0.4055780             -11.0363 (LUMO)
        92        0.0181           -0.3443566              -9.3704
        93        0.0108           -0.3360593              -9.1446
        94        0.0033           -0.3170960              -8.6286
        95        0.0031           -0.3163377              -8.6080
        96        0.0026           -0.3134572              -8.5296
        97        0.0000           -0.2364325              -6.4337
        98        0.0000           -0.1908742              -5.1940
        99                         -0.1108285              -3.0158
       100                         -0.0764673              -2.0808
       101                         -0.0735173              -2.0005
       ...                                ...                  ...
       171                          1.1311914              30.7813
      -------------------------------------------------------------
                  HL-Gap            0.0379581 Eh            1.0329 eV
             Fermi-level           -0.4187012 Eh          -11.3934 eV

     #   Z          covCN         q      C6AA      α(0)
     1   7 N        1.774    -0.272    27.882     7.819
     2   6 C        2.828     0.102    25.728     8.312
     3   6 C        3.907     0.007    20.404     6.421
     4   6 C        2.974     0.003    27.963     8.674
     5   6 C        2.920    -0.080    29.998     8.982
     6   6 C        2.862     0.129    25.169     8.223
     7   8 O        1.706    -0.229    17.801     5.696
     8   6 C        3.645     0.027    20.448     6.499
     9   6 C        2.864     0.129    25.178     8.225
    10   8 O        1.706    -0.228    17.774     5.692
    11   6 C        3.645     0.026    20.464     6.502
    12   6 C        2.913    -0.074    29.847     8.959
    13   6 C        2.921    -0.052    29.300     8.877
    14   6 C        3.812    -0.064    21.715     6.633
    15   6 C        3.801    -0.068    21.800     6.647
    16   6 C        2.860    -0.039    28.964     8.821
    17   7 N        2.730     0.075    19.933     6.631
    18   6 C        2.863    -0.050    29.227     8.862
    19   6 C        3.791    -0.065    21.749     6.642
    20   6 C        3.846    -0.041    21.271     6.560
    21   6 C        2.912    -0.045    29.117     8.848
    22   6 C        2.899    -0.063    29.559     8.914
    23   6 C        2.865     0.139    24.963     8.190
    24   8 O        1.706    -0.194    17.242     5.606
    25   6 C        3.646     0.019    20.583     6.520
    26   6 C        2.850     0.134    25.073     8.207
    27   8 O        1.706    -0.235    17.887     5.710
    28   6 C        3.646     0.027    20.459     6.500
    29   6 C        2.907    -0.089    30.238     9.017
    30   6 C        3.718    -0.075    22.064     6.710
    31   6 C        3.853    -0.007    20.670     6.466
    32   6 C        3.756    -0.117    22.800     6.808
    33   6 C        3.755    -0.119    22.842     6.815
    34   1 H        0.926     0.053     2.278     2.360
    35   1 H        0.924     0.054     2.267     2.354
    36   1 H        0.925     0.081     1.965     2.192
    37   1 H        0.924     0.047     2.356     2.400
    38   1 H        0.924     0.055     2.253     2.347
    39   1 H        0.925     0.082     1.963     2.191
    40   1 H        0.924     0.049     2.327     2.386
    41   1 H        0.926     0.053     2.285     2.364
    42   1 H        0.926     0.041     2.441     2.443
    43   1 H        0.925     0.056     2.241     2.341
    44   1 H        0.924     0.051     2.302     2.373
    45   1 H        0.925     0.057     2.232     2.336
    46   1 H        0.923     0.066     2.135     2.285
    47   1 H        0.923     0.006     2.958     2.690
    48   1 H        0.926     0.057     2.231     2.336
    49   1 H        0.926     0.052     2.300     2.371
    50   1 H        0.930     0.107     1.719     2.050
    51   1 H        0.924     0.061     2.188     2.313
    52   1 H        0.925     0.064     2.157     2.297
    53   1 H        0.926     0.051     2.312     2.378
    54   1 H        0.926     0.063     2.160     2.298
    55   1 H        0.924     0.064     2.148     2.292
    56   1 H        0.924     0.062     2.178     2.308
    57   1 H        0.925     0.089     1.892     2.151
    58   1 H        0.925     0.082     1.955     2.186
    59   1 H        0.924     0.051     2.305     2.374
    60   1 H        0.924     0.047     2.358     2.401
    61   1 H        0.926     0.047     2.352     2.398
    62   1 H        0.925     0.081     1.964     2.192
    63   1 H        0.924     0.082     1.962     2.190
    64   1 H        0.925     0.080     1.979     2.200
    65   1 H        0.924     0.037     2.490     2.468
    66   1 H        0.925     0.066     2.131     2.283
    67   1 H        0.925     0.035     2.518     2.482
    68   1 H        0.925     0.051     2.311     2.377
    69   1 H        0.925     0.064     2.158     2.297
    70   1 H        0.925     0.036     2.503     2.474
    71   1 H        0.925     0.054     2.274     2.358
    72   1 H        0.860     0.153     1.381     1.841

 Mol. C6AA /au·bohr⁶  :      47441.407615
 Mol. C8AA /au·bohr⁸  :    1082250.117432
 Mol. α(0) /au        :        334.365293


Wiberg/Mayer (AO) data.
largest (>0.10) Wiberg bond orders for each atom

 ---------------------------------------------------------------------------
     #   Z sym  total        # sym  WBO       # sym  WBO       # sym  WBO
 ---------------------------------------------------------------------------
     1   7 N    3.020 --     2 C    1.952    72 H    0.943
     2   6 C    3.934 --     1 N    1.952     3 C    0.994    47 H    0.914
     3   6 C    3.973 --     2 C    0.994     4 C    0.975    14 C    0.953
                            31 C    0.942
     4   6 C    3.946 --    13 C    1.409     5 C    1.369     3 C    0.975
     5   6 C    3.961 --     6 C    1.399     4 C    1.369    34 H    0.958
     6   6 C    3.902 --     5 C    1.399     9 C    1.221     7 O    1.100
     7   8 O    2.253 --     6 C    1.100     8 C    0.978
     8   6 C    3.932 --     7 O    0.978    36 H    0.977    37 H    0.973
                            35 H    0.973
     9   6 C    3.898 --    12 C    1.389     6 C    1.221    10 O    1.103
    10   8 O    2.251 --     9 C    1.103    11 C    0.977
    11   6 C    3.930 --    10 O    0.977    39 H    0.977    38 H    0.973
                            40 H    0.973
    12   6 C    3.961 --    13 C    1.405     9 C    1.389    41 H    0.964
    13   6 C    3.951 --     4 C    1.409    12 C    1.405    42 H    0.963
    14   6 C    3.975 --    15 C    0.986    44 H    0.972    43 H    0.968
                             3 C    0.953
    15   6 C    3.986 --    16 C    1.049    14 C    0.986    45 H    0.962
                            46 H    0.938
    16   6 C    3.673 --    17 N    1.349    15 C    1.049    48 H    0.957
                            18 C    0.189
    17   7 N    3.711 --    16 C    1.349    18 C    1.297    30 C    0.985
    18   6 C    3.678 --    17 N    1.297    19 C    1.110    49 H    0.963
                            16 C    0.189
    19   6 C    3.921 --    18 C    1.110    52 H    0.972    51 H    0.958
                            20 C    0.798
    20   6 C    3.959 --    21 C    1.063    29 C    1.056    50 H    0.958
                            19 C    0.798
    21   6 C    3.758 --    22 C    1.604    20 C    1.063    53 H    0.969
    22   6 C    3.972 --    21 C    1.604    23 C    1.274    54 H    0.959
    23   6 C    3.699 --    22 C    1.274    24 O    1.158    26 C    1.140
    24   8 O    2.269 --    23 C    1.158    25 C    0.969
    25   6 C    3.922 --    57 H    0.976    56 H    0.972    55 H    0.970
                            24 O    0.969
    26   6 C    3.928 --    29 C    1.564    23 C    1.140    27 O    1.092
    27   8 O    2.258 --    26 C    1.092    28 C    0.978    29 C    0.104
    28   6 C    3.933 --    27 O    0.978    58 H    0.977    60 H    0.974
                            59 H    0.974
    29   6 C    3.812 --    26 C    1.564    20 C    1.056    61 H    0.964
                            27 O    0.104
    30   6 C    3.954 --    17 N    0.985    64 H    0.976    62 H    0.969
                            63 H    0.965
    31   6 C    3.971 --    32 C    1.008    33 C    1.008    65 H    0.960
                             3 C    0.942
    32   6 C    3.979 --    31 C    1.008    67 H    0.981    68 H    0.981
                            66 H    0.975
    33   6 C    3.980 --    31 C    1.008    70 H    0.982    71 H    0.980
                            69 H    0.975
    34   1 H    0.996 --     5 C    0.958
    35   1 H    0.993 --     8 C    0.973
    36   1 H    0.993 --     8 C    0.977
    37   1 H    0.994 --     8 C    0.973
    38   1 H    0.992 --    11 C    0.973
    39   1 H    0.993 --    11 C    0.977
    40   1 H    0.993 --    11 C    0.973
    41   1 H    0.995 --    12 C    0.964
    42   1 H    0.998 --    13 C    0.963
    43   1 H    0.995 --    14 C    0.968
    44   1 H    0.996 --    14 C    0.972
    45   1 H    0.996 --    15 C    0.962
    46   1 H    0.975 --    15 C    0.938
    47   1 H    0.982 --     2 C    0.914
    48   1 H    0.996 --    16 C    0.957
    49   1 H    0.996 --    18 C    0.963
    50   1 H    0.981 --    20 C    0.958
    51   1 H    0.990 --    19 C    0.958
    52   1 H    0.992 --    19 C    0.972
    53   1 H    0.997 --    21 C    0.969
    54   1 H    0.994 --    22 C    0.959
    55   1 H    0.988 --    25 C    0.970
    56   1 H    0.989 --    25 C    0.972
    57   1 H    0.992 --    25 C    0.976
    58   1 H    0.993 --    28 C    0.977
    59   1 H    0.995 --    28 C    0.974
    60   1 H    0.996 --    28 C    0.974
    61   1 H    0.996 --    29 C    0.964
    62   1 H    0.992 --    30 C    0.969
    63   1 H    0.992 --    30 C    0.965
    64   1 H    0.993 --    30 C    0.976
    65   1 H    0.991 --    31 C    0.960
    66   1 H    0.991 --    32 C    0.975
    67   1 H    0.996 --    32 C    0.981
    68   1 H    0.994 --    32 C    0.981
    69   1 H    0.992 --    33 C    0.975
    70   1 H    0.997 --    33 C    0.982
    71   1 H    0.993 --    33 C    0.980
    72   1 H    0.971 --     1 N    0.943
 ---------------------------------------------------------------------------

Topologies differ in total number of bonds
Writing topology from bond orders to xtbtopo.mol

molecular dipole:
                 x           y           z       tot (Debye)
 q only:        1.230      -0.228      -1.117
   full:        1.472      -0.386      -1.309       5.102
molecular quadrupole (traceless):
                xx          xy          yy          xz          yz          zz
 q only:       51.846      14.522     -19.031       1.248     -11.834     -32.815
  q+dip:       50.581      16.159     -19.396       2.857     -16.018     -31.186
   full:       48.850      16.295     -19.538       0.872     -15.722     -29.312

           -------------------------------------------------
          |                Geometry Summary                 |
           -------------------------------------------------

      molecular mass/u    :      455.6105846
   center of mass at/Å    :       -0.0705227       0.0225495       0.0092655
  moments of inertia/u·Å² :        0.2337616E+04   0.9264536E+04   0.1007368E+05
rotational constants/cm⁻¹ :        0.7211463E-02   0.1819587E-02   0.1673434E-02

 * 64 selected distances

     #   Z          #   Z                                           value/Å
     1   7 N        2   6 C                                       1.2498250
     4   6 C        5   6 C                                       1.3959094
     5   6 C        6   6 C                                       1.3850743
     6   6 C        7   8 O                                       1.3488403
     7   8 O        8   6 C                                       1.4081658
     6   6 C        9   6 C                                       1.4214498
     9   6 C       10   8 O                                       1.3475672
    10   8 O       11   6 C                                       1.4087915
     9   6 C       12   6 C                                       1.3862045
     4   6 C       13   6 C                                       1.3872189
    12   6 C       13   6 C                                       1.3890465
    14   6 C       15   6 C                                       1.5386213 (max)
    15   6 C       16   6 C                                       1.4857734
    16   6 C       17   7 N                                       1.3305663
    17   7 N       18   6 C                                       1.3417559
    18   6 C       19   6 C                                       1.4601789
    20   6 C       21   6 C                                       1.4841339
    21   6 C       22   6 C                                       1.3585040
    22   6 C       23   6 C                                       1.4057647
    23   6 C       24   8 O                                       1.3326661
    24   8 O       25   6 C                                       1.4107147
    26   6 C       27   8 O                                       1.3498353
    27   8 O       28   6 C                                       1.4076538
    26   6 C       29   6 C                                       1.3591449
    17   7 N       30   6 C                                       1.4546876
    31   6 C       32   6 C                                       1.5265848
    31   6 C       33   6 C                                       1.5262189
     5   6 C       34   1 H                                       1.0772408
     8   6 C       35   1 H                                       1.0941520
     8   6 C       36   1 H                                       1.0880698
     8   6 C       37   1 H                                       1.0950664
    11   6 C       38   1 H                                       1.0938727
    11   6 C       39   1 H                                       1.0881543
    11   6 C       40   1 H                                       1.0946843
    12   6 C       41   1 H                                       1.0778453
    13   6 C       42   1 H                                       1.0792797
    14   6 C       43   1 H                                       1.0898876
    14   6 C       44   1 H                                       1.0908013
    15   6 C       45   1 H                                       1.0871660
    15   6 C       46   1 H                                       1.0983473
    16   6 C       48   1 H                                       1.0771293
    18   6 C       49   1 H                                       1.0749000
    20   6 C       50   1 H                                       0.7857784 (min)
    19   6 C       51   1 H                                       1.0902613
    19   6 C       52   1 H                                       1.0867781
    21   6 C       53   1 H                                       1.0796526
    22   6 C       54   1 H                                       1.0784082
    25   6 C       55   1 H                                       1.0934150
    25   6 C       56   1 H                                       1.0936798
    25   6 C       57   1 H                                       1.0883655
    28   6 C       58   1 H                                       1.0880767
    28   6 C       59   1 H                                       1.0943329
    28   6 C       60   1 H                                       1.0947662
    29   6 C       61   1 H                                       1.0781510
    30   6 C       62   1 H                                       1.0898218
    30   6 C       63   1 H                                       1.0911029
    30   6 C       64   1 H                                       1.0868591
    31   6 C       65   1 H                                       1.0966456
    32   6 C       66   1 H                                       1.0854943
    32   6 C       67   1 H                                       1.0873665
    32   6 C       68   1 H                                       1.0869111
    33   6 C       69   1 H                                       1.0855111
    33   6 C       70   1 H                                       1.0865636
    33   6 C       71   1 H                                       1.0869706

 * 4 distinct bonds (by element types)

   Z      Z             #   av. dist./Å        max./Å        min./Å
   1 H    6 C          37     1.0795003     1.0983473     0.7857784
   6 C    6 C          15     1.4339885     1.5386213     1.3585040
   6 C    7 N           4     1.3442087     1.4546876     1.2498250
   6 C    8 O           8     1.3767793     1.4107147     1.3326661


optimized geometry written to: xtbopt.xyz


           -------------------------------------------------
          | TOTAL ENERGY             -100.767839603317 Eh   |
          | GRADIENT NORM               0.001551269084 Eh/α |
          | HOMO-LUMO GAP               1.032891274195 eV   |
           -------------------------------------------------

------------------------------------------------------------------------
 * finished run on 2024/04/06 at 11:16:56.738     
------------------------------------------------------------------------
 total:
 * wall-time:     0 d,  0 h,  0 min, 11.267 sec
 *  cpu-time:     0 d,  0 h,  0 min, 11.246 sec
 * ratio c/w:     0.998 speedup
 SCF:
 * wall-time:     0 d,  0 h,  0 min,  0.191 sec
 *  cpu-time:     0 d,  0 h,  0 min,  0.191 sec
 * ratio c/w:     0.999 speedup
 ANC optimizer:
 * wall-time:     0 d,  0 h,  0 min, 11.033 sec
 *  cpu-time:     0 d,  0 h,  0 min, 11.030 sec
 * ratio c/w:     1.000 speedup

