      -----------------------------------------------------------      
     |                   =====================                   |     
     |                           x T B                           |     
     |                   =====================                   |     
     |                         S. Grimme                         |     
     |          Mulliken Center for Theoretical Chemistry        |     
     |                    University of Bonn                     |     
      -----------------------------------------------------------      

   * xtb version 6.6.1 (8d0f1dd) compiled by 'conda@1efc2f54142f' on 2023-08-01

   xtb is free software: you can redistribute it and/or modify it under
   the terms of the GNU Lesser General Public License as published by
   the Free Software Foundation, either version 3 of the License, or
   (at your option) any later version.
   
   xtb is distributed in the hope that it will be useful,
   but WITHOUT ANY WARRANTY; without even the implied warranty of
   MERCHANTABILITY or FITNESS FOR A PARTICULAR PURPOSE.  See the
   GNU Lesser General Public License for more details.
   
   Cite this work as:
   * C. Bannwarth, E. Caldeweyher, S. Ehlert, A. Hansen, P. Pracht,
     J. Seibert, S. Spicher, S. Grimme, WIREs Comput. Mol. Sci., 2020, 11,
     e01493. DOI: 10.1002/wcms.1493
   
   for GFN2-xTB:
   * C. Bannwarth, S. Ehlert and S. Grimme., J. Chem. Theory Comput., 2019,
     15, 1652-1671. DOI: 10.1021/acs.jctc.8b01176
   for GFN1-xTB:
   * S. Grimme, C. Bannwarth, P. Shushkov, J. Chem. Theory Comput., 2017,
     13, 1989-2009. DOI: 10.1021/acs.jctc.7b00118
   for GFN0-xTB:
   * P. Pracht, E. Caldeweyher, S. Ehlert, S. Grimme, ChemRxiv, 2019, preprint.
     DOI: 10.26434/chemrxiv.8326202.v1
   for GFN-FF:
   * S. Spicher and S. Grimme, Angew. Chem. Int. Ed., 2020, 59, 15665-15673.
     DOI: 10.1002/anie.202004239
   
   for ALPB and GBSA implicit solvation:
   * S. Ehlert, M. Stahn, S. Spicher, S. Grimme, J. Chem. Theory Comput.,
     2021, 17, 4250-4261. DOI: 10.1021/acs.jctc.1c00471
   
   for DFT-D4:
   * E. Caldeweyher, C. Bannwarth and S. Grimme, J. Chem. Phys., 2017,
     147, 034112. DOI: 10.1063/1.4993215
   * E. Caldeweyher, S. Ehlert, A. Hansen, H. Neugebauer, S. Spicher,
     C. Bannwarth and S. Grimme, J. Chem. Phys., 2019, 150, 154122.
     DOI: 10.1063/1.5090222
   * E. Caldeweyher, J.-M. Mewes, S. Ehlert and S. Grimme, Phys. Chem. Chem. Phys.
     2020, 22, 8499-8512. DOI: 10.1039/D0CP00502A
   
   for sTDA-xTB:
   * S. Grimme and C. Bannwarth, J. Chem. Phys., 2016, 145, 054103.
     DOI: 10.1063/1.4959605
   
   in the mass-spec context:
   * V. Asgeirsson, C. Bauer and S. Grimme, Chem. Sci., 2017, 8, 4879.
     DOI: 10.1039/c7sc00601b
   * J. Koopman and S. Grimme, ACS Omega 2019, 4, 12, 15120-15133.
     DOI: 10.1021/acsomega.9b02011
   
   for metadynamics refer to:
   * S. Grimme, J. Chem. Theory Comput., 2019, 155, 2847-2862
     DOI: 10.1021/acs.jctc.9b00143
   
   for SPH calculations refer to:
   * S. Spicher and S. Grimme, J. Chem. Theory Comput., 2021, 17, 1701-1714
     DOI: 10.1021/acs.jctc.0c01306
   
   with help from (in alphabetical order)
   P. Atkinson, C. Bannwarth, F. Bohle, G. Brandenburg, E. Caldeweyher
   M. Checinski, S. Dohm, S. Ehlert, S. Ehrlich, I. Gerasimov, C. Hölzer
   A. Katbashev, J. Koopman, C. Lavigne, S. Lehtola, F. März, M. Müller,
   F. Musil, H. Neugebauer, J. Pisarek, C. Plett, P. Pracht, F. Pultar,
   J. Seibert, P. Shushkov, S. Spicher, M. Stahn, M. Steiner, T. Strunk,
   J. Stückrath, T. Rose, and J. Unsleber
   
 * started run on 2024/04/06 at 11:16:56.755     

           -------------------------------------------------
          |                Calculation Setup                |
           -------------------------------------------------

          program call               : xtb xtbopt.xyz --opt crude --input .xc2 --gfn2
          hostname                   : n-62-30-23
          coordinate file            : xtbopt.xyz
          omp threads                :                     1

   ID    Z sym.   atoms
    1    7 N      1, 17
    2    6 C      2-6, 8, 9, 11-16, 18-23, 25, 26, 28-33
    3    8 O      7, 10, 24, 27
    4    1 H      34-72
########################################################################
[WARNING] Please study the warnings concerning your input carefully
-1- readin_getIntValue: could not parse ''
########################################################################

           -------------------------------------------------
          |                 G F N 2 - x T B                 |
           -------------------------------------------------

        Reference                      10.1021/acs.jctc.8b01176
      * Hamiltonian:
        H0-scaling (s, p, d)           1.850000    2.230000    2.230000
        zeta-weighting                 0.500000
      * Dispersion:
        s8                             2.700000
        a1                             0.520000
        a2                             5.000000
        s9                             5.000000
      * Repulsion:
        kExp                           1.500000    1.000000
        rExp                           1.000000
      * Coulomb:
        alpha                          2.000000
        third order                    shell-resolved
        anisotropic                    true
        a3                             3.000000
        a5                             4.000000
        cn-shift                       1.200000
        cn-exp                         4.000000
        max-rad                        5.000000

q/qsh data taken from xtbrestart
CAMM data taken from xtbrestart

          ...................................................
          :                      SETUP                      :
          :.................................................:
          :  # basis functions                 171          :
          :  # atomic orbitals                 171          :
          :  # shells                          105          :
          :  # electrons                       180          :
          :  max. iterations                   250          :
          :  Hamiltonian                  GFN2-xTB          :
          :  restarted?                       true          :
          :  GBSA solvation                  false          :
          :  PC potential                    false          :
          :  electronic temp.         5000.0000000     K    :
          :  accuracy                    1.0000000          :
          :  -> integral cutoff          0.2500000E+02      :
          :  -> integral neglect         0.1000000E-07      :
          :  -> SCF convergence          0.1000000E-05 Eh   :
          :  -> wf. convergence          0.1000000E-03 e    :
          :  Broyden damping             0.4000000          :
          ...................................................

 iter      E             dE          RMSdq      gap      omega  full diag
   1   -100.7459852 -0.100746E+03  0.252E-05    1.03       0.0  T
   2   -100.7459852  0.611493E-10  0.344E-05    1.03     342.4  T
   3   -100.7459852 -0.107818E-09  0.810E-06    1.03    1455.5  T

   *** convergence criteria satisfied after 3 iterations ***

         #    Occupation            Energy/Eh            Energy/eV
      -------------------------------------------------------------
         1        2.0000           -0.8236757             -22.4134
       ...           ...                  ...                  ...
        84        1.9944           -0.5117437             -13.9253
        85        1.9931           -0.5083710             -13.8335
        86        1.9781           -0.4900320             -13.3345
        87        1.9680           -0.4839353             -13.1686
        88        1.9328           -0.4718826             -12.8406
        89        1.8578           -0.4593908             -12.5007
        90        1.6551           -0.4435361             -12.0692 (HOMO)
        91        0.6078           -0.4055782             -11.0363 (LUMO)
        92        0.0181           -0.3443565              -9.3704
        93        0.0108           -0.3360592              -9.1446
        94        0.0033           -0.3170963              -8.6286
        95        0.0031           -0.3163376              -8.6080
       ...           ...                  ...                  ...
       171                          1.1311911              30.7813
      -------------------------------------------------------------
                  HL-Gap            0.0379578 Eh            1.0329 eV
             Fermi-level           -0.4187013 Eh          -11.3934 eV

 SCC (total)                   0 d,  0 h,  0 min,  0.121 sec
 SCC setup                      ...        0 min,  0.001 sec (  0.899%)
 Dispersion                     ...        0 min,  0.002 sec (  1.595%)
 classical contributions        ...        0 min,  0.001 sec (  0.416%)
 integral evaluation            ...        0 min,  0.019 sec ( 15.556%)
 iterations                     ...        0 min,  0.028 sec ( 22.905%)
 molecular gradient             ...        0 min,  0.070 sec ( 58.092%)
 printout                       ...        0 min,  0.001 sec (  0.526%)

         :::::::::::::::::::::::::::::::::::::::::::::::::::::
         ::                     SUMMARY                     ::
         :::::::::::::::::::::::::::::::::::::::::::::::::::::
         :: total energy             -99.237538947666 Eh    ::
         :: gradient norm              0.781718152006 Eh/a0 ::
         :: HOMO-LUMO gap              1.032884770788 eV    ::
         ::.................................................::
         :: SCC energy              -100.745985201027 Eh    ::
         :: -> isotropic ES            0.106029934979 Eh    ::
         :: -> anisotropic ES          0.005084346049 Eh    ::
         :: -> anisotropic XC          0.044134648132 Eh    ::
         :: -> dispersion             -0.076888552551 Eh    ::
         :: repulsion energy           1.506610110189 Eh    ::
         :: add. restraining           0.000000000000 Eh    ::
         :: total charge               1.000000000182 e     ::
         :::::::::::::::::::::::::::::::::::::::::::::::::::::

      ----------------------------------------------------------- 
     |                   =====================                   |
     |                        A N C O P T                        |
     |                   =====================                   |
     |               Approximate Normal Coordinate               |
     |                Rational Function Optimizer                |
      ----------------------------------------------------------- 

          ...................................................
          :                      SETUP                      :
          :.................................................:
          :   optimization level             crude          :
          :   max. optcycles                   200          :
          :   ANC micro-cycles                  20          :
          :   degrees of freedom               210          :
          :.................................................:
          :   RF solver                   davidson          :
          :   write xtbopt.log                true          :
          :   linear?                        false          :
          :   energy convergence         0.5000000E-03 Eh   :
          :   grad. convergence          0.1000000E-01 Eh/α :
          :   maxmium RF displ.          1.0000000          :
          :   Hlow (freq-cutoff)         0.1000000E-01      :
          :   Hmax (freq-cutoff)         5.0000000          :
          :   S6 in model hess.         20.0000000          :
          ...................................................

generating ANC from model Hessian ...
Using Lindh-Hessian (1995)
 Shifting diagonal of input Hessian by    9.9744665130084963E-003
 Lowest  eigenvalues of input Hessian
    0.000000    0.000000    0.000000    0.000000    0.000000    0.000000
    0.010000    0.010036    0.010128    0.010248    0.010287    0.010539
    0.010562    0.010865    0.010936    0.011196    0.011702    0.012427
 Highest eigenvalues
    2.041591    2.104565    2.110760    2.145797    2.181117    2.264136


........................................................................
.............................. CYCLE    1 ..............................
........................................................................

 iter      E             dE          RMSdq      gap      omega  full diag
   1   -100.7459852 -0.100746E+03  0.668E-06    1.03       0.0  T
   2   -100.7459852  0.299849E-11  0.735E-06    1.03    1603.2  T
   3   -100.7459852 -0.433431E-11  0.344E-06    1.03    3429.1  T
     SCC iter.                  ...        0 min,  0.026 sec
     gradient                   ...        0 min,  0.076 sec
 * total energy  :   -99.2375389 Eh     change       -0.1847411E-11 Eh
   gradient norm :     0.7817182 Eh/α   predicted     0.0000000E+00 (-100.00%)
   displ. norm   :     0.3616505 α      lambda       -0.2651838E+00
   maximum displ.:     0.2395905 α      in ANC's #210, #207, #199, ...

........................................................................
.............................. CYCLE    2 ..............................
........................................................................

 iter      E             dE          RMSdq      gap      omega  full diag
   1   -100.7329457 -0.100733E+03  0.226E-01    1.05       0.0  T
   2   -100.7328198  0.125932E-03  0.145E-01    0.96       1.0  T
   3   -100.7308861  0.193368E-02  0.166E-01    1.14       1.0  T
   4   -100.7334359 -0.254977E-02  0.362E-02    1.01       1.0  T
   5   -100.7334762 -0.402878E-04  0.150E-02    1.02       1.0  T
   6   -100.7334929 -0.166867E-04  0.522E-03    1.02       2.3  T
   7   -100.7334933 -0.434300E-06  0.149E-03    1.02       7.9  T
   8   -100.7334933 -0.371361E-07  0.995E-04    1.02      11.8  T
   9   -100.7334934 -0.488564E-07  0.450E-04    1.02      26.2  T
     SCC iter.                  ...        0 min,  0.073 sec
     gradient                   ...        0 min,  0.070 sec
 * total energy  :   -99.3463430 Eh     change       -0.1088040E+00 Eh
   gradient norm :     0.0464995 Eh/α   predicted    -0.1499341E+00 (  37.80%)
   displ. norm   :     0.1166850 α      lambda       -0.2642197E-02
   maximum displ.:     0.0329331 α      in ANC's #129, #71, #113, ...

........................................................................
.............................. CYCLE    3 ..............................
........................................................................

 iter      E             dE          RMSdq      gap      omega  full diag
   1   -100.7261018 -0.100726E+03  0.685E-02    1.00       0.0  T
   2   -100.7260986  0.315829E-05  0.437E-02    1.02       1.0  T
   3   -100.7259391  0.159527E-03  0.432E-02    0.98       1.0  T
   4   -100.7261104 -0.171261E-03  0.884E-03    1.01       1.3  T
   5   -100.7261157 -0.534465E-05  0.378E-03    1.01       3.1  T
   6   -100.7261168 -0.106442E-05  0.108E-03    1.01      10.9  T
   7   -100.7261168 -0.244574E-07  0.588E-04    1.01      20.1  T
   8   -100.7261168 -0.329268E-07  0.159E-04    1.01      74.0  T
     SCC iter.                  ...        0 min,  0.065 sec
     gradient                   ...        0 min,  0.070 sec
 * total energy  :   -99.3481760 Eh     change       -0.1833004E-02 Eh
   gradient norm :     0.0316180 Eh/α   predicted    -0.1333549E-02 ( -27.25%)
   displ. norm   :     0.1009243 α      lambda       -0.1239422E-02
   maximum displ.:     0.0241870 α      in ANC's #10, #2, #20, ...

........................................................................
.............................. CYCLE    4 ..............................
........................................................................

 iter      E             dE          RMSdq      gap      omega  full diag
   1   -100.7208421 -0.100721E+03  0.406E-02    0.99       0.0  T
   2   -100.7208438 -0.175967E-05  0.249E-02    1.00       1.0  T
   3   -100.7208147  0.290790E-04  0.221E-02    0.98       1.0  T
   4   -100.7208468 -0.320688E-04  0.550E-03    1.00       2.1  T
   5   -100.7208486 -0.176477E-05  0.228E-03    0.99       5.2  T
   6   -100.7208490 -0.415736E-06  0.968E-04    1.00      12.2  T
   7   -100.7208490 -0.311728E-07  0.486E-04    1.00      24.2  T
     SCC iter.                  ...        0 min,  0.057 sec
     gradient                   ...        0 min,  0.070 sec
 * total energy  :   -99.3489543 Eh     change       -0.7782929E-03 Eh
   gradient norm :     0.0143233 Eh/α   predicted    -0.6247850E-03 ( -19.72%)
   displ. norm   :     0.0697895 α      lambda       -0.2619853E-03
   maximum displ.:     0.0257208 α      in ANC's #10, #2, #6, ...

........................................................................
.............................. CYCLE    5 ..............................
........................................................................

 iter      E             dE          RMSdq      gap      omega  full diag
   1   -100.7199018 -0.100720E+03  0.159E-02    0.99       0.0  T
   2   -100.7199005  0.131580E-05  0.103E-02    0.99       1.1  T
   3   -100.7198889  0.115942E-04  0.124E-02    1.00       1.0  T
   4   -100.7199034 -0.145386E-04  0.170E-03    0.99       6.9  T
   5   -100.7199035 -0.103224E-06  0.407E-04    0.99      29.0  T
   6   -100.7199035 -0.285823E-09  0.262E-04    0.99      45.0  T
     SCC iter.                  ...        0 min,  0.050 sec
     gradient                   ...        0 min,  0.070 sec
 * total energy  :   -99.3491281 Eh     change       -0.1738006E-03 Eh
   gradient norm :     0.0046609 Eh/α   predicted    -0.1314586E-03 ( -24.36%)
   displ. norm   :     0.0736457 α      lambda       -0.8519604E-04
   maximum displ.:     0.0291254 α      in ANC's #10, #6, #2, ...

   *** GEOMETRY OPTIMIZATION CONVERGED AFTER 5 ITERATIONS ***

------------------------------------------------------------------------
 total energy gain   :        -0.1115891 Eh      -70.0232 kcal/mol
 total RMSD          :         0.0621273 a0        0.0329 Å
 total power (kW/mol):       -58.5954374 (step) -358.6062 (real)
------------------------------------------------------------------------

 ANCopt (total)                0 d,  0 h,  0 min,  0.817 sec
 optimizer setup                ...        0 min,  0.000 sec (  0.032%)
 model hessian                  ...        0 min,  0.058 sec (  7.092%)
 ANC generation                 ...        0 min,  0.006 sec (  0.772%)
 coordinate transformation      ...        0 min,  0.000 sec (  0.042%)
 single point calculation       ...        0 min,  0.743 sec ( 90.889%)
 optimization log               ...        0 min,  0.003 sec (  0.359%)
 hessian update                 ...        0 min,  0.000 sec (  0.033%)
 rational function              ...        0 min,  0.005 sec (  0.586%)

================
 final structure:
================
72
 xtb: 6.6.1 (8d0f1dd)
N           -0.78817667364121        2.27820903358300        1.99211349355865
C           -1.07627121561880        1.55308633323457        1.01572511207267
C           -2.37577860185987        1.62193321532664        0.26122430070452
C           -3.06373717303919        0.26892861445837        0.31368903870113
C           -4.11124104903975       -0.01695404216865       -0.56381208879566
C           -4.77317772071326       -1.23312467192334       -0.52936915505015
O           -5.78321820703922       -1.59349365691518       -1.34770215152701
C           -6.27046161927340       -0.66840680753449       -2.29077672297241
C           -4.38907100183386       -2.21269149831577        0.42653762734091
O           -5.08635516265154       -3.36512632215675        0.38775276653511
C           -4.83189551730672       -4.35376098285940        1.35837201478084
C           -3.35865191024214       -1.91671429154983        1.30512699992283
C           -2.70547775163048       -0.69223366251484        1.24747936864093
C           -1.99172202005020        1.99004348965451       -1.19756105494640
C           -1.39974878416503        0.84308995379179       -2.03578174561821
C           -0.00980192975989        0.48049257818770       -1.65586762178231
N            0.45580361760848       -0.75799367057032       -1.50993825161317
C            1.75620128981150       -1.07138088670685       -1.42647849715640
C            2.84292113010839       -0.10338864738786       -1.59013750968622
C            3.22797037818380        0.67543065154153       -0.22955200948556
C            4.06218612064023        1.82969321946821       -0.61991196298343
C            5.41725531032297        1.80228769169176       -0.51680723862782
C            6.07938344220962        0.72789984674372        0.10385253303481
O            7.40116198199947        0.57264466371780        0.18360558730064
C            8.25749335843673        1.50592709699941       -0.43812619814611
C            5.29559871785017       -0.28443224449473        0.76585143799105
O            6.03210302718074       -1.16567296723271        1.47546904430374
C            5.37335997857747       -2.19662138329200        2.17245164318889
C            3.93894144374812       -0.26903546379459        0.66495439911393
C           -0.49250855939579       -1.85887406253242       -1.44248094982562
C           -3.37002228996396        2.68175587934142        0.82307512393646
C           -3.78416486300743        2.35960177509894        2.25682872274806
C           -2.83527381807012        4.10948224649675        0.75282336082714
H           -4.42001143403390        0.72932588437912       -1.27680508153071
H           -6.65452546843078        0.23442424938187       -1.80657628494343
H           -7.08543503854508       -1.17594743615515       -2.80292943957779
H           -5.50143751609498       -0.39449390344298       -3.02063036057298
H           -4.99220971861170       -3.97162799965410        2.37077158353714
H           -5.54440134943359       -5.15109915855423        1.15652580694167
H           -3.81415735402475       -4.74791121802623        1.27305513018639
H           -3.05852570159784       -2.63279001151168        2.05270817438997
H           -1.92577393063530       -0.48716374200957        1.96496960381799
H           -2.88387639320591        2.35287535327279       -1.70763855553231
H           -1.27526369284535        2.81204912399469       -1.16857157280669
H           -2.06877282913310       -0.01336577267671       -2.00358297189345
H           -1.37431089487872        1.20319553751960       -3.07312186856590
H           -0.38131540924113        0.81923829735076        0.57018277148521
H            0.71134943613993        1.28040426824692       -1.66928855569728
H            1.99404847277534       -2.08581407772902       -1.16210505025394
H            2.27711389793894        0.99313474635506        0.20319320313026
H            2.58786150194813        0.65627000404683       -2.33028279677994
H            3.74932625689323       -0.61274262410592       -1.91408324082953
H            3.57129606811041        2.67439361264828       -1.07671259777524
H            5.99470587563205        2.63387338751893       -0.88914834956540
H            8.16977192801481        2.49495513522643        0.02015714947732
H            8.05491106439437        1.57960998829407       -1.51055615828269
H            9.26569149194020        1.12626939933469       -0.28458586783060
H            6.16173385959269       -2.79712051935053        2.62176151614290
H            4.72832199868382       -1.79610115872804        2.96055768355269
H            4.78114228736608       -2.82155069917158        1.49654168458378
H            3.33734639094502       -1.00594548826959        1.17025688295919
H           -0.96068389666120       -2.01212629433174       -2.41473961566985
H           -1.26539235108288       -1.65134486744500       -0.70092936892258
H            0.02444994653392       -2.77400325196817       -1.16532294789557
H           -4.26630938547516        2.62190477600609        0.19405975757338
H           -2.92765761555483        2.43926924211753        2.91892345617201
H           -4.19921027835972        1.35738173787534        2.33203542686431
H           -4.54081974182263        3.06749039226248        2.58476079778685
H           -1.91841035002922        4.19499806218840        1.32764722731370
H           -2.64944408197107        4.42503347582748       -0.27017440973739
H           -3.57062334736634        4.78590604538548        1.18080959411751
H            0.13238897080212        2.17268399899899        2.40750307081169

 Bond Distances (Angstroems)
 ---------------------------
N1-C2=1.2499         N1-H72=1.0154        C2-N1=1.2499         C2-C3=1.5042         C2-H47=1.1045        C3-C2=1.5042         
C3-C4=1.5188         C3-C14=1.5528        C3-C31=1.5580        C4-C3=1.5188         C4-C5=1.3961         C4-C13=1.3871        
C5-C4=1.3961         C5-C6=1.3851         C5-H34=1.0773        C6-C5=1.3851         C6-O7=1.3490         C6-C9=1.4216         
O7-C6=1.3490         O7-C8=1.4080         C8-O7=1.4080         C8-H35=1.0941        C8-H36=1.0882        C8-H37=1.0950        
C9-C6=1.4216         C9-O10=1.3475        C9-C12=1.3861        O10-C9=1.3475        O10-C11=1.4086       C11-O10=1.4086       
C11-H38=1.0939       C11-H39=1.0882       C11-H40=1.0947       C12-C9=1.3861        C12-C13=1.3890       C12-H41=1.0778       
C13-C4=1.3871        C13-C12=1.3890       C13-H42=1.0793       C14-C3=1.5528        C14-C15=1.5390       C14-H43=1.0898       
C14-H44=1.0908       C15-C14=1.5390       C15-C16=1.4859       C15-H45=1.0873       C15-H46=1.0984       C16-C15=1.4859       
C16-N17=1.3311       C16-H48=1.0771       N17-C16=1.3311       N17-C18=1.3402       N17-C30=1.4546       C18-N17=1.3402       
C18-C19=1.4645       C18-H49=1.0750       C19-C18=1.4645       C19-C20=1.6143       C19-H51=1.0908       C19-H52=1.0890       
C20-C19=1.6143       C20-C21=1.4767       C20-C29=1.4824       C20-H50=1.0919       C21-C20=1.4767       C21-C22=1.3593       
C21-H53=1.0785       C22-C21=1.3593       C22-C23=1.4064       C22-H54=1.0787       C23-C22=1.4064       C23-O24=1.3333       
C23-C26=1.4413       O24-C23=1.3333       O24-C25=1.4110       C25-O24=1.4110       C25-H55=1.0936       C25-H56=1.0939       
C25-H57=1.0882       C26-C23=1.4413       C26-O27=1.3500       C26-C29=1.3605       O27-C26=1.3500       O27-C28=1.4080       
C28-O27=1.4080       C28-H58=1.0881       C28-H59=1.0943       C28-H60=1.0946       C29-C20=1.4824       C29-C26=1.3605       
C29-H61=1.0772       C30-N17=1.4546       C30-H62=1.0899       C30-H63=1.0910       C30-H64=1.0870       C31-C3=1.5580        
C31-C32=1.5267       C31-C33=1.5262       C31-H65=1.0966       C32-C31=1.5267       C32-H66=1.0855       C32-H67=1.0874       
C32-H68=1.0868       C33-C31=1.5262       C33-H69=1.0855       C33-H70=1.0866       C33-H71=1.0870       H34-C5=1.0773        
H35-C8=1.0941        H36-C8=1.0882        H37-C8=1.0950        H38-C11=1.0939       H39-C11=1.0882       H40-C11=1.0947       
H41-C12=1.0778       H42-C13=1.0793       H43-C14=1.0898       H44-C14=1.0908       H45-C15=1.0873       H46-C15=1.0984       
H47-C2=1.1045        H48-C16=1.0771       H49-C18=1.0750       H50-C20=1.0919       H51-C19=1.0908       H52-C19=1.0890       
H53-C21=1.0785       H54-C22=1.0787       H55-C25=1.0936       H56-C25=1.0939       H57-C25=1.0882       H58-C28=1.0881       
H59-C28=1.0943       H60-C28=1.0946       H61-C29=1.0772       H62-C30=1.0899       H63-C30=1.0910       H64-C30=1.0870       
H65-C31=1.0966       H66-C32=1.0855       H67-C32=1.0874       H68-C32=1.0868       H69-C33=1.0855       H70-C33=1.0866       
H71-C33=1.0870       H72-N1=1.0154        
 C  H  Rav=1.0883 sigma=0.0067  Rmin=1.0750  Rmax=1.1045    38
 C  C  Rav=1.4628 sigma=0.0720  Rmin=1.3593  Rmax=1.6143    22
 N  H  Rav=1.0154 sigma=0.0000  Rmin=1.0154  Rmax=1.0154     1
 N  C  Rav=1.3439 sigma=0.0729  Rmin=1.2499  Rmax=1.4546     4
 O  C  Rav=1.3769 sigma=0.0324  Rmin=1.3333  Rmax=1.4110     8

 selected bond angles (degree)
 --------------------
H72-N1-C2=117.92               C3-C2-N1=124.36                H47-C2-N1=123.75               H47-C2-C3=111.82               
C4-C3-C2=109.46                C14-C3-C2=105.57               C14-C3-C4=110.84               C31-C3-C2=113.67               
C31-C3-C4=107.73               C31-C3-C14=109.59              C5-C4-C3=120.04                C13-C4-C3=121.57               
C13-C4-C5=118.36               C6-C5-C4=121.52                H34-C5-C4=119.29               H34-C5-C6=119.19               
O7-C6-C5=125.26                C9-C6-C5=119.51                C9-C6-O7=115.22                C8-O7-C6=119.33                
H35-C8-O7=111.54               H36-C8-O7=105.54               H36-C8-H35=109.29              H37-C8-O7=111.58               
H37-C8-H35=109.58              H37-C8-H36=109.20              O10-C9-C6=115.48               C12-C9-C6=118.68               
C12-C9-O10=125.84              C11-O10-C9=119.14              

 selected dihedral angles (degree)
 ---------------------------------
C3-C2-N1-H72=182.26           H47-C2-N1-H72=358.88          C4-C3-C2-N1=238.54            C4-C3-C2-H47= 61.57           
C14-C3-C2-N1=119.19           C14-C3-C2-H47=302.22          C31-C3-C2-N1=359.04           C31-C3-C2-H47=182.07          
C5-C4-C3-C2=195.30            C5-C4-C3-C14=311.34           C5-C4-C3-C31= 71.23           C13-C4-C3-C2= 17.30           
C13-C4-C3-C14=133.35          C13-C4-C3-C31=253.24          C6-C5-C4-C3=180.97            C6-C5-C4-C13=359.03           
H34-C5-C4-C3=  0.25           H34-C5-C4-C13=178.31          O7-C6-C5-C4=180.70            O7-C6-C5-H34=  1.42           
C9-C6-C5-C4=  0.53            C9-C6-C5-H34=181.25           C8-O7-C6-C5=357.22            C8-O7-C6-C9=177.38            
H35-C8-O7-C6=300.04           H36-C8-O7-C6=181.46           H37-C8-O7-C6= 62.97           O10-C9-C6-C5=180.02           
O10-C9-C6-O7=359.87           C12-C9-C6-C5=  0.22           C12-C9-C6-O7=180.07           C11-O10-C9-C6=184.27          
C11-O10-C9-C12=  4.04         
           -------------------------------------------------
          |                Final Singlepoint                |
           -------------------------------------------------

          ...................................................
          :                      SETUP                      :
          :.................................................:
          :  # basis functions                 171          :
          :  # atomic orbitals                 171          :
          :  # shells                          105          :
          :  # electrons                       180          :
          :  max. iterations                   250          :
          :  Hamiltonian                  GFN2-xTB          :
          :  restarted?                      false          :
          :  GBSA solvation                  false          :
          :  PC potential                    false          :
          :  electronic temp.         5000.0000000     K    :
          :  accuracy                    1.0000000          :
          :  -> integral cutoff          0.2500000E+02      :
          :  -> integral neglect         0.1000000E-07      :
          :  -> SCF convergence          0.1000000E-05 Eh   :
          :  -> wf. convergence          0.1000000E-03 e    :
          :  Broyden damping             0.4000000          :
          ...................................................

 iter      E             dE          RMSdq      gap      omega  full diag
   1   -100.7199035 -0.100720E+03  0.111E-04    0.99       0.0  T
   2   -100.7199035  0.109419E-08  0.151E-04    0.99      78.0  T
   3   -100.7199036 -0.190748E-08  0.355E-05    0.99     332.4  T

   *** convergence criteria satisfied after 3 iterations ***

         #    Occupation            Energy/Eh            Energy/eV
      -------------------------------------------------------------
         1        2.0000           -0.8239378             -22.4205
       ...           ...                  ...                  ...
        84        1.9944           -0.5116929             -13.9239
        85        1.9930           -0.5083254             -13.8322
        86        1.9780           -0.4900382             -13.3346
        87        1.9675           -0.4837446             -13.1634
        88        1.9320           -0.4717658             -12.8374
        89        1.8572           -0.4593989             -12.5009
        90        1.6389           -0.4427278             -12.0472 (HOMO)
        91        0.6267           -0.4063563             -11.0575 (LUMO)
        92        0.0179           -0.3442381              -9.3672
        93        0.0107           -0.3359907              -9.1428
        94        0.0033           -0.3172953              -8.6340
        95        0.0031           -0.3163603              -8.6086
       ...           ...                  ...                  ...
       171                          0.5718085              15.5597
      -------------------------------------------------------------
                  HL-Gap            0.0363715 Eh            0.9897 eV
             Fermi-level           -0.4187787 Eh          -11.3955 eV

 SCC (total)                   0 d,  0 h,  0 min,  0.118 sec
 SCC setup                      ...        0 min,  0.001 sec (  0.737%)
 Dispersion                     ...        0 min,  0.002 sec (  1.351%)
 classical contributions        ...        0 min,  0.000 sec (  0.365%)
 integral evaluation            ...        0 min,  0.018 sec ( 15.615%)
 iterations                     ...        0 min,  0.026 sec ( 22.309%)
 molecular gradient             ...        0 min,  0.070 sec ( 59.132%)
 printout                       ...        0 min,  0.001 sec (  0.478%)

         :::::::::::::::::::::::::::::::::::::::::::::::::::::
         ::                     SUMMARY                     ::
         :::::::::::::::::::::::::::::::::::::::::::::::::::::
         :: total energy             -99.349128068480 Eh    ::
         :: gradient norm              0.004662441943 Eh/a0 ::
         :: HOMO-LUMO gap              0.989719031815 eV    ::
         ::.................................................::
         :: SCC energy              -100.719903550319 Eh    ::
         :: -> isotropic ES            0.105490548656 Eh    ::
         :: -> anisotropic ES          0.005611718989 Eh    ::
         :: -> anisotropic XC          0.045021519540 Eh    ::
         :: -> dispersion             -0.076914507452 Eh    ::
         :: repulsion energy           1.368941801091 Eh    ::
         :: add. restraining           0.000000000000 Eh    ::
         :: total charge               1.000000000170 e     ::
         :::::::::::::::::::::::::::::::::::::::::::::::::::::

           -------------------------------------------------
          |                Property Printout                |
           -------------------------------------------------

    * Orbital Energies and Occupations

         #    Occupation            Energy/Eh            Energy/eV
      -------------------------------------------------------------
         1        2.0000           -0.8239378             -22.4205
       ...           ...                  ...                  ...
        78        1.9982           -0.5298003             -14.4166
        79        1.9980           -0.5279260             -14.3656
        80        1.9979           -0.5273076             -14.3488
        81        1.9970           -0.5217249             -14.1969
        82        1.9969           -0.5212398             -14.1837
        83        1.9950           -0.5135944             -13.9756
        84        1.9944           -0.5116929             -13.9239
        85        1.9930           -0.5083254             -13.8322
        86        1.9780           -0.4900382             -13.3346
        87        1.9675           -0.4837446             -13.1634
        88        1.9320           -0.4717658             -12.8374
        89        1.8572           -0.4593989             -12.5009
        90        1.6389           -0.4427278             -12.0472 (HOMO)
        91        0.6267           -0.4063563             -11.0575 (LUMO)
        92        0.0179           -0.3442381              -9.3672
        93        0.0107           -0.3359907              -9.1428
        94        0.0033           -0.3172953              -8.6340
        95        0.0031           -0.3163603              -8.6086
        96        0.0026           -0.3134796              -8.5302
        97        0.0000           -0.2366873              -6.4406
        98        0.0000           -0.1908920              -5.1944
        99                         -0.1105953              -3.0095
       100                         -0.0736351              -2.0037
       101                         -0.0658969              -1.7931
       ...                                ...                  ...
       171                          0.5718085              15.5597
      -------------------------------------------------------------
                  HL-Gap            0.0363715 Eh            0.9897 eV
             Fermi-level           -0.4187787 Eh          -11.3955 eV

     #   Z          covCN         q      C6AA      α(0)
     1   7 N        1.774    -0.272    27.881     7.819
     2   6 C        2.828     0.103    25.717     8.310
     3   6 C        3.907     0.007    20.403     6.420
     4   6 C        2.975     0.003    27.961     8.674
     5   6 C        2.920    -0.080    29.995     8.981
     6   6 C        2.862     0.129    25.169     8.223
     7   8 O        1.706    -0.229    17.801     5.696
     8   6 C        3.644     0.027    20.449     6.500
     9   6 C        2.864     0.129    25.178     8.225
    10   8 O        1.706    -0.227    17.771     5.692
    11   6 C        3.645     0.026    20.463     6.501
    12   6 C        2.913    -0.074    29.848     8.959
    13   6 C        2.921    -0.052    29.299     8.877
    14   6 C        3.812    -0.064    21.712     6.632
    15   6 C        3.801    -0.068    21.798     6.647
    16   6 C        2.860    -0.039    28.975     8.823
    17   7 N        2.730     0.077    19.911     6.627
    18   6 C        2.864    -0.049    29.202     8.858
    19   6 C        3.799    -0.062    21.695     6.632
    20   6 C        3.852    -0.012    20.751     6.479
    21   6 C        2.911    -0.041    29.015     8.833
    22   6 C        2.900    -0.062    29.541     8.912
    23   6 C        2.864     0.139    24.963     8.190
    24   8 O        1.706    -0.194    17.239     5.606
    25   6 C        3.646     0.019    20.583     6.520
    26   6 C        2.851     0.134    25.062     8.205
    27   8 O        1.706    -0.234    17.880     5.709
    28   6 C        3.646     0.026    20.462     6.501
    29   6 C        2.906    -0.085    30.136     9.001
    30   6 C        3.719    -0.075    22.066     6.710
    31   6 C        3.853    -0.007    20.669     6.466
    32   6 C        3.756    -0.117    22.799     6.808
    33   6 C        3.755    -0.119    22.842     6.815
    34   1 H        0.926     0.053     2.277     2.360
    35   1 H        0.924     0.054     2.266     2.354
    36   1 H        0.925     0.081     1.965     2.192
    37   1 H        0.924     0.047     2.355     2.400
    38   1 H        0.924     0.056     2.252     2.347
    39   1 H        0.925     0.082     1.963     2.191
    40   1 H        0.924     0.049     2.328     2.386
    41   1 H        0.926     0.053     2.285     2.364
    42   1 H        0.926     0.041     2.441     2.443
    43   1 H        0.925     0.056     2.241     2.341
    44   1 H        0.924     0.051     2.302     2.373
    45   1 H        0.925     0.057     2.230     2.335
    46   1 H        0.923     0.065     2.136     2.286
    47   1 H        0.923     0.005     2.965     2.693
    48   1 H        0.926     0.057     2.229     2.335
    49   1 H        0.926     0.052     2.294     2.368
    50   1 H        0.924     0.056     2.252     2.347
    51   1 H        0.924     0.061     2.189     2.314
    52   1 H        0.925     0.063     2.160     2.299
    53   1 H        0.926     0.053     2.283     2.363
    54   1 H        0.926     0.064     2.150     2.293
    55   1 H        0.924     0.065     2.146     2.291
    56   1 H        0.924     0.062     2.178     2.308
    57   1 H        0.925     0.089     1.889     2.150
    58   1 H        0.925     0.083     1.951     2.184
    59   1 H        0.924     0.051     2.304     2.374
    60   1 H        0.924     0.047     2.355     2.400
    61   1 H        0.926     0.050     2.325     2.384
    62   1 H        0.925     0.082     1.960     2.189
    63   1 H        0.924     0.082     1.958     2.188
    64   1 H        0.925     0.080     1.978     2.200
    65   1 H        0.924     0.037     2.490     2.468
    66   1 H        0.925     0.066     2.133     2.284
    67   1 H        0.925     0.035     2.519     2.482
    68   1 H        0.925     0.051     2.310     2.377
    69   1 H        0.925     0.064     2.155     2.296
    70   1 H        0.925     0.036     2.502     2.474
    71   1 H        0.925     0.054     2.273     2.358
    72   1 H        0.860     0.153     1.382     1.841

 Mol. C6AA /au·bohr⁶  :      47471.483792
 Mol. C8AA /au·bohr⁸  :    1082396.275209
 Mol. α(0) /au        :        334.479420


Wiberg/Mayer (AO) data.
largest (>0.10) Wiberg bond orders for each atom

 ---------------------------------------------------------------------------
     #   Z sym  total        # sym  WBO       # sym  WBO       # sym  WBO
 ---------------------------------------------------------------------------
     1   7 N    3.020 --     2 C    1.952    72 H    0.943
     2   6 C    3.934 --     1 N    1.952     3 C    0.994    47 H    0.914
     3   6 C    3.973 --     2 C    0.994     4 C    0.975    14 C    0.952
                            31 C    0.942
     4   6 C    3.946 --    13 C    1.409     5 C    1.369     3 C    0.975
     5   6 C    3.961 --     6 C    1.399     4 C    1.369    34 H    0.958
     6   6 C    3.902 --     5 C    1.399     9 C    1.221     7 O    1.100
     7   8 O    2.253 --     6 C    1.100     8 C    0.978
     8   6 C    3.932 --     7 O    0.978    36 H    0.977    37 H    0.973
                            35 H    0.973
     9   6 C    3.898 --    12 C    1.390     6 C    1.221    10 O    1.103
    10   8 O    2.251 --     9 C    1.103    11 C    0.977
    11   6 C    3.930 --    10 O    0.977    39 H    0.977    40 H    0.973
                            38 H    0.973
    12   6 C    3.961 --    13 C    1.405     9 C    1.390    41 H    0.964
    13   6 C    3.951 --     4 C    1.409    12 C    1.405    42 H    0.963
    14   6 C    3.975 --    15 C    0.985    44 H    0.972    43 H    0.968
                             3 C    0.952
    15   6 C    3.986 --    16 C    1.049    14 C    0.985    45 H    0.962
                            46 H    0.938
    16   6 C    3.670 --    17 N    1.346    15 C    1.049    48 H    0.956
                            18 C    0.192
    17   7 N    3.716 --    16 C    1.346    18 C    1.306    30 C    0.985
    18   6 C    3.669 --    17 N    1.306    19 C    1.095    49 H    0.963
                            16 C    0.192
    19   6 C    3.930 --    18 C    1.095    52 H    0.969    51 H    0.957
                            20 C    0.830
    20   6 C    3.965 --    21 C    1.060    29 C    1.053    50 H    0.945
                            19 C    0.830
    21   6 C    3.750 --    22 C    1.606    20 C    1.060    53 H    0.969
    22   6 C    3.972 --    21 C    1.606    23 C    1.272    54 H    0.959
    23   6 C    3.692 --    22 C    1.272    24 O    1.158    26 C    1.139
    24   8 O    2.268 --    23 C    1.158    25 C    0.969
    25   6 C    3.922 --    57 H    0.976    56 H    0.972    55 H    0.970
                            24 O    0.969
    26   6 C    3.929 --    29 C    1.565    23 C    1.139    27 O    1.093
    27   8 O    2.258 --    26 C    1.093    28 C    0.978    29 C    0.105
    28   6 C    3.933 --    27 O    0.978    58 H    0.977    60 H    0.974
                            59 H    0.974
    29   6 C    3.806 --    26 C    1.565    20 C    1.053    61 H    0.964
                            27 O    0.105
    30   6 C    3.954 --    17 N    0.985    64 H    0.976    62 H    0.969
                            63 H    0.965
    31   6 C    3.971 --    32 C    1.008    33 C    1.008    65 H    0.960
                             3 C    0.942
    32   6 C    3.979 --    31 C    1.008    67 H    0.981    68 H    0.981
                            66 H    0.975
    33   6 C    3.979 --    31 C    1.008    70 H    0.983    71 H    0.980
                            69 H    0.975
    34   1 H    0.996 --     5 C    0.958
    35   1 H    0.993 --     8 C    0.973
    36   1 H    0.993 --     8 C    0.977
    37   1 H    0.994 --     8 C    0.973
    38   1 H    0.992 --    11 C    0.973
    39   1 H    0.993 --    11 C    0.977
    40   1 H    0.993 --    11 C    0.973
    41   1 H    0.995 --    12 C    0.964
    42   1 H    0.998 --    13 C    0.963
    43   1 H    0.995 --    14 C    0.968
    44   1 H    0.996 --    14 C    0.972
    45   1 H    0.996 --    15 C    0.962
    46   1 H    0.975 --    15 C    0.938
    47   1 H    0.982 --     2 C    0.914
    48   1 H    0.996 --    16 C    0.956
    49   1 H    0.996 --    18 C    0.963
    50   1 H    0.980 --    20 C    0.945
    51   1 H    0.990 --    19 C    0.957
    52   1 H    0.992 --    19 C    0.969
    53   1 H    0.997 --    21 C    0.969
    54   1 H    0.994 --    22 C    0.959
    55   1 H    0.988 --    25 C    0.970
    56   1 H    0.989 --    25 C    0.972
    57   1 H    0.992 --    25 C    0.976
    58   1 H    0.993 --    28 C    0.977
    59   1 H    0.995 --    28 C    0.974
    60   1 H    0.996 --    28 C    0.974
    61   1 H    0.996 --    29 C    0.964
    62   1 H    0.992 --    30 C    0.969
    63   1 H    0.992 --    30 C    0.965
    64   1 H    0.993 --    30 C    0.976
    65   1 H    0.991 --    31 C    0.960
    66   1 H    0.991 --    32 C    0.975
    67   1 H    0.996 --    32 C    0.981
    68   1 H    0.994 --    32 C    0.981
    69   1 H    0.992 --    33 C    0.975
    70   1 H    0.996 --    33 C    0.983
    71   1 H    0.993 --    33 C    0.980
    72   1 H    0.970 --     1 N    0.943
 ---------------------------------------------------------------------------

Topologies differ in total number of bonds
Writing topology from bond orders to xtbtopo.mol

molecular dipole:
                 x           y           z       tot (Debye)
 q only:        1.280      -0.259      -1.144
   full:        1.500      -0.413      -1.332       5.205
molecular quadrupole (traceless):
                xx          xy          yy          xz          yz          zz
 q only:       52.883      14.574     -19.512       1.167     -11.856     -33.371
  q+dip:       51.506      16.024     -19.853       2.555     -15.918     -31.653
   full:       49.674      16.214     -19.928       0.638     -15.655     -29.746

           -------------------------------------------------
          |                Geometry Summary                 |
           -------------------------------------------------

      molecular mass/u    :      455.6105846
   center of mass at/Å    :       -0.0670964       0.0219518       0.0080133
  moments of inertia/u·Å² :        0.2338059E+04   0.9293196E+04   0.1009909E+05
rotational constants/cm⁻¹ :        0.7210097E-02   0.1813976E-02   0.1669223E-02

 * 65 selected distances

     #   Z          #   Z                                           value/Å
     1   7 N        2   6 C                                       1.2498544
     4   6 C        5   6 C                                       1.3960666
     5   6 C        6   6 C                                       1.3850696
     6   6 C        7   8 O                                       1.3489688
     7   8 O        8   6 C                                       1.4080418
     6   6 C        9   6 C                                       1.4215651
     9   6 C       10   8 O                                       1.3475221
    10   8 O       11   6 C                                       1.4086342
     9   6 C       12   6 C                                       1.3861045
     4   6 C       13   6 C                                       1.3871364
    12   6 C       13   6 C                                       1.3889971
    14   6 C       15   6 C                                       1.5390091 (max)
    15   6 C       16   6 C                                       1.4858547
    16   6 C       17   7 N                                       1.3311395
    17   7 N       18   6 C                                       1.3402282
    18   6 C       19   6 C                                       1.4644977
    20   6 C       21   6 C                                       1.4766920
    21   6 C       22   6 C                                       1.3592625
    22   6 C       23   6 C                                       1.4063932
    23   6 C       24   8 O                                       1.3332530
    24   8 O       25   6 C                                       1.4109820
    26   6 C       27   8 O                                       1.3500301
    27   8 O       28   6 C                                       1.4080420
    20   6 C       29   6 C                                       1.4824433
    26   6 C       29   6 C                                       1.3604913
    17   7 N       30   6 C                                       1.4545736
    31   6 C       32   6 C                                       1.5267440
    31   6 C       33   6 C                                       1.5262026
     5   6 C       34   1 H                                       1.0773264
     8   6 C       35   1 H                                       1.0941020
     8   6 C       36   1 H                                       1.0881543
     8   6 C       37   1 H                                       1.0950401
    11   6 C       38   1 H                                       1.0939284
    11   6 C       39   1 H                                       1.0881888
    11   6 C       40   1 H                                       1.0947258
    12   6 C       41   1 H                                       1.0778302
    13   6 C       42   1 H                                       1.0792517
    14   6 C       43   1 H                                       1.0898466
    14   6 C       44   1 H                                       1.0908008
    15   6 C       45   1 H                                       1.0872656
    15   6 C       46   1 H                                       1.0983614
    16   6 C       48   1 H                                       1.0770786
    18   6 C       49   1 H                                       1.0749602 (min)
    20   6 C       50   1 H                                       1.0919398
    19   6 C       51   1 H                                       1.0908492
    19   6 C       52   1 H                                       1.0890146
    21   6 C       53   1 H                                       1.0784984
    22   6 C       54   1 H                                       1.0787131
    25   6 C       55   1 H                                       1.0935700
    25   6 C       56   1 H                                       1.0938807
    25   6 C       57   1 H                                       1.0881996
    28   6 C       58   1 H                                       1.0881232
    28   6 C       59   1 H                                       1.0943499
    28   6 C       60   1 H                                       1.0945835
    29   6 C       61   1 H                                       1.0771647
    30   6 C       62   1 H                                       1.0899365
    30   6 C       63   1 H                                       1.0910164
    30   6 C       64   1 H                                       1.0869794
    31   6 C       65   1 H                                       1.0966190
    32   6 C       66   1 H                                       1.0855051
    32   6 C       67   1 H                                       1.0873656
    32   6 C       68   1 H                                       1.0868176
    33   6 C       69   1 H                                       1.0855295
    33   6 C       70   1 H                                       1.0865680
    33   6 C       71   1 H                                       1.0869501

 * 4 distinct bonds (by element types)

   Z      Z             #   av. dist./Å        max./Å        min./Å
   1 H    6 C          37     1.0878118     1.0983614     1.0749602
   6 C    6 C          16     1.4370331     1.5390091     1.3592625
   6 C    7 N           4     1.3439489     1.4545736     1.2498544
   6 C    8 O           8     1.3769343     1.4109820     1.3332530


optimized geometry written to: xtbopt.xyz


           -------------------------------------------------
          | TOTAL ENERGY              -99.349128068480 Eh   |
          | GRADIENT NORM               0.004662441943 Eh/α |
          | HOMO-LUMO GAP               0.989719031815 eV   |
           -------------------------------------------------

------------------------------------------------------------------------
 * finished run on 2024/04/06 at 11:16:57.868     
------------------------------------------------------------------------
 total:
 * wall-time:     0 d,  0 h,  0 min,  1.112 sec
 *  cpu-time:     0 d,  0 h,  0 min,  1.081 sec
 * ratio c/w:     0.973 speedup
 SCF:
 * wall-time:     0 d,  0 h,  0 min,  0.121 sec
 *  cpu-time:     0 d,  0 h,  0 min,  0.121 sec
 * ratio c/w:     0.999 speedup
 ANC optimizer:
 * wall-time:     0 d,  0 h,  0 min,  0.943 sec
 *  cpu-time:     0 d,  0 h,  0 min,  0.935 sec
 * ratio c/w:     0.992 speedup

