25
 energy: -40.318175717100 gnorm: 11.295368550358 xtb: 6.6.1 (8d0f1dd)
C            3.31128040158963        1.10424916281326        0.06347877097867
N            2.31216101288953        0.07188350179859        0.01911468733316
C            2.53299713238292       -1.24885962513165       -0.01897366431945
N            1.34565565276996       -1.91213618867399       -0.04482593192186
C            0.34549621021265       -0.98472502910815       -0.02346710469141
C            0.94431275126121        0.27704029869137        0.01710122241552
C            0.21165946520426        1.48762063244409        0.04798329848474
O            0.61883103326352        2.62787153591786        0.07944477992009
N           -1.24429558315421        1.23551199587428        0.03604493355500
C           -2.01140965968057        2.33103104714593        0.07209460928211
C           -1.76925935430078       -0.01797093071053       -0.01167560488765
O           -3.10887066040642       -0.18636857548777       -0.04510681416399
N           -0.99259419350226       -1.15572367638673       -0.03724575626583
C           -1.57845656161026       -2.48016284349484       -0.06982196126403
H            3.91586968919373        1.00920644040640        0.96613981921599
H            3.96556449764156        1.03720705853102       -0.80610606893186
H            2.81103894943903        2.07128692031165        0.06599447871625
H            3.49437260833531       -1.71729959004271       -0.02762700864722
H           -1.50725640166257        3.27512133664029        0.10390147231091
H           -3.40293814762382        0.08057368254261       -0.13107208116137
H           -3.07945387869475        2.26984616403324        0.08811260183509
H           -1.21875260848607       -3.06687505363159        0.77589542076953
H           -1.32158048214012       -2.98261201231656       -1.00336914843161
H           -2.65856848840508       -2.39338650780597       -0.00142442134712
H            1.24462812958351       -2.91409120276013       -0.08341891088409
25
 energy: -42.136307609883 gnorm: 0.303505727587 xtb: 6.6.1 (8d0f1dd)
C            3.31127967553914        1.10424751950487        0.06347659760834
N            2.31216103356809        0.07188397059301        0.01911830735838
C            2.53299629281016       -1.24885696762580       -0.01897163826684
N            1.34566277516682       -1.91213737809303       -0.04483216604472
C            0.34562978846308       -0.98473803428796       -0.02350242176917
C            0.94431433966657        0.27705465832558        0.01709940399675
C            0.21161728019566        1.48767239604497        0.04795516536942
O            0.61883507786132        2.62787976696563        0.07944637173399
N           -1.24478018557372        1.23585598523824        0.03594477730110
C           -2.01151515074410        2.33099866670834        0.07213017937031
C           -1.75781064125354       -0.02186005929307       -0.01049089242718
O           -2.88273204962007       -0.38812493419791        0.02047724616397
N           -0.99090974411352       -1.15572433298231       -0.03724963116532
C           -1.57842643806807       -2.48014314137705       -0.06979309462880
H            3.91586964407201        1.00920832097360        0.96613978761103
H            3.96556357607054        1.03720773646571       -0.80610726517993
H            2.81103848514440        2.07128811959801        0.06599439772716
H            3.49437472701977       -1.71730027181740       -0.02762645363667
H           -1.50726050705682        3.27512220544079        0.10390114005202
H           -3.64174521365181        0.28578089982893       -0.19774431757763
H           -3.07945497487560        2.26984154418284        0.08811586322702
H           -1.21875244080753       -3.06687897693713        0.77589627103603
H           -1.32158120331558       -2.98261595968034       -1.00336993324340
H           -2.65857105807312       -2.39333220758970       -0.00142260984223
H            1.24462842567586       -2.91409098438886       -0.08341346687405
25
 energy: -42.165867025897 gnorm: 0.082751069667 xtb: 6.6.1 (8d0f1dd)
C            3.31941681130755        1.10203923685890        0.06659874725211
N            2.32391773229888        0.06959433623829        0.02119829449550
C            2.54663570183418       -1.25348140627532       -0.01626093554858
N            1.36118800376950       -1.91681692897254       -0.04414395985639
C            0.37050841035097       -0.98644438323799       -0.02833652162388
C            0.95735330987439        0.27667682896957        0.01472757516271
C            0.22133293589039        1.48603459405721        0.04215450294629
O            0.62559896567196        2.62876929522021        0.07980205762444
N           -1.23515909052900        1.23510378421746        0.02594792008591
C           -2.01164620957325        2.33396080969528        0.06937437902912
C           -1.74353683003789       -0.01341016573277       -0.02438934425112
O           -3.00779458093279       -0.37787598644526        0.03799895791737
N           -0.96127559554799       -1.15329414494362       -0.04797576218621
C           -1.56177446813578       -2.47812854870364       -0.07309028924419
H            3.92103443830559        1.00549385599469        0.97071164003007
H            3.97258348935878        1.03322617835735       -0.80329666973521
H            2.81604573938903        2.06747892359672        0.06837745324409
H            3.50517758906690       -1.72311859752642       -0.02373894044331
H           -1.50802933309346        3.27781006530979        0.09971717374895
H           -3.75877185374790        0.30036210560215       -0.17504349792089
H           -3.07988419879334        2.27040397306784        0.08802284789047
H           -1.20981369762475       -3.06378791503920        0.77523763809970
H           -1.31170884461510       -2.98309532249284       -1.00596577782226
H           -2.64372037974712       -2.40160208834227       -0.00450341625618
H            1.25275346936016       -2.91765995787362       -0.08195245473894
25
 energy: -42.168515369612 gnorm: 0.064799064100 xtb: 6.6.1 (8d0f1dd)
C            3.32122996877765        1.10198964430075        0.06766845889893
N            2.32396584993052        0.06891148996966        0.02104385840993
C            2.54849647044630       -1.25254061072684       -0.01437370328920
N            1.36235813942951       -1.91796186095718       -0.04553980714826
C            0.36520306042860       -0.99190484013538       -0.03046492951913
C            0.95513072979656        0.27181545917004        0.01152008385163
C            0.21568935924849        1.47803106783335        0.03695699018093
O            0.61723317554214        2.62079533729849        0.07402730051091
N           -1.24123617811320        1.22468089006005        0.02869903348755
C           -2.01035113306040        2.32609568020955        0.06995571400328
C           -1.75516443367535       -0.02051133179595       -0.02085147795434
O           -3.04859939916148       -0.31732907533214        0.04358225720303
N           -0.97018716024189       -1.16280530064219       -0.04996616942653
C           -1.54827933442482       -2.49532282681382       -0.07615605291870
H            3.92349205091199        1.00789812453993        0.97191334959108
H            3.97751350406534        1.03497592263905       -0.80033473793536
H            2.81943330604279        2.06808223291857        0.06860742470980
H            3.50961328792795       -1.72016498986221       -0.01836521604010
H           -1.50302372927739        3.26864798332559        0.09138484709563
H           -3.78094938191252        0.37524016656670       -0.16823531089044
H           -3.07804490889529        2.26541124918937        0.09358687257456
H           -1.18370635738287       -3.07167206815732        0.77372875880050
H           -1.28683401416263       -2.99479131500997       -1.00938077053209
H           -2.62948784575922       -2.43004127413936       -0.00665965980224
H            1.25693648761913       -2.91929121284877       -0.08117549596181
25
 energy: -42.169269024838 gnorm: 0.055153837687 xtb: 6.6.1 (8d0f1dd)
C            3.32341274936985        1.10197538625870        0.06980651930582
N            2.32448971577214        0.06987551981994        0.02035203602490
C            2.54957725763939       -1.25092909777878       -0.01341651523877
N            1.36351271905936       -1.91712488927514       -0.04704852678858
C            0.36285142462904       -0.99266556765816       -0.03312642630002
C            0.95477030507270        0.27134263297248        0.00739390720895
C            0.21243242977846        1.47590248930399        0.03042303228703
O            0.61246968502728        2.61901461727058        0.06433186742910
N           -1.24540348142056        1.21854250001059        0.02690686584968
C           -2.01048378531893        2.32044691584971        0.06880100601469
C           -1.75780832002552       -0.03028272131195       -0.01719692731416
O           -3.06620636102874       -0.29734806702487        0.05043154806423
N           -0.97398823440476       -1.16726704515692       -0.05111370403935
C           -1.54496180405793       -2.49999521117594       -0.07859719613656
H            3.92408367584102        1.00657925228979        0.97524061781375
H            3.98221782750792        1.03464592779195       -0.79649800031663
H            2.82339468858430        2.06897630623002        0.07030727057281
H            3.51182492155588       -1.71788523644737       -0.01363351801562
H           -1.50126018443855        3.26216553871992        0.08350980982990
H           -3.78538111290891        0.40138055036062       -0.16135388089544
H           -3.07784270661089        2.26253226299167        0.10603351603923
H           -1.17778329477988       -3.07501943399911        0.77179956250684
H           -1.27806932773099       -2.99924971969632       -1.01105676844926
H           -2.62592043185516       -2.42827413584320       -0.01122326225953
H            1.26050315884339       -2.91910023290222       -0.07990121529342
25
 energy: -42.169973585359 gnorm: 0.047415176213 xtb: 6.6.1 (8d0f1dd)
C            3.32544916008779        1.10158452750623        0.07271503994057
N            2.32430946195376        0.07148948476555        0.01886896696866
C            2.54936905813157       -1.24913895340124       -0.01261469532356
N            1.36385175170704       -1.91563257735900       -0.04832656838017
C            0.36081284486067       -0.99130479993280       -0.03651488392255
C            0.95436362511256        0.27272107764831        0.00174918924877
C            0.20919993167382        1.47584662601591        0.02143995725025
O            0.60820790495020        2.61925170767931        0.04900544474425
N           -1.25022729880219        1.21471890346400        0.02388267161523
C           -2.01165275853200        2.31643994238625        0.06740924873242
C           -1.75839110043891       -0.04043233263687       -0.01115178604602
O           -3.07729604991247       -0.28631376283065        0.05893770970240
N           -0.97673346095101       -1.16973484974616       -0.05163546589556
C           -1.54329286714467       -2.50246032813805       -0.08164609745209
H            3.92297749512724        1.00309674952495        0.98012987937153
H            3.98742487690484        1.03327565052610       -0.79124476553721
H            2.82818975654593        2.06996020972865        0.07263513238779
H            3.51217646897911       -1.71585389627831       -0.00836414550268
H           -1.50025706823132        3.25714847025892        0.07336668831599
H           -3.77955905292906        0.41670944099435       -0.15409535962037
H           -3.07863633795372        2.26304659350154        0.12632718698604
H           -1.17817554249249       -3.07904031590653        0.76897715149240
H           -1.27074407544360       -3.00301843923976       -1.01223785813702
H           -2.62444663350702       -2.42585302133651       -0.01929588489351
H            1.26351142440383       -2.91826756559421       -0.07714513814600
25
 energy: -42.171028031535 gnorm: 0.039981278965 xtb: 6.6.1 (8d0f1dd)
C            3.32715529755403        1.10076657910137        0.07663757849843
N            2.32309699549953        0.07366795636263        0.01596970046479
C            2.54786989218014       -1.24717055278849       -0.01133374165429
N            1.36349530827806       -1.91405143507680       -0.04895174028178
C            0.35873857825748       -0.98869338691284       -0.04146257104834
C            0.95343530535450        0.27528428596101       -0.00681183192192
C            0.20514825929472        1.47684061453934        0.00771320406702
O            0.60330493621538        2.62061590234044        0.02345746473065
N           -1.25693995832144        1.21217220700120        0.02032691023918
C           -2.01471680274034        2.31296319356633        0.06680913917995
C           -1.75789012168042       -0.05192288647033       -0.00011223531890
O           -3.08488406408548       -0.28014934310633        0.07083258671535
N           -0.97901066389314       -1.17118566407323       -0.05175180910734
C           -1.54291758692749       -2.50363246103602       -0.08648963247049
H            3.91922460197468        0.99770045143117        0.98735157913849
H            3.99393675607289        1.03104040455822       -0.78359740959333
H            2.83381060467113        2.07105178538446        0.07518609635905
H            3.51103924570655       -1.71349390009488       -0.00134824258551
H           -1.50047191357860        3.25240295270186        0.05873266013200
H           -3.75769922009989        0.42661041934902       -0.14581872300366
H           -3.08056686905487        2.26728084467924        0.15995832142593
H           -1.18586216819347       -3.08316354198315        0.76597049516827
H           -1.26090996575540       -3.00604244580431       -1.01373148678872
H           -2.62481658198150       -2.42328650810691       -0.03489938517309
H            1.26686164935287       -2.91736692992301       -0.07146530927216
25
 energy: -42.172235691369 gnorm: 0.033568529665 xtb: 6.6.1 (8d0f1dd)
C            3.32648943096390        1.10025138539768        0.07931359789621
N            2.32080281064366        0.07520264986416        0.01234048439591
C            2.54559635822485       -1.24609771234733       -0.00939338867709
N            1.36256505069068       -1.91388391226865       -0.04761957786409
C            0.35765949432248       -0.98714173266564       -0.04620170888350
C            0.95179427542730        0.27704425430739       -0.01514873187965
C            0.20211821114236        1.47772161930081       -0.00569282692557
O            0.59983809084559        2.62177692817584       -0.00418680222123
N           -1.26234217118110        1.21204789163499        0.01948710246552
C           -2.01891669440544        2.31146137627330        0.06974141191219
C           -1.75705020737663       -0.05811097309122        0.01314509423207
O           -3.08481115645799       -0.28136912945353        0.08120796818303
N           -0.97961419527541       -1.17138784703010       -0.05184129844205
C           -1.54486443408209       -2.50319577663198       -0.09185270349053
H            3.91255770935743        0.99429830228400        0.99360354479487
H            3.99815439934218        1.02935102984270       -0.77696256308787
H            2.83582224242735        2.07180491096645        0.07526810553779
H            3.50900670547870       -1.71137618916292        0.00480142769900
H           -1.50282175938036        3.25003170756976        0.04658710635507
H           -3.71866244757908        0.42746699356389       -0.14144890507642
H           -3.08202573138715        2.27392295012476        0.19476972978211
H           -1.20189619857094       -3.08453177973121        0.76551365384251
H           -1.25056318463466       -3.00741250360203       -1.01440950110228
H           -2.62778499074269       -2.42213387890472       -0.05588810129550
H            1.26937990630697       -2.91750202281644       -0.06396150025093
25
 energy: -42.173088269127 gnorm: 0.027045311378 xtb: 6.6.1 (8d0f1dd)
C            3.32237383789345        1.10127590268117        0.07821495507908
N            2.31863456048149        0.07479188480783        0.01007654803413
C            2.54432195265805       -1.24666490775335       -0.00736172991006
N            1.36193944155367       -1.91577818221058       -0.04413851553246
C            0.35825309086921       -0.98918288268306       -0.04732646063799
C            0.95006131562831        0.27564094778264       -0.01815370598596
C            0.20245109716594        1.47697511769100       -0.01103457484857
O            0.60000637271581        2.62105209079643       -0.01814793900641
N           -1.26155918795307        1.21334788423801        0.02284142538234
C           -2.02097936161142        2.31197458519378        0.07641426060336
C           -1.75672415921850       -0.05401342127590        0.02043382904671
O           -3.07764905816545       -0.28665532552976        0.08242582428212
N           -0.97831876619811       -1.17124029129128       -0.05215494617787
C           -1.54881543805094       -2.50216582884697       -0.09462012236561
H            3.90538694826004        0.99793854541748        0.99445599690243
H            3.99636948283626        1.03022134707762       -0.77599496258123
H            2.83016611967516        2.07205326706917        0.07072708035497
H            3.50800372791008       -1.71035124316802        0.00654291807009
H           -1.50582636246577        3.25078319778908        0.04706281672600
H           -3.67953611112896        0.42313262432543       -0.14628540626395
H           -3.08111275071980        2.27695547079653        0.21156268860605
H           -1.22031631523390       -3.08163092509537        0.76962252973185
H           -1.24421711090172       -3.00808716334975       -1.01237943434163
H           -2.63224917231881       -2.42300761327347       -0.07307338930443
H            1.26976736041890       -2.91912653958871       -0.05853806796337
25
 energy: -42.173434077726 gnorm: 0.021942604335 xtb: 6.6.1 (8d0f1dd)
C            3.31753855021433        1.10360293077963        0.07419789803536
N            2.31802343062811        0.07303372189365        0.01021114665707
C            2.54502412421945       -1.24807218668782       -0.00628239245141
N            1.36232576446514       -1.91807546615815       -0.04028521095580
C            0.35950981495964       -0.99333090657710       -0.04376157521325
C            0.94931001442744        0.27214802113733       -0.01520994505569
C            0.20518804569435        1.47505384257315       -0.00773803707999
O            0.60278572918710        2.61902649078074       -0.01435852483802
N           -1.25585102787232        1.21356772706282        0.02651244566715
C           -2.01916927543340        2.31254850670552        0.08195267187883
C           -1.75673062595030       -0.04610330789855        0.01764629926217
O           -3.07178628280343       -0.28872129120797        0.07302731731054
N           -0.97691275223480       -1.17189144805561       -0.05158717786480
C           -1.55220034401267       -2.50206880723088       -0.09329824928152
H            3.90153523771902        1.00681542433487        0.99027525366908
H            3.99081106621155        1.03319653539638       -0.78045612652483
H            2.82059233318005        2.07210116524866        0.06381863669573
H            3.50899551358385       -1.71069371246146        0.00394041256092
H           -1.50620855499676        3.25231857374896        0.05880091569138
H           -3.66181904137821        0.42301990115693       -0.15954892035855
H           -3.07924416685868        2.27337088682893        0.21177185649276
H           -1.23207172577873       -3.07747100734745        0.77635272904445
H           -1.24244699121485       -3.00991427613788       -1.00766163906667
H           -2.63547546691901       -2.42416101165565       -0.07990006065366
H            1.26870814506305       -2.92106176462911       -0.05724810572166
25
 energy: -42.173598264393 gnorm: 0.019237832572 xtb: 6.6.1 (8d0f1dd)
C            3.31376797561064        1.10606280532176        0.06906572794405
N            2.31830170334473        0.07128121031987        0.01097104054446
C            2.54648007603341       -1.24934220659243       -0.00594083493441
N            1.36324536101831       -1.91972396969206       -0.03665916029842
C            0.36037044658934       -0.99705096456733       -0.03826012916938
C            0.94917714247071        0.26889080704448       -0.01049538546511
C            0.20759869905367        1.47323921432308       -0.00159136174502
O            0.60559250074036        2.61712904803918       -0.00459368673158
N           -1.25037551097187        1.21271296631239        0.03014562406243
C           -2.01625910538423        2.31251353529984        0.08725278686708
C           -1.75690692876377       -0.04090619069327        0.01098182875896
O           -3.07027208002797       -0.28762032674998        0.05854417491292
N           -0.97630176165542       -1.17328160344823       -0.04993596459353
C           -1.55433351005911       -2.50286763648989       -0.09020362291532
H            3.90011997757057        1.01629894173348        0.98431160356842
H            3.98541912208631        1.03586379024891       -0.78681624313029
H            2.81195152132607        2.07219699133831        0.05609836881214
H            3.51065196243150       -1.71162429626289        0.00028001843739
H           -1.50501788080966        3.25329463319553        0.07371576373518
H           -3.65507320322702        0.42817035290830       -0.17739019011951
H           -3.07756271229831        2.26765998966940        0.20934968090324
H           -1.24019034803935       -3.07410097230586        0.78405426113792
H           -1.24029006803126       -3.01366333483677       -1.00123706194321
H           -2.63739095652409       -2.42432221743133       -0.08346896310906
H            1.26772909161638       -2.92257202508453       -0.05700665762979
25
 energy: -42.173753272780 gnorm: 0.018128104291 xtb: 6.6.1 (8d0f1dd)
C            3.31032332734282        1.10874467356197        0.06178926671375
N            2.31884811021066        0.06963043747319        0.01152952205988
C            2.54815249065398       -1.25047598421085       -0.00591979504653
N            1.36447250905485       -1.92106207740788       -0.03222845837273
C            0.36086778533464       -1.00040132767583       -0.03103663847148
C            0.94922438697552        0.26587948218068       -0.00469715288040
C            0.20919999703505        1.47140077346008        0.00676301126320
O            0.60794331258082        2.61517680156307        0.00846281884441
N           -1.24579894960802        1.21117193234038        0.03569536734846
C           -2.01330577025900        2.31190448127932        0.09565630587544
C           -1.75722537188297       -0.03828771657994        0.00196796800173
O           -3.07163950588058       -0.28480920093707        0.03676652882552
N           -0.97617124115778       -1.17534485992294       -0.04722351159776
C           -1.55596556477066       -2.50431740984087       -0.08567637977551
H            3.89961630119365        1.02721384374654        0.97597578665052
H            3.97996827930842        1.03745313369007       -0.79556069718629
H            2.80363682888269        2.07243197564404        0.04532087192748
H            3.51239996835912       -1.71288000678603       -0.00371186944353
H           -1.50344579487686        3.25355485216968        0.09301409707423
H           -3.64782965804018        0.43858696321579       -0.20427573087286
H           -3.07593226306608        2.26116246474096        0.20973841938758
H           -1.24995358462642       -3.07046250100684        0.79467555055467
H           -1.23511264171367       -3.02032365677848       -0.99143590229957
H           -2.63885274953567       -2.42380416548540       -0.08874575432539
H            1.26701131258561       -2.92390436683372       -0.05567200635524
25
 energy: -42.173991048500 gnorm: 0.016815887194 xtb: 6.6.1 (8d0f1dd)
C            3.30610035996543        1.11240426880202        0.04870869071344
N            2.31952511392888        0.06777961952596        0.01166062244185
C            2.55019116192065       -1.25165969622907       -0.00612239395095
N            1.36626149683453       -1.92255647131075       -0.02504112626686
C            0.36108657036114       -1.00416986633133       -0.01961396941168
C            0.94930166062620        0.26239104871369        0.00388139554638
C            0.20979104504749        1.46882405497032        0.02052585979067
O            0.60977631783572        2.61241515393091        0.02933697642199
N           -1.24154618785061        1.20833122229433        0.04640698359681
C           -2.01026364580001        2.30995626747758        0.11274206926525
C           -1.75766987988979       -0.03816829447128       -0.01280343293086
O           -3.07601635176196       -0.27950725782009       -0.00425891108684
N           -0.97637273193931       -1.17874512784346       -0.04246694758802
C           -1.55770327140047       -2.50684510762257       -0.07761790630332
H            3.89963192763879        1.04363351356468        0.96137076491991
H            3.97277177713989        1.03704515545256       -0.81063708854472
H            2.79346867229104        2.07295269757403        0.02569790801354
H            3.51436182260082       -1.71464709601503       -0.00868234252056
H           -1.50179607478348        3.25236891501949        0.12476547480107
H           -3.63193222639537        0.46014747733667       -0.25578166751983
H           -3.07435760678323        2.25213086944933        0.21876527124430
H           -1.26695856822329       -3.06427930435549        0.81367261029446
H           -1.22340072271701       -3.03331887481518       -0.97277896447153
H           -2.64029440662704       -2.42277213900076       -0.09942800293282
H            1.26647526208093       -2.92547248669666       -0.05113025562209
25
 energy: -42.174254187123 gnorm: 0.013092478547 xtb: 6.6.1 (8d0f1dd)
C            3.30311877951710        1.11520495457489        0.03343558223853
N            2.31963994393019        0.06692546756471        0.01083895467795
C            2.55123385259031       -1.25204753908339       -0.00611199850946
N            1.36770038912498       -1.92351795801744       -0.01747995791324
C            0.36075047851562       -1.00625552218946       -0.00889561282621
C            0.94917191057781        0.26036010242587        0.01100499923289
C            0.20796752630863        1.46648193004238        0.03434256395026
O            0.60897287413655        2.60994013941546        0.04985151077346
N           -1.24094040667669        1.20490276329005        0.05935212449777
C           -2.00998148534376        2.30611811495612        0.13533745572093
C           -1.75767783010017       -0.04214412298975       -0.02838538142908
O           -3.08134451288434       -0.27334295216666       -0.05474242006465
N           -0.97682017758847       -1.18209132955602       -0.03785127517462
C           -1.55878988798868       -2.50938928155466       -0.06844152949295
H            3.89998095006376        1.05931806463961        0.94491590576610
H            3.96728382267706        1.03232853713029       -0.82723455517375
H            2.78682971632169        2.07355695436154        0.00199416642515
H            3.51520352758019       -1.71576254725252       -0.01100782285091
H           -1.50230599379788        3.24866017665908        0.15823557959558
H           -3.60648496202167        0.48901253596500       -0.32061232138579
H           -3.07447741433797        2.24409199249188        0.24244652980327
H           -1.28673593565316       -3.05648477217757        0.83557884260333
H           -1.20789284150321       -3.04915689426728       -0.94966954782912
H           -2.64071166147115       -2.42190256953629       -0.11318810609457
H            1.26674085212327       -2.92656770312598       -0.04254206864131
25
 energy: -42.174467955225 gnorm: 0.007308757392 xtb: 6.6.1 (8d0f1dd)
C            3.30304138403935        1.11533211889809        0.02358550081874
N            2.31869001741949        0.06781706364047        0.00921831032438
C            2.55035304736992       -1.25118404787528       -0.00514689381895
N            1.36786704858326       -1.92349657374975       -0.01325047727298
C            0.35997594115359       -1.00541523652763       -0.00565121191379
C            0.94861499817789        0.26110327171501        0.01127337661893
C            0.20415507467123        1.46561872791889        0.03946631234377
O            0.60513461047321        2.60912154751933        0.05736820575923
N           -1.24517685691106        1.20238217401732        0.06728234536109
C           -2.01409897023729        2.30106519965177        0.15318652180949
C           -1.75676451205076       -0.04857175177286       -0.03682896211078
O           -3.08352304896126       -0.26902281423421       -0.09051361048256
N           -0.97725793499005       -1.18356619736283       -0.03673451594730
C           -1.55899490858298       -2.51049056277935       -0.06296713741690
H            3.89982064430887        1.06600349010732        0.93527055232825
H            3.96706695345295        1.02424474317217       -0.83641735268255
H            2.78795338848957        2.07387986125775       -0.01491864308629
H            3.51428144083644       -1.71501811686243       -0.00761479890773
H           -1.50650844162046        3.24332917976925        0.17617491821504
H           -3.57849543289119        0.51349525207921       -0.36882288490467