      -----------------------------------------------------------      
     |                   =====================                   |     
     |                           x T B                           |     
     |                   =====================                   |     
     |                         S. Grimme                         |     
     |          Mulliken Center for Theoretical Chemistry        |     
     |                    University of Bonn                     |     
      -----------------------------------------------------------      

   * xtb version 6.6.1 (8d0f1dd) compiled by 'conda@1efc2f54142f' on 2023-08-01

   xtb is free software: you can redistribute it and/or modify it under
   the terms of the GNU Lesser General Public License as published by
   the Free Software Foundation, either version 3 of the License, or
   (at your option) any later version.
   
   xtb is distributed in the hope that it will be useful,
   but WITHOUT ANY WARRANTY; without even the implied warranty of
   MERCHANTABILITY or FITNESS FOR A PARTICULAR PURPOSE.  See the
   GNU Lesser General Public License for more details.
   
   Cite this work as:
   * C. Bannwarth, E. Caldeweyher, S. Ehlert, A. Hansen, P. Pracht,
     J. Seibert, S. Spicher, S. Grimme, WIREs Comput. Mol. Sci., 2020, 11,
     e01493. DOI: 10.1002/wcms.1493
   
   for GFN2-xTB:
   * C. Bannwarth, S. Ehlert and S. Grimme., J. Chem. Theory Comput., 2019,
     15, 1652-1671. DOI: 10.1021/acs.jctc.8b01176
   for GFN1-xTB:
   * S. Grimme, C. Bannwarth, P. Shushkov, J. Chem. Theory Comput., 2017,
     13, 1989-2009. DOI: 10.1021/acs.jctc.7b00118
   for GFN0-xTB:
   * P. Pracht, E. Caldeweyher, S. Ehlert, S. Grimme, ChemRxiv, 2019, preprint.
     DOI: 10.26434/chemrxiv.8326202.v1
   for GFN-FF:
   * S. Spicher and S. Grimme, Angew. Chem. Int. Ed., 2020, 59, 15665-15673.
     DOI: 10.1002/anie.202004239
   
   for ALPB and GBSA implicit solvation:
   * S. Ehlert, M. Stahn, S. Spicher, S. Grimme, J. Chem. Theory Comput.,
     2021, 17, 4250-4261. DOI: 10.1021/acs.jctc.1c00471
   
   for DFT-D4:
   * E. Caldeweyher, C. Bannwarth and S. Grimme, J. Chem. Phys., 2017,
     147, 034112. DOI: 10.1063/1.4993215
   * E. Caldeweyher, S. Ehlert, A. Hansen, H. Neugebauer, S. Spicher,
     C. Bannwarth and S. Grimme, J. Chem. Phys., 2019, 150, 154122.
     DOI: 10.1063/1.5090222
   * E. Caldeweyher, J.-M. Mewes, S. Ehlert and S. Grimme, Phys. Chem. Chem. Phys.
     2020, 22, 8499-8512. DOI: 10.1039/D0CP00502A
   
   for sTDA-xTB:
   * S. Grimme and C. Bannwarth, J. Chem. Phys., 2016, 145, 054103.
     DOI: 10.1063/1.4959605
   
   in the mass-spec context:
   * V. Asgeirsson, C. Bauer and S. Grimme, Chem. Sci., 2017, 8, 4879.
     DOI: 10.1039/c7sc00601b
   * J. Koopman and S. Grimme, ACS Omega 2019, 4, 12, 15120-15133.
     DOI: 10.1021/acsomega.9b02011
   
   for metadynamics refer to:
   * S. Grimme, J. Chem. Theory Comput., 2019, 155, 2847-2862
     DOI: 10.1021/acs.jctc.9b00143
   
   for SPH calculations refer to:
   * S. Spicher and S. Grimme, J. Chem. Theory Comput., 2021, 17, 1701-1714
     DOI: 10.1021/acs.jctc.0c01306
   
   with help from (in alphabetical order)
   P. Atkinson, C. Bannwarth, F. Bohle, G. Brandenburg, E. Caldeweyher
   M. Checinski, S. Dohm, S. Ehlert, S. Ehrlich, I. Gerasimov, C. Hölzer
   A. Katbashev, J. Koopman, C. Lavigne, S. Lehtola, F. März, M. Müller,
   F. Musil, H. Neugebauer, J. Pisarek, C. Plett, P. Pracht, F. Pultar,
   J. Seibert, P. Shushkov, S. Spicher, M. Stahn, M. Steiner, T. Strunk,
   J. Stückrath, T. Rose, and J. Unsleber
   
 * started run on 2024/06/05 at 19:58:40.862     

           -------------------------------------------------
          |                Calculation Setup                |
           -------------------------------------------------

          program call               : xtb struc.xyz --opt loose --input .xc1 --gfn2
          hostname                   : n-62-29-9
          coordinate file            : struc.xyz
          omp threads                :                     1

   ID    Z sym.   atoms
    1    6 C      1, 3, 5-7, 10, 11, 14
    2    7 N      2, 4, 9, 13
    3    8 O      8, 12
    4    1 H      15-25
constraining bond 2 6 to    3.9200000 Å, actual value:    1.3708515 Å

           -------------------------------------------------
          |                 G F N 2 - x T B                 |
           -------------------------------------------------

        Reference                      10.1021/acs.jctc.8b01176
      * Hamiltonian:
        H0-scaling (s, p, d)           1.850000    2.230000    2.230000
        zeta-weighting                 0.500000
      * Dispersion:
        s8                             2.700000
        a1                             0.520000
        a2                             5.000000
        s9                             5.000000
      * Repulsion:
        kExp                           1.500000    1.000000
        rExp                           1.000000
      * Coulomb:
        alpha                          2.000000
        third order                    shell-resolved
        anisotropic                    true
        a3                             3.000000
        a5                             4.000000
        cn-shift                       1.200000
        cn-exp                         4.000000
        max-rad                        5.000000


          ...................................................
          :                      SETUP                      :
          :.................................................:
          :  # basis functions                  67          :
          :  # atomic orbitals                  67          :
          :  # shells                           39          :
          :  # electrons                        74          :
          :  max. iterations                   250          :
          :  Hamiltonian                  GFN2-xTB          :
          :  restarted?                      false          :
          :  GBSA solvation                  false          :
          :  PC potential                    false          :
          :  electronic temp.         7500.0000000     K    :
          :  accuracy                    1.0000000          :
          :  -> integral cutoff          0.2500000E+02      :
          :  -> integral neglect         0.1000000E-07      :
          :  -> SCF convergence          0.1000000E-05 Eh   :
          :  -> wf. convergence          0.1000000E-03 e    :
          :  Broyden damping             0.4000000          :
          ...................................................

 iter      E             dE          RMSdq      gap      omega  full diag
   1    -42.5960780 -0.425961E+02  0.440E+00    3.52       0.0  T
   2    -42.7780033 -0.181925E+00  0.248E+00    3.37       1.0  T
   3    -42.7871777 -0.917437E-02  0.149E+00    3.50       1.0  T
   4    -42.7817164  0.546128E-02  0.642E-01    3.42       1.0  T
   5    -42.7911189 -0.940247E-02  0.115E-01    3.49       1.0  T
   6    -42.7912109 -0.920486E-04  0.685E-02    3.46       1.0  T
   7    -42.7912647 -0.537856E-04  0.265E-02    3.48       1.0  T
   8    -42.7912686 -0.385526E-05  0.113E-02    3.47       1.8  T
   9    -42.7912697 -0.111307E-05  0.441E-03    3.47       4.5  T
  10    -42.7912698 -0.733569E-07  0.139E-03    3.47      14.4  T
  11    -42.7912698 -0.243437E-08  0.602E-04    3.47      33.2  T
  12    -42.7912698 -0.222032E-08  0.181E-04    3.47     110.6  T

   *** convergence criteria satisfied after 12 iterations ***

         #    Occupation            Energy/Eh            Energy/eV
      -------------------------------------------------------------
         1        2.0000           -0.9116047             -24.8060
       ...           ...                  ...                  ...
        31        1.9942           -0.6212459             -16.9050
        32        1.9930           -0.6166804             -16.7807
        33        1.9876           -0.6031136             -16.4116
        34        1.9710           -0.5827317             -15.8569
        35        1.9403           -0.5651917             -15.3796
        36        1.9387           -0.5645672             -15.3627
        37        1.9155           -0.5566412             -15.1470 (HOMO)
        38        0.1907           -0.4290919             -11.6762 (LUMO)
        39        0.0640           -0.4015676             -10.9272
        40        0.0206           -0.3740689             -10.1789
        41        0.0006           -0.2879107              -7.8344
        42        0.0000           -0.2065811              -5.6214
       ...           ...                  ...                  ...
        67                          0.5613577              15.2753
      -------------------------------------------------------------
                  HL-Gap            0.1275493 Eh            3.4708 eV
             Fermi-level           -0.4825284 Eh          -13.1303 eV

 SCC (total)                   0 d,  0 h,  0 min,  0.040 sec
 SCC setup                      ...        0 min,  0.000 sec (  0.762%)
 Dispersion                     ...        0 min,  0.000 sec (  0.991%)
 classical contributions        ...        0 min,  0.000 sec (  0.252%)
 integral evaluation            ...        0 min,  0.007 sec ( 16.390%)
 iterations                     ...        0 min,  0.020 sec ( 49.313%)
 molecular gradient             ...        0 min,  0.013 sec ( 31.901%)
 printout                       ...        0 min,  0.000 sec (  0.356%)

         :::::::::::::::::::::::::::::::::::::::::::::::::::::
         ::                     SUMMARY                     ::
         :::::::::::::::::::::::::::::::::::::::::::::::::::::
         :: total energy             -30.657380992717 Eh    ::
         :: gradient norm              6.817949053667 Eh/a0 ::
         :: HOMO-LUMO gap              3.470793873671 eV    ::
         ::.................................................::
         :: SCC energy               -42.791269777655 Eh    ::
         :: -> isotropic ES            0.136760385929 Eh    ::
         :: -> anisotropic ES         -0.005341405309 Eh    ::
         :: -> anisotropic XC          0.011501049227 Eh    ::
         :: -> dispersion             -0.022650340738 Eh    ::
         :: repulsion energy           0.531105277918 Eh    ::
         :: add. restraining          11.602669348012 Eh    ::
         :: total charge               1.000000000010 e     ::
         :::::::::::::::::::::::::::::::::::::::::::::::::::::

      ----------------------------------------------------------- 
     |                   =====================                   |
     |                        A N C O P T                        |
     |                   =====================                   |
     |               Approximate Normal Coordinate               |
     |                Rational Function Optimizer                |
      ----------------------------------------------------------- 

          ...................................................
          :                      SETUP                      :
          :.................................................:
          :   optimization level             loose          :
          :   max. optcycles                   200          :
          :   ANC micro-cycles                  20          :
          :   degrees of freedom                69          :
          :.................................................:
          :   RF solver                   davidson          :
          :   write xtbopt.log                true          :
          :   linear?                        false          :
          :   energy convergence         0.5000000E-04 Eh   :
          :   grad. convergence          0.4000000E-02 Eh/α :
          :   maxmium RF displ.          1.0000000          :
          :   Hlow (freq-cutoff)         0.1000000E-01      :
          :   Hmax (freq-cutoff)         5.0000000          :
          :   S6 in model hess.         20.0000000          :
          ...................................................

generating ANC from model Hessian ...
Using Lindh-Hessian (1995)
 Shifting diagonal of input Hessian by    3.3831158461411817     
 Lowest  eigenvalues of input Hessian
    0.010000    1.050870    0.000000    0.000000    0.000000    0.000000
    0.000000    0.000000    3.385856    3.388701    3.390163    3.392982
    3.393151    3.395135    3.395715    3.397168    3.403029    3.408432
 Highest eigenvalues
    5.361452    5.583371    5.656688    5.753009    5.911898    7.315464


........................................................................
.............................. CYCLE    1 ..............................
........................................................................

 iter      E             dE          RMSdq      gap      omega  full diag
   1    -42.7912698 -0.427913E+02  0.838E-05    3.47       0.0  T
   2    -42.7912698 -0.247127E-10  0.452E-05    3.47     442.9  T
   3    -42.7912698 -0.149214E-11  0.279E-05    3.47     715.8  T
     SCC iter.                  ...        0 min,  0.005 sec
     gradient                   ...        0 min,  0.013 sec
 * total energy  :   -30.6573810 Eh     change       -0.2401990E-09 Eh
   gradient norm :     6.8179492 Eh/α   predicted     0.0000000E+00 (-100.00%)
   displ. norm   :     0.6991456 α      lambda       -0.4761124E+01
   maximum displ.:     0.6865908 α      in ANC's #62, #60, #50, ...

........................................................................
.............................. CYCLE    2 ..............................
........................................................................

 iter      E             dE          RMSdq      gap      omega  full diag
   1    -42.7364574 -0.427365E+02  0.136E+00    3.37       0.0  T
   2    -42.7411749 -0.471750E-02  0.765E-01    3.30       1.0  T
   3    -42.7414640 -0.289179E-03  0.455E-01    3.41       1.0  T
   4    -42.7434214 -0.195739E-02  0.112E-01    3.31       1.0  T
   5    -42.7437092 -0.287778E-03  0.448E-02    3.34       1.0  T
   6    -42.7437448 -0.355854E-04  0.187E-02    3.34       1.1  T
   7    -42.7437458 -0.103702E-05  0.715E-03    3.34       2.8  T
   8    -42.7437467 -0.888773E-06  0.232E-03    3.34       8.6  T
   9    -42.7437468 -0.357249E-07  0.112E-03    3.34      17.8  T
  10    -42.7437468 -0.131465E-07  0.442E-04    3.34      45.3  T
  11    -42.7437468 -0.164946E-08  0.191E-04    3.34     104.9  T
     SCC iter.                  ...        0 min,  0.017 sec
     gradient                   ...        0 min,  0.013 sec
 * total energy  :   -34.8184128 Eh     change       -0.4161032E+01 Eh
   gradient norm :     5.1796218 Eh/α   predicted    -0.3548128E+01 ( -14.73%)
   displ. norm   :     0.8003059 α      lambda       -0.4142097E+01
   maximum displ.:     0.7806349 α      in ANC's #62, #60, #50, ...

........................................................................
.............................. CYCLE    3 ..............................
........................................................................

 iter      E             dE          RMSdq      gap      omega  full diag
   1    -42.6350931 -0.426351E+02  0.134E+00    1.87       0.0  T
   2    -42.6207274  0.143657E-01  0.108E+00    1.15       1.0  T
   3    -42.6379733 -0.172459E-01  0.822E-01    1.94       1.0  T
   4    -42.6497330 -0.117597E-01  0.188E-01    1.57       1.0  T
   5    -42.6508851 -0.115206E-02  0.550E-02    1.55       1.0  T
   6    -42.6509475 -0.623608E-04  0.219E-02    1.56       1.0  T
   7    -42.6509494 -0.199732E-05  0.108E-02    1.57       1.8  T
   8    -42.6509515 -0.201846E-05  0.304E-03    1.56       6.6  T
   9    -42.6509516 -0.129637E-06  0.168E-03    1.56      11.9  T
  10    -42.6509516 -0.127155E-07  0.844E-04    1.56      23.7  T
  11    -42.6509516 -0.111576E-07  0.357E-04    1.56      56.1  T
     SCC iter.                  ...        0 min,  0.017 sec
     gradient                   ...        0 min,  0.013 sec
 * total energy  :   -38.3200557 Eh     change       -0.3501643E+01 Eh
   gradient norm :     3.5953480 Eh/α   predicted    -0.3399082E+01 (  -2.93%)
   displ. norm   :     0.7680607 α      lambda       -0.2759402E+01
   maximum displ.:     0.7357640 α      in ANC's #62, #60, #50, ...

........................................................................
.............................. CYCLE    4 ..............................
........................................................................

 iter      E             dE          RMSdq      gap      omega  full diag
   1    -42.4861514 -0.424862E+02  0.130E+00    2.28       0.0  T
   2    -42.4695769  0.165746E-01  0.131E+00    1.29       1.0  T
   3    -42.5265191 -0.569422E-01  0.509E-01    1.98       1.0  T
   4    -42.5265728 -0.537871E-04  0.352E-01    1.66       1.0  T
   5    -42.5291457 -0.257289E-02  0.853E-02    1.77       1.0  T
   6    -42.5293240 -0.178260E-03  0.344E-02    1.78       1.0  T
   7    -42.5293462 -0.221965E-04  0.125E-02    1.79       1.6  T
   8    -42.5293475 -0.130700E-05  0.283E-03    1.80       7.1  T
   9    -42.5293477 -0.182403E-06  0.997E-04    1.79      20.1  T
  10    -42.5293477 -0.851907E-08  0.567E-04    1.79      35.2  T
     SCC iter.                  ...        0 min,  0.015 sec
     gradient                   ...        0 min,  0.013 sec
 * total energy  :   -40.5310231 Eh     change       -0.2210967E+01 Eh
   gradient norm :     2.1551019 Eh/α   predicted    -0.2193612E+01 (  -0.78%)
   displ. norm   :     0.6603677 α      lambda       -0.1422082E+01
   maximum displ.:     0.6220474 α      in ANC's #62, #60, #50, ...

........................................................................
.............................. CYCLE    5 ..............................
........................................................................

 iter      E             dE          RMSdq      gap      omega  full diag
   1    -42.3538856 -0.423539E+02  0.139E+00    2.34       0.0  T
   2    -42.3568010 -0.291539E-02  0.104E+00    1.66       1.0  T
   3    -42.3783037 -0.215027E-01  0.540E-01    2.27       1.0  T
   4    -42.3819191 -0.361537E-02  0.288E-01    1.96       1.0  T
   5    -42.3834122 -0.149312E-02  0.895E-02    2.05       1.0  T
   6    -42.3836230 -0.210789E-03  0.329E-02    2.03       1.0  T
   7    -42.3836368 -0.138164E-04  0.158E-02    2.04       1.3  T
   8    -42.3836399 -0.311100E-05  0.326E-03    2.05       6.1  T
   9    -42.3836400 -0.607415E-07  0.144E-03    2.05      13.9  T
  10    -42.3836400 -0.255901E-07  0.684E-04    2.05      29.2  T
  11    -42.3836400 -0.260144E-08  0.227E-04    2.05      88.2  T
     SCC iter.                  ...        0 min,  0.017 sec
     gradient                   ...        0 min,  0.013 sec
 * total energy  :   -41.5133133 Eh     change       -0.9822902E+00 Eh
   gradient norm :     0.8225162 Eh/α   predicted    -0.1021117E+01 (   3.95%)
   displ. norm   :     0.3659073 α      lambda       -0.2980150E+00
   maximum displ.:     0.3201765 α      in ANC's #62, #2, #38, ...

........................................................................
.............................. CYCLE    6 ..............................
........................................................................

 iter      E             dE          RMSdq      gap      omega  full diag
   1    -42.2993110 -0.422993E+02  0.711E-01    2.15       0.0  T
   2    -42.2980626  0.124842E-02  0.573E-01    2.01       1.0  T
   3    -42.3057202 -0.765759E-02  0.280E-01    2.22       1.0  T
   4    -42.3067406 -0.102036E-02  0.128E-01    2.15       1.0  T
   5    -42.3070368 -0.296236E-03  0.418E-02    2.19       1.0  T
   6    -42.3070798 -0.429698E-04  0.178E-02    2.18       1.1  T
   7    -42.3070837 -0.398219E-05  0.824E-03    2.18       2.4  T
   8    -42.3070849 -0.113272E-05  0.233E-03    2.19       8.6  T
   9    -42.3070849 -0.512049E-07  0.114E-03    2.18      17.6  T
  10    -42.3070849 -0.187681E-07  0.494E-04    2.18      40.5  T
  11    -42.3070849 -0.116967E-08  0.133E-04    2.18     150.1  T
     SCC iter.                  ...        0 min,  0.017 sec
     gradient                   ...        0 min,  0.012 sec
 * total energy  :   -41.6869884 Eh     change       -0.1736751E+00 Eh
   gradient norm :     0.3510609 Eh/α   predicted    -0.1689649E+00 (  -2.71%)
   displ. norm   :     0.1511954 α      lambda       -0.4420542E-01
   maximum displ.:     0.0608708 α      in ANC's #62, #2, #38, ...

........................................................................
.............................. CYCLE    7 ..............................
........................................................................

 iter      E             dE          RMSdq      gap      omega  full diag
   1    -42.3138178 -0.423138E+02  0.232E-01    2.23       0.0  T
   2    -42.3139342 -0.116418E-03  0.169E-01    2.19       1.0  T
   3    -42.3142224 -0.288233E-03  0.946E-02    2.22       1.0  T
   4    -42.3142805 -0.580246E-04  0.367E-02    2.20       1.0  T
   5    -42.3143098 -0.292835E-04  0.111E-02    2.21       1.8  T
   6    -42.3143110 -0.127640E-05  0.553E-03    2.20       3.6  T
   7    -42.3143113 -0.285316E-06  0.291E-03    2.21       6.9  T
   8    -42.3143116 -0.287116E-06  0.118E-03    2.21      17.0  T
   9    -42.3143116 -0.251391E-07  0.502E-04    2.21      39.9  T
  10    -42.3143116 -0.137646E-08  0.200E-04    2.21      99.8  T
     SCC iter.                  ...        0 min,  0.014 sec
     gradient                   ...        0 min,  0.011 sec
 * total energy  :   -41.7243599 Eh     change       -0.3737143E-01 Eh
   gradient norm :     0.3247478 Eh/α   predicted    -0.2260825E-01 ( -39.50%)
   displ. norm   :     0.4004384 α      lambda       -0.1044071E+00
   maximum displ.:     0.1415794 α      in ANC's #18, #38, #2, ...

........................................................................
.............................. CYCLE    8 ..............................
........................................................................

 iter      E             dE          RMSdq      gap      omega  full diag
   1    -42.3564878 -0.423565E+02  0.644E-01    2.31       0.0  T
   2    -42.3572034 -0.715674E-03  0.482E-01    2.17       1.0  T
   3    -42.3603448 -0.314140E-02  0.253E-01    2.29       1.0  T
   4    -42.3607905 -0.445644E-03  0.824E-02    2.23       1.0  T
   5    -42.3610011 -0.210647E-03  0.297E-02    2.25       1.0  T
   6    -42.3610143 -0.132100E-04  0.156E-02    2.25       1.3  T
   7    -42.3610164 -0.205053E-05  0.683E-03    2.25       2.9  T
   8    -42.3610175 -0.108075E-05  0.239E-03    2.25       8.4  T
   9    -42.3610175 -0.675323E-07  0.132E-03    2.25      15.2  T
  10    -42.3610175 -0.233666E-07  0.348E-04    2.25      57.5  T
  11    -42.3610175 -0.511044E-09  0.160E-04    2.25     125.2  T
     SCC iter.                  ...        0 min,  0.016 sec
     gradient                   ...        0 min,  0.011 sec
 * total energy  :   -41.8006892 Eh     change       -0.7632929E-01 Eh
   gradient norm :     0.3092273 Eh/α   predicted    -0.6057538E-01 ( -20.64%)
   displ. norm   :     0.3766092 α      lambda       -0.7018150E-01
   maximum displ.:     0.1480690 α      in ANC's #18, #38, #33, ...

........................................................................
.............................. CYCLE    9 ..............................
........................................................................

 iter      E             dE          RMSdq      gap      omega  full diag
   1    -42.4064671 -0.424065E+02  0.584E-01    2.28       0.0  T
   2    -42.4076047 -0.113758E-02  0.422E-01    2.21       1.0  T
   3    -42.4099668 -0.236210E-02  0.220E-01    2.29       1.0  T
   4    -42.4102469 -0.280087E-03  0.904E-02    2.29       1.0  T
   5    -42.4105014 -0.254512E-03  0.299E-02    2.29       1.0  T
   6    -42.4105205 -0.191672E-04  0.130E-02    2.30       1.5  T
   7    -42.4105215 -0.991132E-06  0.511E-03    2.30       3.9  T
   8    -42.4105221 -0.547547E-06  0.187E-03    2.30      10.7  T
   9    -42.4105221 -0.289536E-07  0.981E-04    2.30      20.4  T
  10    -42.4105221 -0.121639E-07  0.302E-04    2.30      66.3  T
     SCC iter.                  ...        0 min,  0.014 sec
     gradient                   ...        0 min,  0.011 sec
 * total energy  :   -41.8552763 Eh     change       -0.5458712E-01 Eh
   gradient norm :     0.3055894 Eh/α   predicted    -0.4006803E-01 ( -26.60%)
   displ. norm   :     0.4410421 α      lambda       -0.6903726E-01
   maximum displ.:     0.1819621 α      in ANC's #18, #38, #33, ...

........................................................................
.............................. CYCLE   10 ..............................
........................................................................

 iter      E             dE          RMSdq      gap      omega  full diag
   1    -42.4546809 -0.424547E+02  0.623E-01    2.38       0.0  T
   2    -42.4568064 -0.212550E-02  0.440E-01    2.26       1.0  T
   3    -42.4593420 -0.253559E-02  0.224E-01    2.39       1.0  T
   4    -42.4594510 -0.108986E-03  0.110E-01    2.35       1.0  T
   5    -42.4597890 -0.338066E-03  0.265E-02    2.35       1.0  T
   6    -42.4598017 -0.126990E-04  0.124E-02    2.36       1.6  T
   7    -42.4598024 -0.654318E-06  0.533E-03    2.36       3.8  T
   8    -42.4598031 -0.683317E-06  0.184E-03    2.36      10.8  T
   9    -42.4598031 -0.352326E-07  0.801E-04    2.36      25.0  T
  10    -42.4598031 -0.766112E-08  0.326E-04    2.36      61.4  T
     SCC iter.                  ...        0 min,  0.014 sec
     gradient                   ...        0 min,  0.011 sec
 * total energy  :   -41.9092233 Eh     change       -0.5394702E-01 Eh
   gradient norm :     0.2844374 Eh/α   predicted    -0.4123363E-01 ( -23.57%)
   displ. norm   :     0.4617017 α      lambda       -0.6228312E-01
   maximum displ.:     0.1998336 α      in ANC's #18, #38, #33, ...

........................................................................
.............................. CYCLE   11 ..............................
........................................................................

 iter      E             dE          RMSdq      gap      omega  full diag
   1    -42.4916368 -0.424916E+02  0.592E-01    2.52       0.0  T
   2    -42.4937090 -0.207225E-02  0.423E-01    2.33       1.0  T
   3    -42.4959859 -0.227683E-02  0.211E-01    2.46       1.0  T
   4    -42.4960465 -0.605949E-04  0.103E-01    2.42       1.0  T
   5    -42.4963142 -0.267684E-03  0.209E-02    2.43       1.0  T
   6    -42.4963190 -0.482681E-05  0.110E-02    2.43       1.8  T
   7    -42.4963197 -0.751469E-06  0.300E-03    2.43       6.7  T
   8    -42.4963198 -0.103469E-06  0.161E-03    2.43      12.4  T
   9    -42.4963199 -0.364602E-07  0.729E-04    2.43      27.4  T
  10    -42.4963199 -0.962743E-08  0.303E-04    2.43      66.0  T
     SCC iter.                  ...        0 min,  0.014 sec
     gradient                   ...        0 min,  0.011 sec
 * total energy  :   -41.9572841 Eh     change       -0.4806084E-01 Eh
   gradient norm :     0.2675261 Eh/α   predicted    -0.3778006E-01 ( -21.39%)
   displ. norm   :     0.4223834 α      lambda       -0.5114053E-01
   maximum displ.:     0.1849589 α      in ANC's #18, #33, #38, ...

........................................................................
.............................. CYCLE   12 ..............................
........................................................................

 iter      E             dE          RMSdq      gap      omega  full diag
   1    -42.5147676 -0.425148E+02  0.519E-01    2.57       0.0  T
   2    -42.5157864 -0.101882E-02  0.354E-01    2.44       1.0  T
   3    -42.5167580 -0.971529E-03  0.191E-01    2.54       1.0  T
   4    -42.5170923 -0.334291E-03  0.759E-02    2.51       1.0  T
   5    -42.5172195 -0.127212E-03  0.180E-02    2.51       1.1  T
   6    -42.5172214 -0.196664E-05  0.101E-02    2.51       2.0  T
   7    -42.5172225 -0.103000E-05  0.239E-03    2.51       8.4  T
   8    -42.5172225 -0.722189E-07  0.128E-03    2.51      15.6  T
   9    -42.5172226 -0.249190E-07  0.495E-04    2.51      40.4  T
  10    -42.5172226 -0.394200E-08  0.241E-04    2.51      83.0  T
     SCC iter.                  ...        0 min,  0.014 sec
     gradient                   ...        0 min,  0.011 sec
 * total energy  :   -41.9963460 Eh     change       -0.3906184E-01 Eh
   gradient norm :     0.2541760 Eh/α   predicted    -0.3013229E-01 ( -22.86%)
   displ. norm   :     0.3626401 α      lambda       -0.4705089E-01
   maximum displ.:     0.1488926 α      in ANC's #18, #33, #41, ...

........................................................................
.............................. CYCLE   13 ..............................
........................................................................

 iter      E             dE          RMSdq      gap      omega  full diag
   1    -42.5294089 -0.425294E+02  0.503E-01    2.57       0.0  T
   2    -42.5298597 -0.450796E-03  0.318E-01    2.54       1.0  T
   3    -42.5296962  0.163505E-03  0.197E-01    2.55       1.0  T
   4    -42.5305085 -0.812343E-03  0.535E-02    2.59       1.0  T
   5    -42.5305638 -0.552367E-04  0.168E-02    2.58       1.2  T
   6    -42.5305646 -0.858320E-06  0.958E-03    2.58       2.1  T
   7    -42.5305660 -0.132399E-05  0.227E-03    2.58       8.8  T
   8    -42.5305661 -0.965134E-07  0.120E-03    2.58      16.7  T
   9    -42.5305661 -0.252253E-07  0.419E-04    2.58      47.8  T
  10    -42.5305661 -0.203092E-08  0.180E-04    2.58     111.3  T
     SCC iter.                  ...        0 min,  0.014 sec
     gradient                   ...        0 min,  0.011 sec
 * total energy  :   -42.0324606 Eh     change       -0.3611457E-01 Eh
   gradient norm :     0.2287887 Eh/α   predicted    -0.2661958E-01 ( -26.29%)
   displ. norm   :     0.3261785 α      lambda       -0.4661584E-01
   maximum displ.:     0.1179967 α      in ANC's #41, #48, #18, ...

........................................................................
.............................. CYCLE   14 ..............................
........................................................................

 iter      E             dE          RMSdq      gap      omega  full diag
   1    -42.5446438 -0.425446E+02  0.573E-01    2.51       0.0  T
   2    -42.5450603 -0.416533E-03  0.353E-01    2.57       1.0  T
   3    -42.5445430  0.517325E-03  0.236E-01    2.48       1.0  T
   4    -42.5455638 -0.102076E-02  0.600E-02    2.57       1.0  T
   5    -42.5456593 -0.955241E-04  0.187E-02    2.57       1.1  T
   6    -42.5456615 -0.217420E-05  0.110E-02    2.57       1.8  T
   7    -42.5456631 -0.165365E-05  0.342E-03    2.57       5.9  T
   8    -42.5456634 -0.309671E-06  0.109E-03    2.57      18.4  T
   9    -42.5456634 -0.122829E-07  0.540E-04    2.57      37.1  T
  10    -42.5456634 -0.310005E-08  0.223E-04    2.57      89.8  T
     SCC iter.                  ...        0 min,  0.014 sec
     gradient                   ...        0 min,  0.011 sec
 * total energy  :   -42.0661471 Eh     change       -0.3368650E-01 Eh
   gradient norm :     0.1984790 Eh/α   predicted    -0.2578776E-01 ( -23.45%)
   displ. norm   :     0.2448118 α      lambda       -0.2985499E-01
   maximum displ.:     0.1156860 α      in ANC's #48, #41, #51, ...

........................................................................
.............................. CYCLE   15 ..............................
........................................................................

 iter      E             dE          RMSdq      gap      omega  full diag
   1    -42.5604145 -0.425604E+02  0.504E-01    2.38       0.0  T
   2    -42.5609918 -0.577385E-03  0.308E-01    2.48       1.0  T
   3    -42.5611331 -0.141283E-03  0.212E-01    2.44       1.0  T
   4    -42.5614407 -0.307529E-03  0.913E-02    2.44       1.0  T
   5    -42.5617402 -0.299553E-03  0.204E-02    2.46       1.0  T
   6    -42.5617498 -0.963451E-05  0.893E-03    2.45       2.2  T
   7    -42.5617500 -0.130078E-06  0.478E-03    2.45       4.2  T
   8    -42.5617504 -0.401727E-06  0.930E-04    2.45      21.5  T
   9    -42.5617504 -0.143368E-07  0.531E-04    2.45      37.7  T
     SCC iter.                  ...        0 min,  0.013 sec
     gradient                   ...        0 min,  0.011 sec
 * total energy  :   -42.0853078 Eh     change       -0.1916073E-01 Eh
   gradient norm :     0.1777313 Eh/α   predicted    -0.1582218E-01 ( -17.42%)
   displ. norm   :     0.1129612 α      lambda       -0.1186671E-01
   maximum displ.:     0.0428937 α      in ANC's #48, #34, #51, ...

........................................................................
.............................. CYCLE   16 ..............................
........................................................................

 iter      E             dE          RMSdq      gap      omega  full diag
   1    -42.5748100 -0.425748E+02  0.248E-01    2.31       0.0  T
   2    -42.5749668 -0.156816E-03  0.174E-01    2.40       1.0  T
   3    -42.5755075 -0.540719E-03  0.961E-02    2.37       1.0  T
   4    -42.5755402 -0.326303E-04  0.542E-02    2.36       1.0  T
   5    -42.5756244 -0.842150E-04  0.110E-02    2.38       1.8  T
   6    -42.5756274 -0.306875E-05  0.348E-03    2.37       5.8  T
   7    -42.5756274  0.120965E-08  0.216E-03    2.37       9.3  T
   8    -42.5756275 -0.646177E-07  0.645E-04    2.37      31.0  T
   9    -42.5756275 -0.940316E-08  0.186E-04    2.37     107.7  T
     SCC iter.                  ...        0 min,  0.013 sec
     gradient                   ...        0 min,  0.011 sec
 * total energy  :   -42.0944245 Eh     change       -0.9116694E-02 Eh
   gradient norm :     0.1624358 Eh/α   predicted    -0.6009141E-02 ( -34.09%)
   displ. norm   :     0.2158141 α      lambda       -0.1979767E-01
   maximum displ.:     0.1395942 α      in ANC's #1, #2, #41, ...

........................................................................
.............................. CYCLE   17 ..............................
........................................................................

 iter      E             dE          RMSdq      gap      omega  full diag
   1    -42.5950311 -0.425950E+02  0.385E-01    2.13       0.0  T
   2    -42.5947866  0.244460E-03  0.325E-01    2.30       1.0  T
   3    -42.5975004 -0.271378E-02  0.138E-01    2.24       1.0  T
   4    -42.5976025 -0.102149E-03  0.822E-02    2.23       1.0  T
   5    -42.5977389 -0.136397E-03  0.206E-02    2.24       1.0  T
   6    -42.5977480 -0.902439E-05  0.537E-03    2.24       3.7  T
   7    -42.5977480 -0.626397E-07  0.339E-03    2.24       5.9  T
   8    -42.5977482 -0.168022E-06  0.115E-03    2.24      17.4  T
   9    -42.5977482 -0.312117E-07  0.364E-04    2.24      55.0  T
  10    -42.5977482 -0.100029E-08  0.180E-04    2.24     110.9  T
     SCC iter.                  ...        0 min,  0.014 sec
     gradient                   ...        0 min,  0.011 sec
 * total energy  :   -42.1071996 Eh     change       -0.1277512E-01 Eh
   gradient norm :     0.1467638 Eh/α   predicted    -0.1035991E-01 ( -18.91%)
   displ. norm   :     0.4888426 α      lambda       -0.1933754E-01
   maximum displ.:     0.4496295 α      in ANC's #1, #63, #41, ...

........................................................................
.............................. CYCLE   18 ..............................
........................................................................

 iter      E             dE          RMSdq      gap      omega  full diag
   1    -42.6098634 -0.426099E+02  0.534E-01    2.01       0.0  T
   2    -42.6091751  0.688320E-03  0.403E-01    2.21       1.0  T
   3    -42.6113926 -0.221757E-02  0.252E-01    2.08       1.0  T
   4    -42.6122203 -0.827691E-03  0.109E-01    2.13       1.0  T
   5    -42.6125314 -0.311077E-03  0.260E-02    2.14       1.0  T
   6    -42.6125455 -0.141056E-04  0.789E-03    2.14       2.5  T
   7    -42.6125454  0.973407E-07  0.482E-03    2.14       4.2  T
   8    -42.6125458 -0.404036E-06  0.930E-04    2.14      21.5  T
   9    -42.6125458 -0.128766E-07  0.461E-04    2.14      43.4  T
     SCC iter.                  ...        0 min,  0.013 sec
     gradient                   ...        0 min,  0.011 sec
 * total energy  :   -42.1119519 Eh     change       -0.4752317E-02 Eh
   gradient norm :     0.1638640 Eh/α   predicted    -0.1197966E-01 ( 152.08%)
   displ. norm   :     0.3748899 α      lambda       -0.1729945E-01
   maximum displ.:     0.3507894 α      in ANC's #1, #41, #21, ...

........................................................................
.............................. CYCLE   19 ..............................
........................................................................

 iter      E             dE          RMSdq      gap      omega  full diag
   1    -42.6239721 -0.426240E+02  0.388E-01    2.10       0.0  T
   2    -42.6240100 -0.378085E-04  0.250E-01    2.12       1.0  T
   3    -42.6236428  0.367140E-03  0.191E-01    2.06       1.0  T
   4    -42.6243874 -0.744538E-03  0.714E-02    2.14       1.0  T
   5    -42.6245681 -0.180722E-03  0.158E-02    2.10       1.3  T
   6    -42.6245730 -0.494871E-05  0.568E-03    2.10       3.5  T
   7    -42.6245731 -0.407255E-07  0.185E-03    2.10      10.8  T
   8    -42.6245731 -0.820353E-07  0.625E-04    2.10      32.0  T
   9    -42.6245731 -0.357413E-08  0.288E-04    2.10      69.4  T
     SCC iter.                  ...        0 min,  0.013 sec
     gradient                   ...        0 min,  0.011 sec
 * total energy  :   -42.1212417 Eh     change       -0.9289790E-02 Eh
   gradient norm :     0.1518220 Eh/α   predicted    -0.9866512E-02 (   6.21%)
   displ. norm   :     0.1240058 α      lambda       -0.9387448E-02
   maximum displ.:     0.0621074 α      in ANC's #1, #18, #33, ...

........................................................................
.............................. CYCLE   20 ..............................
........................................................................

 iter      E             dE          RMSdq      gap      omega  full diag
   1    -42.6117809 -0.426118E+02  0.193E-01    2.16       0.0  T
   2    -42.6117994 -0.184735E-04  0.170E-01    2.03       1.0  T
   3    -42.6123853 -0.585868E-03  0.807E-02    2.11       1.0  T
   4    -42.6124034 -0.181077E-04  0.541E-02    2.09       1.0  T
   5    -42.6124685 -0.650968E-04  0.142E-02    2.10       1.4  T
   6    -42.6124722 -0.374721E-05  0.355E-03    2.10       5.6  T
   7    -42.6124722  0.226215E-07  0.200E-03    2.10      10.0  T
   8    -42.6124723 -0.714076E-07  0.586E-04    2.10      34.1  T
   9    -42.6124723 -0.689073E-08  0.256E-04    2.10      78.0  T
     SCC iter.                  ...        0 min,  0.013 sec
     gradient                   ...        0 min,  0.011 sec
 * total energy  :   -42.1270926 Eh     change       -0.5850931E-02 Eh
   gradient norm :     0.0899908 Eh/α   predicted    -0.4766111E-02 ( -18.54%)
   displ. norm   :     0.1282239 α      lambda       -0.5852148E-02
   maximum displ.:     0.0570361 α      in ANC's #21, #41, #24, ...
 * RMSD in coord.:     0.9274369 α      energy gain  -0.1146971E+02 Eh

generating ANC from model Hessian ...
Using Lindh-Hessian (1995)
 Shifting diagonal of input Hessian by    9.7971538292041527E-003
 Lowest  eigenvalues of input Hessian
    0.000000    0.000000    0.000000    0.000000    0.000000    0.000000
    0.010000    0.010797    0.011150    0.014178    0.014341    0.016471
    0.017731    0.018683    0.021116    0.021740    0.023323    0.027942
 Highest eigenvalues
    1.884552    1.910541    2.239645    2.421452    2.458111    3.048231


........................................................................
.............................. CYCLE   21 ..............................
........................................................................

 iter      E             dE          RMSdq      gap      omega  full diag
   1    -42.6136620 -0.426137E+02  0.149E-01    2.07       0.0  T
   2    -42.6137377 -0.756748E-04  0.898E-02    2.04       1.0  T
   3    -42.6137203  0.174170E-04  0.539E-02    2.08       1.0  T
   4    -42.6137305 -0.101651E-04  0.369E-02    2.04       1.0  T
   5    -42.6137736 -0.431779E-04  0.864E-03    2.06       2.3  T
   6    -42.6137758 -0.213177E-05  0.227E-03    2.06       8.8  T
   7    -42.6137758 -0.230833E-07  0.129E-03    2.06      15.5  T
   8    -42.6137758 -0.209410E-07  0.369E-04    2.06      54.3  T
   9    -42.6137758 -0.203712E-08  0.145E-04    2.06     137.7  T
     SCC iter.                  ...        0 min,  0.018 sec
     gradient                   ...        0 min,  0.011 sec
 * total energy  :   -42.1319047 Eh     change       -0.4812085E-02 Eh
   gradient norm :     0.0771249 Eh/α   predicted     0.0000000E+00 (-100.00%)
   displ. norm   :     0.5259711 α      lambda       -0.2804315E-01
   maximum displ.:     0.2888327 α      in ANC's #18, #16, #6, ...

........................................................................
.............................. CYCLE   22 ..............................
........................................................................

 iter      E             dE          RMSdq      gap      omega  full diag
   1    -42.6641640 -0.426642E+02  0.404E-01    2.08       0.0  T
   2    -42.6644132 -0.249136E-03  0.255E-01    2.09       1.0  T
   3    -42.6642008  0.212363E-03  0.146E-01    2.07       1.0  T
   4    -42.6646002 -0.399357E-03  0.364E-02    2.09       1.0  T
   5    -42.6646304 -0.302571E-04  0.943E-03    2.08       2.1  T
   6    -42.6646308 -0.391910E-06  0.677E-03    2.08       3.0  T
   7    -42.6646311 -0.338183E-06  0.354E-03    2.09       5.6  T
   8    -42.6646316 -0.420634E-06  0.817E-04    2.08      24.5  T
   9    -42.6646316 -0.808577E-08  0.359E-04    2.08      55.8  T
     SCC iter.                  ...        0 min,  0.013 sec
     gradient                   ...        0 min,  0.011 sec
 * total energy  :   -42.1535345 Eh     change       -0.2162978E-01 Eh
   gradient norm :     0.0455552 Eh/α   predicted    -0.1790236E-01 ( -17.23%)
   displ. norm   :     0.5693790 α      lambda       -0.1613097E-01
   maximum displ.:     0.3295635 α      in ANC's #6, #18, #16, ...

........................................................................
.............................. CYCLE   23 ..............................
........................................................................

 iter      E             dE          RMSdq      gap      omega  full diag
   1    -42.6935626 -0.426936E+02  0.366E-01    2.08       0.0  T
   2    -42.6940197 -0.457126E-03  0.258E-01    2.13       1.0  T
   3    -42.6941731 -0.153410E-03  0.140E-01    2.07       1.0  T
   4    -42.6942776 -0.104508E-03  0.716E-02    2.14       1.0  T
   5    -42.6944098 -0.132173E-03  0.279E-02    2.09       1.0  T
   6    -42.6944332 -0.234322E-04  0.653E-03    2.10       3.1  T
   7    -42.6944331  0.984371E-07  0.465E-03    2.10       4.3  T
   8    -42.6944336 -0.458782E-06  0.572E-04    2.10      35.0  T
   9    -42.6944336 -0.267031E-08  0.268E-04    2.10      74.6  T
     SCC iter.                  ...        0 min,  0.013 sec
     gradient                   ...        0 min,  0.011 sec
 * total energy  :   -42.1644747 Eh     change       -0.1094019E-01 Eh
   gradient norm :     0.0238341 Eh/α   predicted    -0.1068025E-01 (  -2.38%)
   displ. norm   :     0.4858623 α      lambda       -0.5195262E-02
   maximum displ.:     0.3965955 α      in ANC's #6, #16, #7, ...

........................................................................
.............................. CYCLE   24 ..............................
........................................................................

 iter      E             dE          RMSdq      gap      omega  full diag
   1    -42.7018210 -0.427018E+02  0.189E-01    2.10       0.0  T
   2    -42.7019474 -0.126398E-03  0.134E-01    2.12       1.0  T
   3    -42.7019889 -0.415078E-04  0.712E-02    2.10       1.0  T
   4    -42.7020174 -0.285064E-04  0.291E-02    2.12       1.0  T
   5    -42.7020384 -0.209674E-04  0.885E-03    2.10       2.3  T
   6    -42.7020401 -0.173230E-05  0.365E-03    2.11       5.5  T
   7    -42.7020401  0.415983E-07  0.269E-03    2.11       7.4  T
   8    -42.7020403 -0.233260E-06  0.342E-04    2.11      58.4  T
   9    -42.7020403 -0.112277E-08  0.156E-04    2.11     128.6  T
     SCC iter.                  ...        0 min,  0.013 sec
     gradient                   ...        0 min,  0.011 sec
 * total energy  :   -42.1681813 Eh     change       -0.3706621E-02 Eh
   gradient norm :     0.0211118 Eh/α   predicted    -0.3210837E-02 ( -13.38%)
   displ. norm   :     0.5216602 α      lambda       -0.3377614E-02
   maximum displ.:     0.4337980 α      in ANC's #6, #7, #12, ...

........................................................................
.............................. CYCLE   25 ..............................
........................................................................

 iter      E             dE          RMSdq      gap      omega  full diag
   1    -42.7049026 -0.427049E+02  0.195E-01    2.16       0.0  T
   2    -42.7048395  0.631277E-04  0.137E-01    2.11       1.0  T
   3    -42.7048028  0.366832E-04  0.108E-01    2.17       1.0  T
   4    -42.7050227 -0.219897E-03  0.312E-02    2.13       1.0  T
   5    -42.7050591 -0.364460E-04  0.626E-03    2.14       3.2  T
   6    -42.7050598 -0.672736E-06  0.246E-03    2.14       8.1  T
   7    -42.7050598  0.262898E-07  0.168E-03    2.14      11.9  T
   8    -42.7050598 -0.792588E-07  0.267E-04    2.14      74.8  T
   9    -42.7050598 -0.607820E-09  0.134E-04    2.14     149.5  T
     SCC iter.                  ...        0 min,  0.013 sec
     gradient                   ...        0 min,  0.011 sec
 * total energy  :   -42.1699602 Eh     change       -0.1778900E-02 Eh
   gradient norm :     0.0196245 Eh/α   predicted    -0.2148450E-02 (  20.77%)
   displ. norm   :     0.4600333 α      lambda       -0.2747182E-02
   maximum displ.:     0.3323266 α      in ANC's #6, #7, #2, ...

........................................................................
.............................. CYCLE   26 ..............................
........................................................................

 iter      E             dE          RMSdq      gap      omega  full diag
   1    -42.7045153 -0.427045E+02  0.205E-01    2.18       0.0  T
   2    -42.7044954  0.199238E-04  0.128E-01    2.15       1.0  T
   3    -42.7041311  0.364312E-03  0.119E-01    2.21       1.0  T
   4    -42.7045621 -0.431019E-03  0.188E-02    2.16       1.1  T
   5    -42.7045752 -0.131027E-04  0.445E-03    2.17       4.5  T
   6    -42.7045757 -0.456940E-06  0.213E-03    2.17       9.4  T
   7    -42.7045757 -0.100659E-07  0.110E-03    2.17      18.1  T
   8    -42.7045757 -0.267449E-07  0.208E-04    2.17      96.1  T
   9    -42.7045757 -0.476575E-09  0.110E-04    2.17     181.6  T
     SCC iter.                  ...        0 min,  0.013 sec
     gradient                   ...        0 min,  0.011 sec
 * total energy  :   -42.1710890 Eh     change       -0.1128804E-02 Eh
   gradient norm :     0.0187050 Eh/α   predicted    -0.1664285E-02 (  47.44%)
   displ. norm   :     0.1140793 α      lambda       -0.7254484E-03
   maximum displ.:     0.0621225 α      in ANC's #7, #3, #2, ...

........................................................................
.............................. CYCLE   27 ..............................
........................................................................

 iter      E             dE          RMSdq      gap      omega  full diag
   1    -42.7071396 -0.427071E+02  0.883E-02    2.23       0.0  T
   2    -42.7070869  0.526340E-04  0.764E-02    2.18       1.0  T
   3    -42.7071922 -0.105227E-03  0.413E-02    2.22       1.0  T
   4    -42.7072098 -0.176425E-04  0.159E-02    2.21       1.3  T
   5    -42.7072163 -0.648051E-05  0.386E-03    2.21       5.2  T
   6    -42.7072167 -0.418108E-06  0.110E-03    2.21      18.3  T
   7    -42.7072167 -0.203396E-08  0.580E-04    2.21      34.5  T
   8    -42.7072167 -0.460562E-08  0.111E-04    2.21     179.5  T
     SCC iter.                  ...        0 min,  0.011 sec
     gradient                   ...        0 min,  0.011 sec
 * total energy  :   -42.1715559 Eh     change       -0.4669063E-03 Eh
   gradient norm :     0.0087677 Eh/α   predicted    -0.3674440E-03 ( -21.30%)
   displ. norm   :     0.1304902 α      lambda       -0.2740695E-03
   maximum displ.:     0.0985955 α      in ANC's #7, #10, #12, ...

........................................................................
.............................. CYCLE   28 ..............................
........................................................................

 iter      E             dE          RMSdq      gap      omega  full diag
   1    -42.7065382 -0.427065E+02  0.537E-02    2.22       0.0  T
   2    -42.7065403 -0.203413E-05  0.323E-02    2.23       1.0  T
   3    -42.7065309  0.941344E-05  0.269E-02    2.22       1.0  T
   4    -42.7065425 -0.116377E-04  0.962E-03    2.23       2.1  T
   5    -42.7065462 -0.366737E-05  0.154E-03    2.23      12.9  T
   6    -42.7065462 -0.439282E-07  0.692E-04    2.23      28.9  T
   7    -42.7065462 -0.601830E-09  0.361E-04    2.23      55.4  T
     SCC iter.                  ...        0 min,  0.010 sec
     gradient                   ...        0 min,  0.011 sec
 * total energy  :   -42.1717226 Eh     change       -0.1667019E-03 Eh
   gradient norm :     0.0044179 Eh/α   predicted    -0.1393690E-03 ( -16.40%)
   displ. norm   :     0.0790369 α      lambda       -0.7347393E-04
   maximum displ.:     0.0621905 α      in ANC's #7, #3, #10, ...

........................................................................
.............................. CYCLE   29 ..............................
........................................................................

 iter      E             dE          RMSdq      gap      omega  full diag
   1    -42.7068769 -0.427069E+02  0.252E-02    2.25       0.0  T
   2    -42.7068746  0.234793E-05  0.192E-02    2.24       1.0  T
   3    -42.7068760 -0.144789E-05  0.132E-02    2.25       1.5  T
   4    -42.7068798 -0.383452E-05  0.305E-03    2.24       6.6  T
   5    -42.7068801 -0.227510E-06  0.648E-04    2.24      30.9  T
   6    -42.7068801 -0.794862E-08  0.331E-04    2.24      60.4  T
     SCC iter.                  ...        0 min,  0.009 sec
     gradient                   ...        0 min,  0.011 sec
 * total energy  :   -42.1717758 Eh     change       -0.5319469E-04 Eh
   gradient norm :     0.0033148 Eh/α   predicted    -0.3696685E-04 ( -30.51%)
   displ. norm   :     0.0900346 α      lambda       -0.6230186E-04
   maximum displ.:     0.0589177 α      in ANC's #7, #3, #5, ...

........................................................................
.............................. CYCLE   30 ..............................
........................................................................

 iter      E             dE          RMSdq      gap      omega  full diag
   1    -42.7070810 -0.427071E+02  0.266E-02    2.25       0.0  T
   2    -42.7070809  0.124287E-06  0.170E-02    2.25       1.2  T
   3    -42.7070755  0.543522E-05  0.140E-02    2.26       1.4  T
   4    -42.7070819 -0.643349E-05  0.326E-03    2.25       6.1  T
   5    -42.7070822 -0.291632E-06  0.616E-04    2.25      32.5  T
   6    -42.7070822 -0.422128E-08  0.335E-04    2.25      59.7  T
     SCC iter.                  ...        0 min,  0.009 sec
     gradient                   ...        0 min,  0.011 sec
 * total energy  :   -42.1718173 Eh     change       -0.4151066E-04 Eh
   gradient norm :     0.0031273 Eh/α   predicted    -0.3140418E-04 ( -24.35%)
   displ. norm   :     0.0603166 α      lambda       -0.2850368E-04
   maximum displ.:     0.0283798 α      in ANC's #7, #3, #5, ...

   *** GEOMETRY OPTIMIZATION CONVERGED AFTER 30 ITERATIONS ***

------------------------------------------------------------------------
 total energy gain   :       -11.5144363 Eh    -7225.4179 kcal/mol
 total RMSD          :         1.0679005 a0        0.5651 Å
 total power (kW/mol):     -1007.7049484 (step)********** (real)
------------------------------------------------------------------------

 ANCopt (total)                0 d,  0 h,  0 min,  0.915 sec
 optimizer setup                ...        0 min,  0.000 sec (  0.030%)
 model hessian                  ...        0 min,  0.014 sec (  1.514%)
 ANC generation                 ...        0 min,  0.002 sec (  0.216%)
 coordinate transformation      ...        0 min,  0.000 sec (  0.028%)
 single point calculation       ...        0 min,  0.892 sec ( 97.497%)
 optimization log               ...        0 min,  0.003 sec (  0.276%)
 hessian update                 ...        0 min,  0.000 sec (  0.038%)
 rational function              ...        0 min,  0.002 sec (  0.260%)

================
 final structure:
================
25
 xtb: 6.6.1 (8d0f1dd)
C            3.42508210601667        0.90474954398876        0.03654905065726
N            3.55201495661001       -0.48757112183705        0.01505451646451
C            2.67376429275947       -1.38478086983582       -0.00190353450868
N            1.27103899903696       -1.40981801527559       -0.01757161710873
C            0.15809166051560       -0.61862379702839       -0.01139034963556
C           -0.15187499893592        0.77685128421486       -0.01578566218640
C            0.63349264582776        1.88957153977933       -0.03088578914987
O            0.79603351050259        3.05291621307483       -0.03990276853497
N           -1.55119937943084        0.88468192775308       -0.00482783954154
C           -2.34350438592229        2.08369949756143       -0.00180940191822
C           -2.11388002333844       -0.36410463242632        0.00176858662630
O           -3.28027806430859       -0.64894468138071        0.01112522507042
N           -1.04698177582895       -1.26985283562816       -0.00355390733890
C           -1.28607273249133       -2.68868327948602        0.00019926042602
H            3.85713423987473        1.28900033112145        0.96484026001111
H            3.99774253046040        1.32656523264389       -0.79361223165374
H            2.36296917656351        1.25090923829205       -0.03958745798528
H            3.05518379291237       -2.39948434494832       -0.01048990511598
H           -1.70573838916480        2.96370907781777        0.00611312093887
H           -2.98287700070583        2.10321316912446       -0.88710558214242
H           -2.98998909759032        2.09212060839566        0.87836050403638
H           -0.87618974132854       -3.16191499329864        0.89544839332327
H           -0.89062919906984       -3.16383968247556       -0.90054794117688
H           -2.36861284365721       -2.82295425161157        0.00862130963214
H            0.96571123479266       -2.37917661693551       -0.02793462128897

 Bond Distances (Angstroems)
 ---------------------------
C1-N2=1.3983         C1-H15=1.0936        C1-H16=1.0932        C1-H17=1.1197        N2-C1=1.3983         N2-C3=1.2556         
C3-N2=1.2556         C3-N4=1.4030         C3-H18=1.0841        N4-C3=1.4030         N4-C5=1.3655         N4-H25=1.0164        
C5-N4=1.3655         C5-C6=1.4295         C5-N13=1.3698        C6-C5=1.4295         C6-C7=1.3620         C6-N9=1.4035         
C7-C6=1.3620         C7-O8=1.1747         O8-C7=1.1747         N9-C6=1.4035         N9-C10=1.4371        N9-C11=1.3697        
C10-N9=1.4371        C10-H19=1.0868       C10-H20=1.0922       C10-H21=1.0921       C11-N9=1.3697        C11-O12=1.2007       
C11-N13=1.3995       O12-C11=1.2007       N13-C5=1.3698        N13-C11=1.3995       N13-C14=1.4388       C14-N13=1.4388       
C14-H22=1.0924       C14-H23=1.0925       C14-H24=1.0909       H15-C1=1.0936        H16-C1=1.0932        H17-C1=1.1197        
H18-C3=1.0841        H19-C10=1.0868       H20-C10=1.0922       H21-C10=1.0921       H22-C14=1.0924       H23-C14=1.0925       
H24-C14=1.0909       H25-N4=1.0164        
 C  H  Rav=1.0938 sigma=0.0091  Rmin=1.0841  Rmax=1.1197    10
 C  C  Rav=1.3958 sigma=0.0337  Rmin=1.3620  Rmax=1.4295     2
 N  H  Rav=1.0164 sigma=0.0000  Rmin=1.0164  Rmax=1.0164     1
 N  C  Rav=1.3841 sigma=0.0492  Rmin=1.2556  Rmax=1.4388    10
 O  C  Rav=1.1877 sigma=0.0130  Rmin=1.1747  Rmax=1.2007     2

 selected bond angles (degree)
 --------------------
H15-C1-N2=109.09               H16-C1-N2=108.97               H16-C1-H15=107.58              H17-C1-N2=113.14               
H17-C1-H15=108.90              H17-C1-H16=109.03              C3-N2-C1=130.41                N4-C3-N2=135.41                
H18-C3-N2=115.01               H18-C3-N4=109.57               C5-N4-C3=143.56                H25-N4-C3=108.51               
H25-N4-C5=107.93               C6-C5-N4=137.93                N13-C5-N4=116.20               N13-C5-C6=105.86               
C7-C6-C5=132.26                N9-C6-C5=106.93                N9-C6-C7=120.81                O8-C7-C6=152.74                
C10-N9-C6=127.86               C11-N9-C6=109.85               C11-N9-C10=122.29              H19-C10-N9=110.61              
H20-C10-N9=109.63              H20-C10-H19=109.57             H21-C10-N9=109.54              H21-C10-H19=109.59             
H21-C10-H20=107.85             

 selected dihedral angles (degree)
 ---------------------------------
C3-N2-C1-H15=117.02           C3-N2-C1-H16=234.20           C3-N2-C1-H17=355.65           N4-C3-N2-C1=  0.62            
H18-C3-N2-C1=180.36           C5-N4-C3-N2=359.15            C5-N4-C3-H18=179.41           H25-N4-C3-N2=180.05           
H25-N4-C3-H18=  0.31          C6-C5-N4-C3=  1.98            C6-C5-N4-H25=181.08           N13-C5-N4-C3=181.67           
N13-C5-N4-H25=  0.77          C7-C6-C5-N4=  0.12            C7-C6-C5-N13=180.41           N9-C6-C5-N4=179.94            
N9-C6-C5-N13=  0.23           O8-C7-C6-C5=179.93            O8-C7-C6-N9=  0.13            C10-N9-C6-C5=179.88           
C10-N9-C6-C7=359.72           C11-N9-C6-C5=359.81           C11-N9-C6-C7=179.66           H19-C10-N9-C6=359.13          
H19-C10-N9-C11=179.20         H20-C10-N9-C6=120.06          H20-C10-N9-C11=300.13         H21-C10-N9-C6=238.23          
H21-C10-N9-C11= 58.30         
           -------------------------------------------------
          |                Final Singlepoint                |
           -------------------------------------------------

          ...................................................
          :                      SETUP                      :
          :.................................................:
          :  # basis functions                  67          :
          :  # atomic orbitals                  67          :
          :  # shells                           39          :
          :  # electrons                        74          :
          :  max. iterations                   250          :
          :  Hamiltonian                  GFN2-xTB          :
          :  restarted?                      false          :
          :  GBSA solvation                  false          :
          :  PC potential                    false          :
          :  electronic temp.         7500.0000000     K    :
          :  accuracy                    1.0000000          :
          :  -> integral cutoff          0.2500000E+02      :
          :  -> integral neglect         0.1000000E-07      :
          :  -> SCF convergence          0.1000000E-05 Eh   :
          :  -> wf. convergence          0.1000000E-03 e    :
          :  Broyden damping             0.4000000          :
          ...................................................

 iter      E             dE          RMSdq      gap      omega  full diag
   1    -42.7070822 -0.427071E+02  0.153E-04    2.25       0.0  T
   2    -42.7070822 -0.663647E-10  0.143E-04    2.25     139.9  T
   3    -42.7070822 -0.706599E-09  0.347E-05    2.25     576.9  T

   *** convergence criteria satisfied after 3 iterations ***

         #    Occupation            Energy/Eh            Energy/eV
      -------------------------------------------------------------
         1        2.0000           -0.9144028             -24.8822
       ...           ...                  ...                  ...
        31        1.9920           -0.6292383             -17.1224
        32        1.9914           -0.6275534             -17.0766
        33        1.9738           -0.6009602             -16.3530
        34        1.9516           -0.5861163             -15.9490
        35        1.9351           -0.5789653             -15.7544
        36        1.8142           -0.5524465             -15.0328
        37        1.7212           -0.5415673             -14.7368 (HOMO)
        38        0.3184           -0.4588048             -12.4847 (LUMO)
        39        0.3029           -0.4574053             -12.4466
        40        0.0171           -0.3854785             -10.4894
        41        0.0036           -0.3482246              -9.4757
        42        0.0009           -0.3153769              -8.5818
       ...           ...                  ...                  ...
        67                          0.7478213              20.3493
      -------------------------------------------------------------
                  HL-Gap            0.0827625 Eh            2.2521 eV
             Fermi-level           -0.4983311 Eh          -13.5603 eV

 SCC (total)                   0 d,  0 h,  0 min,  0.021 sec
 SCC setup                      ...        0 min,  0.000 sec (  0.847%)
 Dispersion                     ...        0 min,  0.000 sec (  0.847%)
 classical contributions        ...        0 min,  0.000 sec (  0.323%)
 integral evaluation            ...        0 min,  0.004 sec ( 20.673%)
 iterations                     ...        0 min,  0.005 sec ( 22.615%)
 molecular gradient             ...        0 min,  0.011 sec ( 54.084%)
 printout                       ...        0 min,  0.000 sec (  0.552%)

         :::::::::::::::::::::::::::::::::::::::::::::::::::::
         ::                     SUMMARY                     ::
         :::::::::::::::::::::::::::::::::::::::::::::::::::::
         :: total energy             -42.171817327545 Eh    ::
         :: gradient norm              0.003128351482 Eh/a0 ::
         :: HOMO-LUMO gap              2.252081736759 eV    ::
         ::.................................................::
         :: SCC energy               -42.707082203606 Eh    ::
         :: -> isotropic ES            0.125141760019 Eh    ::
         :: -> anisotropic ES         -0.002816850049 Eh    ::
         :: -> anisotropic XC          0.015764817349 Eh    ::
         :: -> dispersion             -0.021664161616 Eh    ::
         :: repulsion energy           0.535081939948 Eh    ::
         :: add. restraining           0.000066702685 Eh    ::
         :: total charge               1.000000000000 e     ::
         :::::::::::::::::::::::::::::::::::::::::::::::::::::

           -------------------------------------------------
          |                Property Printout                |
           -------------------------------------------------

    * Orbital Energies and Occupations

         #    Occupation            Energy/Eh            Energy/eV
      -------------------------------------------------------------
         1        2.0000           -0.9144028             -24.8822
       ...           ...                  ...                  ...
        25        1.9991           -0.6820263             -18.5589
        26        1.9986           -0.6715961             -18.2751
        27        1.9980           -0.6623779             -18.0242
        28        1.9975           -0.6566916             -17.8695
        29        1.9946           -0.6388226             -17.3832
        30        1.9934           -0.6338263             -17.2473
        31        1.9920           -0.6292383             -17.1224
        32        1.9914           -0.6275534             -17.0766
        33        1.9738           -0.6009602             -16.3530
        34        1.9516           -0.5861163             -15.9490
        35        1.9351           -0.5789653             -15.7544
        36        1.8142           -0.5524465             -15.0328
        37        1.7212           -0.5415673             -14.7368 (HOMO)
        38        0.3184           -0.4588048             -12.4847 (LUMO)
        39        0.3029           -0.4574053             -12.4466
        40        0.0171           -0.3854785             -10.4894
        41        0.0036           -0.3482246              -9.4757
        42        0.0009           -0.3153769              -8.5818
        43        0.0000           -0.2126148              -5.7855
        44        0.0000           -0.1930858              -5.2541
        45        0.0000           -0.1212312              -3.2989
        46        0.0000           -0.1147581              -3.1227
        47                         -0.0746680              -2.0318
        48                         -0.0527679              -1.4359
       ...                                ...                  ...
        67                          0.7478213              20.3493
      -------------------------------------------------------------
                  HL-Gap            0.0827625 Eh            2.2521 eV
             Fermi-level           -0.4983311 Eh          -13.5603 eV

     #   Z          covCN         q      C6AA      α(0)
     1   6 C        3.692    -0.041    21.489     6.633
     2   7 N        1.820    -0.122    24.422     7.322
     3   6 C        2.760     0.103    25.697     8.301
     4   7 N        2.688    -0.118    23.583     7.212
     5   6 C        2.900     0.114    25.485     8.277
     6   6 C        3.000     0.008    27.832     8.654
     7   6 C        1.844     0.212    26.148     8.260
     8   8 O        0.856    -0.161    17.445     5.600
     9   7 N        2.802    -0.038    21.973     6.962
    10   6 C        3.690    -0.065    21.934     6.702
    11   6 C        2.826     0.312    21.704     7.634
    12   8 O        0.857    -0.346    20.623     6.089
    13   7 N        2.825    -0.055    22.307     7.015
    14   6 C        3.690    -0.073    22.101     6.728
    15   1 H        0.924     0.115     1.657     2.013
    16   1 H        0.924     0.117     1.639     2.002
    17   1 H        0.921     0.067     2.125     2.280
    18   1 H        0.925     0.105     1.737     2.061
    19   1 H        0.925     0.099     1.793     2.094
    20   1 H        0.924     0.112     1.677     2.025
    21   1 H        0.924     0.113     1.674     2.023
    22   1 H        0.924     0.090     1.877     2.142
    23   1 H        0.924     0.090     1.878     2.143
    24   1 H        0.924     0.131     1.528     1.933
    25   1 H        0.860     0.231     0.962     1.536

 Mol. C6AA /au·bohr⁶  :       6587.629450
 Mol. C8AA /au·bohr⁸  :     151155.334287
 Mol. α(0) /au        :        123.643821


Wiberg/Mayer (AO) data.
largest (>0.10) Wiberg bond orders for each atom

 ---------------------------------------------------------------------------
     #   Z sym  total        # sym  WBO       # sym  WBO       # sym  WBO
 ---------------------------------------------------------------------------
     1   6 C    3.888 --     2 N    1.080    16 H    0.932    15 H    0.930
                            17 H    0.849
     2   7 N    3.022 --     3 C    1.757     1 C    1.080
     3   6 C    3.887 --     2 N    1.757     4 N    1.091    18 H    0.933
     4   7 N    3.442 --     5 C    1.203     3 C    1.091    25 H    0.902
     5   6 C    3.782 --     6 C    1.208     4 N    1.203    13 N    1.201
     6   6 C    3.828 --     7 C    1.324     5 C    1.208     9 N    1.058
     7   6 C    3.504 --     8 O    1.962     6 C    1.324
     8   8 O    2.187 --     7 C    1.962
     9   7 N    3.422 --    11 C    1.131     6 C    1.058    10 C    0.994
                            12 O    0.128
    10   6 C    3.898 --     9 N    0.994    19 H    0.969    21 H    0.949
                            20 H    0.948
    11   6 C    3.932 --    12 O    1.660     9 N    1.131    13 N    1.051
    12   8 O    1.949 --    11 C    1.660     9 N    0.128    13 N    0.109
    13   7 N    3.511 --     5 C    1.201    11 C    1.051    14 C    0.991
                            12 O    0.109
    14   6 C    3.918 --    13 N    0.991    22 H    0.959    23 H    0.958
                            24 H    0.956
    15   1 H    0.966 --     1 C    0.930
    16   1 H    0.965 --     1 C    0.932
    17   1 H    0.963 --     1 C    0.849
    18   1 H    0.976 --     3 C    0.933
    19   1 H    0.984 --    10 C    0.969
    20   1 H    0.965 --    10 C    0.948
    21   1 H    0.966 --    10 C    0.949
    22   1 H    0.981 --    14 C    0.959
    23   1 H    0.981 --    14 C    0.958
    24   1 H    0.979 --    14 C    0.956
    25   1 H    0.945 --     4 N    0.902
 ---------------------------------------------------------------------------

Topologies differ in total number of bonds
Writing topology from bond orders to xtbtopo.mol

molecular dipole:
                 x           y           z       tot (Debye)
 q only:        1.346      -0.923       0.005
   full:        1.240      -1.016       0.002       4.073
molecular quadrupole (traceless):
                xx          xy          yy          xz          yz          zz
 q only:        3.492      -6.083      11.086       0.219       0.209     -14.578
  q+dip:       -2.658      -5.813      13.028       0.235       0.250     -10.370
   full:       -3.203      -6.538      11.947       0.246       0.259      -8.744

           -------------------------------------------------
          |                Geometry Summary                 |
           -------------------------------------------------

      molecular mass/u    :      195.1988581
   center of mass at/Å    :        0.0297774       0.0551061      -0.0040859
  moments of inertia/u·Å² :        0.5145907E+03   0.8830810E+03   0.1388017E+04
rotational constants/cm⁻¹ :        0.3275930E-01   0.1908957E-01   0.1214512E-01

 * 25 selected distances

     #   Z          #   Z                                           value/Å
     1   6 C        2   7 N                                       1.3982600
     2   7 N        3   6 C                                       1.2556263
     3   6 C        4   7 N                                       1.4030363
     4   7 N        5   6 C                                       1.3655324
     5   6 C        6   6 C                                       1.4294928
     6   6 C        7   6 C                                       1.3620488
     7   6 C        8   8 O                                       1.1746795
     6   6 C        9   7 N                                       1.4035158
     9   7 N       10   6 C                                       1.4371499
     9   7 N       11   6 C                                       1.3697158
    11   6 C       12   8 O                                       1.2007106
     5   6 C       13   7 N                                       1.3698040
    11   6 C       13   7 N                                       1.3995286
    13   7 N       14   6 C                                       1.4388394 (max)
     1   6 C       15   1 H                                       1.0936373
     1   6 C       16   1 H                                       1.0931772
     1   6 C       17   1 H                                       1.1196908
     3   6 C       18   1 H                                       1.0840562
    10   6 C       19   1 H                                       1.0868419
    10   6 C       20   1 H                                       1.0922123
    10   6 C       21   1 H                                       1.0921139
    14   6 C       22   1 H                                       1.0924393
    14   6 C       23   1 H                                       1.0924719
    14   6 C       24   1 H                                       1.0908680
     4   7 N       25   1 H                                       1.0163605 (min)

 * 5 distinct bonds (by element types)

   Z      Z             #   av. dist./Å        max./Å        min./Å
   1 H    6 C          10     1.0937509     1.1196908     1.0840562
   6 C    6 C           2     1.3957708     1.4294928     1.3620488
   1 H    7 N           1     1.0163605     1.0163605     1.0163605
   6 C    7 N          10     1.3841009     1.4388394     1.2556263
   6 C    8 O           2     1.1876951     1.2007106     1.1746795


optimized geometry written to: xtbopt.xyz


           -------------------------------------------------
          | TOTAL ENERGY              -42.171817327545 Eh   |
          | GRADIENT NORM               0.003128351482 Eh/α |
          | HOMO-LUMO GAP               2.252081736759 eV   |
           -------------------------------------------------

------------------------------------------------------------------------
 * finished run on 2024/06/05 at 19:58:41.870     
------------------------------------------------------------------------
 total:
 * wall-time:     0 d,  0 h,  0 min,  1.008 sec
 *  cpu-time:     0 d,  0 h,  0 min,  0.984 sec
 * ratio c/w:     0.976 speedup
 SCF:
 * wall-time:     0 d,  0 h,  0 min,  0.040 sec
 *  cpu-time:     0 d,  0 h,  0 min,  0.040 sec
 * ratio c/w:     1.000 speedup
 ANC optimizer:
 * wall-time:     0 d,  0 h,  0 min,  0.939 sec
 *  cpu-time:     0 d,  0 h,  0 min,  0.931 sec
 * ratio c/w:     0.992 speedup

