72
 energy: -99.703474748550 xtb: 6.6.1 (8d0f1dd)
N           -1.51522840280597        2.85256502374982        2.22243087877450
C           -1.58188212511394        2.03726175569060        1.26293749224194
C           -2.77550026461396        1.92036672331162        0.35270098104420
C           -3.31731372808816        0.49965780653947        0.42919450870208
C           -4.26207182741493        0.05567287010341       -0.49884146445103
C           -4.80328365841316       -1.21370793917775       -0.42697218896541
O           -5.73351563373990       -1.72362847287023       -1.28502455145429
C           -6.23446728267113       -0.90490087342528       -2.30943812789402
C           -4.39623343527747       -2.09089439672808        0.60260290146637
O           -4.98745394604972       -3.31998699141084        0.59195253107982
C           -4.66870951583638       -4.22725924205681        1.61498069550033
C           -3.46254055268311       -1.65119698964119        1.52127630005280
C           -2.93419134728041       -0.36882190408835        1.43507739223719
C           -2.27602535900319        2.22512153619936       -1.08433457713708
C           -1.32510405772992        1.17333703529082       -1.67615890756984
C            0.03934993381710        1.30642273662300       -1.12176911015409
N            0.87840348306301        0.25219295469419       -0.82417670719424
C            2.25195395529120        0.49368874497937       -0.51736130511006
C            3.21131537393596        0.23892395539868       -1.70856570649733
C            4.59987399255356        0.04480466984511       -1.19611688003958
C            5.63352263806556        0.94750581587679       -1.33361785277821
C            6.88156196993056        0.68711578906386       -0.77618392392584
C            7.10601545055471       -0.44215305057950        0.00152954874713
O            8.29695020914136       -0.76241294643708        0.59564714175722
C            9.39655764176396        0.10376041325971        0.43034422654372
C            6.01267393513993       -1.31645151744402        0.21474840186430
O            6.09508778129710       -2.32842840895311        1.11943923809308
C            4.89578978433681       -2.96473790823616        1.50632186715753
C            4.82645275981153       -1.09642717931167       -0.44386539032782
C            0.47414531610990       -1.11859337909070       -0.96799674367930
C           -3.93491666835728        2.89428164467257        0.70995267110091
C           -4.50372334424282        2.60537398966437        2.09830449571932
C           -3.53872858718619        4.36774452352126        0.61970743847917
H           -4.58353106505552        0.72067101015958       -1.28354809123397
H           -6.72818162325574       -0.01176585137007       -1.91163669689686
H           -6.96815242486095       -1.51524701341943       -2.83452889880173
H           -5.44920059864550       -0.60384933541700       -3.01168121276735
H           -4.93426865971989       -3.83600793579432        2.60314347647049
H           -5.26342350872008       -5.11619080184506        1.40943256233427
H           -3.60625100299902       -4.49470157233659        1.60571403783479
H           -3.13924200326636       -2.29383924926183        2.32532176491775
H           -2.22808819035594       -0.05145250311161        2.18668534980171
H           -3.14110128277208        2.32658984244725       -1.74145886609451
H           -1.75665603503446        3.18420731537453       -1.07349009866943
H           -1.73260290914145        0.17567599786813       -1.50608857202004
H           -1.30559942196640        1.33298479678593       -2.76697300192287
H           -0.76074798358362        1.37152093350428        0.96534454649311
H            0.48454745142406        2.28275213907804       -1.06993609187205
H            2.53556177479071       -0.17488382365195        0.30508483446659
H            2.37062310310547        1.52218010068847       -0.16978187081134
H            3.16140908091127        1.06617852076727       -2.41313556497365
H            2.88879247140366       -0.67579191155967       -2.21156597645291
H            5.47735294977072        1.85621282312039       -1.89365633640605
H            7.67392092969548        1.40326977962397       -0.93834409151597
H            9.20169729829713        1.09723239967980        0.85122207190970
H            9.68470987637299        0.20923658786746       -0.62189467487080
H           10.22044561245493       -0.35776542582521        0.97573900387759
H            5.25909217019128       -3.60754358213711        2.31239826638938
H            3.96327791151809       -2.30855847879255        1.64361692365316
H            4.50155006054432       -3.61567637376726        0.73652540723576
H            4.03425023534531       -1.81939242464354       -0.35158202498940
H            0.51751346767744       -1.46764251279264       -2.00853735468536
H           -0.54373457989962       -1.25900591689639       -0.60217185377746
H            1.13848132016355       -1.74223829069282       -0.36830604642079
H           -4.73102457170642        2.71258794746585       -0.02319763223415
H           -3.74923096753163        2.80437911956169        2.85231384871244
H           -4.82302337541984        1.56911630863595        2.18194445286761
H           -5.36310385727485        3.24626616184275        2.28354691750523
H           -2.70422753262108        4.56767775759570        1.28392158620867
H           -3.26733060688281        4.65239962064741       -0.39365447712417
H           -4.38090365138065        4.98489271945373        0.92527634709019
H           -0.64056983523661        2.83656772959626        2.74394870611544
