72
 energy: 0.000000000000 xtb: 6.6.1 (8d0f1dd)
N           -1.47310934822924        2.74401318561852        2.22063942287560
C           -1.55658894218425        2.16490305624665        1.13274284460745
C           -2.74549225258129        2.05621251263064        0.23826250649470
C           -3.31377583855761        0.64333417511334        0.32332515650284
C           -4.30230195924506        0.24487112428158       -0.58026167086503
C           -4.85238808050968       -1.02286499940159       -0.53363593669082
O           -5.81420026757557       -1.48606047972767       -1.36157895357670
C           -6.39655692584623       -0.60827005826649       -2.29568495601309
C           -4.39972542350640       -1.94646120241305        0.44396933240983
O           -4.98748357557592       -3.16146026488900        0.41085995818162
C           -4.66362171172287       -4.10093865802695        1.40909140816864
C           -3.42072545213514       -1.54561399150247        1.33436558640148
C           -2.88302826362110       -0.26315802838497        1.27400162590187
C           -2.19303818453636        2.30467021687947       -1.18742988123374
C           -1.26651549989641        1.17243380322503       -1.65249445018642
C            0.01082525039567        1.09745464658138       -0.89354811789923
N            0.61779399208289       -0.02034948241203       -0.57705527866251
C            2.00145228921113       -0.02376006609561       -0.15611401051620
C            2.92554961797610       -0.53865287672537       -1.27700100652360
C            4.35756883501756       -0.43050761225877       -0.83075552032494
C            5.07346182539911        0.73206415878124       -1.03980975472950
C            6.38628045899965        0.84224449235903       -0.60344828301384
C            7.00047329721665       -0.20824758267940        0.05722314949100
O            8.26703733840855       -0.21011315050632        0.52410948507466
C            9.06912311989339        0.92943609656965        0.31863060963839
C            6.27040022445068       -1.40439766990411        0.28033468609137
O            6.94830004375713       -2.38012947787858        0.92752007684741
C            6.31537376337817       -3.61583233633369        1.15217722400438
C            4.96302840674480       -1.49347485723979       -0.16064431849589
C           -0.05511211878686       -1.29906259857679       -0.62085692079872
C           -3.86758072907722        3.07992629005348        0.58498065642721
C           -4.49286201346546        2.77383518785172        1.94313307512182
C           -3.39165211343248        4.52917708609625        0.54797528556046
H           -4.66030069703099        0.94509076131725       -1.31640581036773
H           -6.85037992114187        0.25803164586058       -1.80468862056629
H           -7.17287509152171       -1.18600121846629       -2.79318183475679
H           -5.66836870040540       -0.26952968819383       -3.04040283452035
H           -4.88416765986127       -3.71589494995018        2.40913564538747
H           -5.29223619720187       -4.96637504833431        1.20969248126828
H           -3.61139846644506       -4.39919876145526        1.35529370415983
H           -3.07077825100221       -2.21868786295666        2.10002682176568
H           -2.14562774333496        0.02067850888151        2.01001363031684
H           -3.02188903413801        2.38238034416975       -1.88813562572432
H           -1.65198546223364        3.25146730843841       -1.20556295755141
H           -1.81103391047759        0.23006526775522       -1.62116316669324
H           -0.99335697743926        1.37490224954061       -2.69443281971844
H           -0.67628070635666        1.65183902374723        0.61785732877701
H            0.63525847086258        1.98466388206871       -0.92314029755375
H            2.11132572081740       -0.65949698961381        0.72532619960637
H            2.30680494458141        0.98978260887088        0.11078973822125
H            2.76694224489122        0.06750735773687       -2.17075272340394
H            2.67954606229959       -1.57455642411728       -1.51167757545099
H            4.62170041431221        1.56295626549351       -1.56123593485311
H            6.92357738865082        1.75715832247601       -0.79119604059515
H            8.65159193263071        1.81001840117181        0.81701562739969
H            9.20136256512460        1.14042868409438       -0.74698998879646
H           10.03428931104811        0.69003246578081        0.76064945022918
H            7.05567240429544       -4.23621211097668        1.65347581279537
H            5.43848051513375       -3.50813590722545        1.79970582482858
H            6.02060097762632       -4.09420535105165        0.21253284608183
H            4.40102799328555       -2.40127288651695       -0.00490198294521
H           -0.22071301762289       -1.61775598610935       -1.65116024301020
H           -1.01972267469312       -1.24102728946113       -0.10935207845464
H            0.55899959333766       -2.04486104898380       -0.12333731565713
H           -4.63991918782192        2.95501120214274       -0.18098089750912
H           -3.76095251366987        2.90314731895452        2.73380846416528
H           -4.87457659255110        1.75695657819473        1.97884621460846
H           -5.31925601899505        3.45579242388173        2.12325583951056
H           -2.60025614255587        4.69225089676674        1.27368930043085
H           -3.03987434616939        4.81897697030947       -0.43870979129779
H           -4.22191779840287        5.18069696155015        0.80616701440619
H           -0.59832439338922        2.77744720721660        2.72959009765665
72
 energy: -5.170350623759 xtb: 6.6.1 (8d0f1dd)
N           -1.48797554388495        2.77687391415900        2.23741338742896
C           -1.56220272647705        2.14886283288901        1.15765069290528
C           -2.74834209981046        2.05268746574388        0.25031392897611
C           -3.31751211854344        0.64131876141089        0.33275871429165
C           -4.30202261160984        0.23682226905864       -0.57188799152298
C           -4.84848471271838       -1.03196511930527       -0.52637140476897
O           -5.81277419630654       -1.50091677256796       -1.35911104749360
C           -6.38802566158655       -0.62415558431213       -2.29637444451496
C           -4.39913999607994       -1.95172460694134        0.45187902459421
O           -4.99002971290757       -3.17314904886015        0.41932741237462
C           -4.66379371400485       -4.10748251459432        1.41916522898283
C           -3.42513093458546       -1.54792627718289        1.34490645236000
C           -2.89026563148077       -0.26453146387354        1.28505187325798
C           -2.19975111030471        2.29609386146315       -1.17992710229921
C           -1.26589737268232        1.18139006500474       -1.67411533403029
C            0.00984841968980        1.13027236964450       -0.90503000542289
N            0.64359012347658       -0.02514794513259       -0.57914607761194
C            2.01919181487267       -0.00902886065423       -0.17428502820353
C            2.94736013737472       -0.50329250174955       -1.30101272502898
C            4.37354640176500       -0.41071332366518       -0.85758530011969
C            5.10394792933506        0.74439409639288       -1.05788458629532
C            6.41358035025410        0.83873259746613       -0.61224680471608
C            7.00864417556304       -0.21806196454330        0.05388642018135
O            8.27904772540415       -0.23927139290700        0.53120289957333
C            9.09037777987931        0.88959437338818        0.32475471822924
C            6.26196017324817       -1.39876656797600        0.27599775639173
O            6.92047725209928       -2.38037319876662        0.94276390037850
C            6.24526053781182       -3.58891072392969        1.17616907918647
C            4.96054971498561       -1.47667449832040       -0.17698274555370
C           -0.02454316810034       -1.29815164653819       -0.63615948751976
C           -3.87597144477693        3.06921938963824        0.58870914700005
C           -4.49651943398376        2.76714261575922        1.95056885720300
C           -3.40220426135536        4.52004712365160        0.55214410694444
H           -4.65444367798863        0.93340769683403       -1.31453317606239
H           -6.84264946116657        0.24467597821036       -1.80960955512701
H           -7.16299211524104       -1.20245779406791       -2.79646989772495
H           -5.65605422981215       -0.28625731155125       -3.03787345824846
H           -4.88547137336563       -3.72107513419738        2.41906541212160
H           -5.29017192025136       -4.97538057565547        1.22083486806606
H           -3.61037225538101       -4.40278054556075        1.36817701161442
H           -3.07299359265906       -2.22205092559390        2.10976362888969
H           -2.14886325166945        0.01961392549657        2.01572683618054
H           -3.03218196121885        2.38109596338824       -1.87863944451706
H           -1.65679322603373        3.24234330690911       -1.19600762829929
H           -1.79867995275413        0.23241335705708       -1.62149216722860
H           -1.02868740380018        1.37982272210285       -2.72824171966386
H           -0.68746911252011        1.63652468066410        0.65745093863627
H            0.63767921192140        2.00894648424519       -0.95980622449587
H            2.14033226165685       -0.64326269126907        0.70790028092372
H            2.30544916356503        1.01040856293978        0.09487494931039
H            2.78467154479954        0.11662653112694       -2.18386384439120
H            2.69172965251243       -1.53396688910106       -1.54658720456791
H            4.66307119625929        1.58004219929055       -1.57946797139427
H            6.96460975379836        1.74582372398905       -0.79814551496889
H            8.67930884094896        1.77621381830865        0.81835347981588
H            9.22762731855155        1.09576380971252       -0.74163292541640
H           10.05046709912157        0.64015793909663        0.77195448581705
H            6.96639323478729       -4.22616011084637        1.68984463103140
H            5.33387368216540       -3.43919823932460        1.77677513697883
H            5.94426272418873       -4.05940082964921        0.24077773229301
H            4.38336367761283       -2.37446102012284       -0.01854754324126
H           -0.18523373994234       -1.61676553446211       -1.67055063691446
H           -0.99355041065377       -1.24266006094548       -0.13217106200861
H            0.58939446943686       -2.03990685670297       -0.13315734406461
H           -4.65196732121330        2.94613223308477       -0.17535583678630
H           -3.75651785111112        2.89730597924185        2.73399259595830
H           -4.87212557814996        1.74757852075022        1.98847578920114
H           -5.32535713119607        3.44710556748867        2.13436609686438
H           -2.60573588727278        4.67869293513345        1.27334076930261
H           -3.05094532911469        4.80690902289706       -0.43587984406738
H           -4.23194882484651        5.17351081677242        0.81264559984847
H           -0.60592551164150        2.78075279253303        2.73965577363665
72
 energy: -4.734655527819 xtb: 6.6.1 (8d0f1dd)
N           -1.51170862726235        2.82658550994063        2.25215390004130
C           -1.56548655905620        2.12710182861851        1.18860534261788
C           -2.75229078466594        2.04469553409426        0.26690918574603
C           -3.32030428594643        0.63400906095176        0.34458089706370
C           -4.30063512635913        0.22159348244314       -0.56005574195763
C           -4.84200361624687       -1.04801779783288       -0.51405971455298
O           -5.81025983883790       -1.52560712293833       -1.35448052321488
C           -6.37318335699709       -0.65111760817610       -2.29728802550889
C           -4.39817973419820       -1.96114931776987        0.46542530831207
O           -4.99427355966625       -3.19253928641357        0.43448408058647
C           -4.66392234835614       -4.11823464954611        1.43643430376732
C           -3.43125718036522       -1.55411084760923        1.36254672671583
C           -2.90003030364058       -0.27045080203214        1.30170284020168
C           -2.20986545045957        2.28715233640525       -1.16868216078512
C           -1.26821087154136        1.18984299266808       -1.69381682838684
C            0.00805082864215        1.17817674074961       -0.92201854842369
N            0.68094321067403       -0.02492650715305       -0.58662236621261
C            2.04483900451582        0.02441272778044       -0.20638066919150
C            2.98121166773555       -0.44087528984891       -1.34105367311889
C            4.39800593777955       -0.37415606130990       -0.89725108895918
C            5.15565947330521        0.76503786896416       -1.08780009484657
C            6.46128919885593        0.83218524471505       -0.62836084002482
C            7.02194352992822       -0.23475613316674        0.04758225428943
O            8.29686696373102       -0.28902878871207        0.54219241291610
C            9.12553183013559        0.82097137901884        0.33506255898678
C            6.24683443489496       -1.38852882872933        0.26972106048671
O            6.87178982497622       -2.38126671268879        0.96668000012724
C            6.12459306355112       -3.54264798541512        1.21551714427219
C            4.95362055431150       -1.44624031500417       -0.20220438602869
C            0.02372742109046       -1.29028150176452       -0.66528081115873
C           -3.88572480835486        3.05111737904825        0.59701535417951
C           -4.50144573690277        2.75405398693924        1.96361116251145
C           -3.41853755794373        4.50565704234224        0.55850626713515
H           -4.64570026983224        0.91329210240237       -1.31154187503611
H           -6.83027521428632        0.22174295892447       -1.81831631728585
H           -7.14569634907361       -1.23026956094649       -2.80184394189774
H           -5.63527699397518       -0.31510251600295       -3.03408891725039
H           -4.88817614451911       -3.73053402228113        2.43629999300612
H           -5.28635394828646       -4.99031344863689        1.24001136743557
H           -3.60868644794666       -4.40948023001393        1.39022673920845
H           -3.07741425124693       -2.22848010947572        2.12775455849883
H           -2.15585207508451        0.01605873578444        2.02750039362322
H           -3.04927133794045        2.38149161842404       -1.86213116385086
H           -1.66460206899974        3.23307063004807       -1.18065061660682
H           -1.78078654787348        0.22944419981640       -1.61636914348231
H           -1.08126678281503        1.38436993511014       -2.76357447019225
H           -0.70444228721947        1.60630262108820        0.72108609781318
H            0.64216820442500        2.04163912211647       -1.00723627915728
H            2.18995253356347       -0.61086287953122        0.67545521456326
H            2.30508740308020        1.05076231461071        0.06951451332306
H            2.81570376474948        0.20250515994636       -2.20595696286404
H            2.71060914496210       -1.46285600576413       -1.60875356008581
H            4.73388577768359        1.60845005968300       -1.61090909701232
H            7.03489993149009        1.72618051690912       -0.81032779775304
H            8.72746051602521        1.71862290236005        0.82069142949133
H            9.27318038282912        1.01947195758458       -0.73218837567838
H           10.07705219032623        0.55468649824825        0.79097287427208
H            6.80960383530608       -4.20558633532804        1.75327610698770
H            5.16065374793195       -3.32206652583619        1.74150053532550
H            5.81546416955481       -4.00480396513740        0.28691529088229
H            4.35068149553952       -2.32720228481596       -0.04388254600374
H           -0.12482636164279       -1.61412769332820       -1.70450968320366
H           -0.95262171103223       -1.24594048551949       -0.17391420055344
H            0.63875667701897       -2.02491562653440       -0.15166181066752
H           -4.66665413685151        2.92797444454159       -0.16410248691716
H           -3.75145303217503        2.88805872606270        2.73708031828046
H           -4.86892638064193        1.73097612816603        2.00611350562325
H           -5.33357197910803        3.43070314246936        2.15135604728561
H           -2.61527010377763        4.65892714207131        1.27304071837232
H           -3.07024509901443        4.78887179482376       -0.43198328387932
H           -4.24805365306294        5.15978709181237        0.82327571324908
H           -0.61542499852392        2.77978609965152        2.74098231700995
72
 energy: 0.799164602789 xtb: 6.6.1 (8d0f1dd)
N           -1.53077517931810        2.85716931177677        2.26737963620175
C           -1.57008737835464        2.11402518264563        1.21329292714833
C           -2.75683628721261        2.03616287118575        0.28188764657726
C           -3.32281395026206        0.62525254497937        0.35617571952237
C           -4.29856096125086        0.20587774612909       -0.54982062915707
C           -4.83637758144757       -1.06467444200377       -0.50264146491121
O           -5.80609564054594       -1.54934814586961       -1.34892123596056
C           -6.35837243505963       -0.67820363109495       -2.29836954444384
C           -4.39769127500984       -1.97206105469778        0.47956433073176
O           -4.99699826423885       -3.21033971472737        0.45038553574970
C           -4.66404888355338       -4.12930280484520        1.45454922882537
C           -3.43654257712640       -1.56150685539565        1.38024559824226
C           -2.90806701528429       -0.27739379217238        1.31779358297520
C           -2.22048346938894        2.27919484470155       -1.15789099790932
C           -1.27220969858578        1.19801385751441       -1.71001311747129
C            0.00666225713869        1.22002349915290       -0.94115940611244
N            0.71372839111552       -0.01894847259561       -0.59709834047822
C            2.07103939160819        0.06048521365541       -0.23735949013922
C            3.01214795523823       -0.37595720011585       -1.38220881649842
C            4.42214184441234       -0.33539799898478       -0.93576984599784
C            5.20763780251744        0.78726929845858       -1.11750608625903
C            6.50958408519461        0.82598189724201       -0.64509090236131
C            7.03593667063208       -0.25160371834164        0.04151457794557
O            8.31194835124889       -0.33848168876806        0.55225927882913
C            9.16156659625753        0.75165784174579        0.34538579196178
C            6.23006295756098       -1.37920340560611        0.26409097513264
O            6.81703331204120       -2.38185395480755        0.99032087628515
C            5.99967896349953       -3.49600639143443        1.25385512900260
C            4.94512504083435       -1.41495361955206       -0.22717524574877
C            0.07145107699430       -1.28256952874663       -0.69437785305896
C           -3.89578824715787        3.03373316793382        0.60629449059687
C           -4.50563214704444        2.74031583016615        1.97708911024348
C           -3.43427495339777        4.49101502955983        0.56476381391386
H           -4.63758529897167        0.89308544341195       -1.30864724929595
H           -6.81819565171567        0.19828098628223       -1.82737125969688
H           -7.12799429699360       -1.25863264196815       -2.80704789987895
H           -5.61446769205899       -0.34473504478476       -3.03061998634135
H           -4.89123621644553       -3.74040643707398        2.45399340814448
H           -5.28257061197382       -5.00514775752100        1.25955790804482
H           -3.60719821004123       -4.41665127070107        1.41275210840880
H           -3.08224557450809       -2.23498223230566        2.14679919044514
H           -2.16297284677028        0.01179386691835        2.04079833983351
H           -3.06522349819220        2.38081981340606       -1.84640441862455
H           -1.67375544224264        3.22471147218562       -1.16635126443192
H           -1.76557818657365        0.22771155422243       -1.61003519950856
H           -1.12693611123448        1.38753606487721       -2.79178932813807
H           -0.71889679160400        1.57776748567402        0.77705104107536
H            0.64357566441067        2.07440372315163       -1.04923622241355
H            2.23892884255518       -0.57630096479061        0.64230612459455
H            2.30734682200187        1.09259611568536        0.04410493302052
H            2.84751808752926        0.29017489245744       -2.23009251671550
H            2.72938077702358       -1.38941005718619       -1.67206957550462
H            4.80661342349444        1.63843708293543       -1.64365472597687
H            7.10619618173833        1.70606929945610       -0.82376927029499
H            8.77718055278674        1.66025882348508        0.82315871069254
H            9.32018472270391        0.94197746017047       -0.72245448402961
H           10.10397647172639        0.46749274765839        0.81030200852630
H            6.64774562405599       -4.18162468307253        1.81760410441935
H            4.99585593969306       -3.20751348701482        1.71401902097729
H            5.68541348501551       -3.95428146751376        0.33158103182387
H            4.31678323291513       -2.27901584056520       -0.07025160335729
H           -0.06280563302404       -1.60962467521440       -1.73796976317439
H           -0.91232227074963       -1.24980588828357       -0.21612921065889
H            0.68858444863976       -2.00945024180857       -0.17105131292850
H           -4.68019056385993        2.90841376152247       -0.15222696860090
H           -3.74797620783576        2.87898852512767        2.74252646402726
H           -4.86568613159670        1.71428725016756        2.02401075729850
H           -5.34086042271909        3.41358923943169        2.16768430394473
H           -2.62508289855699        4.64164225021264        1.27303334291452
H           -3.09027536089827        4.77150373611493       -0.42822570694056
H           -4.26382591504505        5.14482495861412        0.83363441740486
H           -0.62359239784982        2.78213619161871        2.74152200999645
72
 energy: 7.574134997517 xtb: 6.6.1 (8d0f1dd)
N           -1.54528751152052        2.86994659811672        2.28274418591295
C           -1.57471136134012        2.10726307843264        1.23079297504292
C           -2.76157517411496        2.02704888990981        0.29436316721570
C           -3.32437341523894        0.61511751016416        0.36676155267721
C           -4.29578562034573        0.19000854432323       -0.54111281701732
C           -4.83128996361163       -1.08123654026929       -0.49212744555014
O           -5.80084437900152       -1.57166590159308       -1.34278380911529
C           -6.34395028358486       -0.70465783650270       -2.29956171887038
C           -4.39731243902358       -1.98362162632249        0.49379478703703
O           -4.99852703320479       -3.22645043865871        0.46648795856647
C           -4.66418832593358       -4.14027620447297        1.47287108531027
C           -3.44093962241754       -1.56960557689112        1.39746582459684
C           -2.91431932266005       -0.28520062128920        1.33291355497564
C           -2.23094171962961        2.27293201221891       -1.14842683236204
C           -1.27779248006779        1.20509028319333       -1.72196727478956
C            0.00490024433800        1.25710865168821       -0.96127971157304
N            0.74249626468745       -0.00980045451708       -0.60842057745961
C            2.09670601392173        0.09833509463286       -0.26721390920868
C            3.04015839397368       -0.31071737252860       -1.42266704988162
C            4.44503363194539       -0.29580042574923       -0.97195406101446
C            5.25834401788993        0.80941540912797       -1.14598021116560
C            6.55664704532628        0.81900538406295       -0.66165925407504
C            7.04914654148412       -0.26865954599321        0.03573260069390
O            8.32366465532261       -0.38652885198105        0.56107343626674
C            9.19656420933314        0.68320005048003        0.35534723982158
C            6.21134611904747       -1.37047473584246        0.25933679717440
O            6.75719288989947       -2.38193404057331        1.01296778293479
C            5.87555676329305       -3.44911631019199        1.29071773512914
C            4.93500258734693       -1.38317088116210       -0.25130158673005
C            0.11742712200946       -1.27509237238864       -0.72279868723081
C           -3.90519107288768        3.01730689298083        0.61607190982629
C           -4.50904555199158        2.72642917192580        1.99046873738526
C           -3.44912526152106        4.47682988820480        0.57067850974280
H           -4.63019053470637        0.87325743408900       -1.30582656969098
H           -6.80678182430990        0.17499431129339       -1.83654150110894
H           -7.11037885288057       -1.28686700496355       -2.81178102477597
H           -5.59431888211103       -0.37424194337245       -3.02761263825792
H           -4.89464493992712       -3.75036512491971        2.47162492596541
H           -5.27908658900753       -5.01929112801474        1.27872779501634
H           -3.60599044118478       -4.42414123314062        1.43510583375004
H           -3.08734589650144       -2.24134095496983        2.16626434023111
H           -2.17012486894980        0.00687265843007        2.05515454378444
H           -3.07994238368670        2.37930449908414       -1.83219430588813
H           -1.68387299672213        3.21841300915686       -1.15356427620658
H           -1.75309019337707        0.22636267907638       -1.60339521877929
H           -1.16500811812473        1.38937703973410       -2.81157366967773
H           -0.73020341165130        1.55410393475092        0.82286446911948
H            0.64186747372409        2.10613516017038       -1.08475245997571
H            2.28561820773107       -0.54029886198678        0.60884793152597
H            2.31141489990519        1.13479581875187        0.01944181478175
H            2.87925538027537        0.37698465858384       -2.25419233786238
H            2.74753490772031       -1.31561574820483       -1.73469829162188
H            4.87920501561621        1.66816710100132       -1.67607312689733
H            7.17596233448411        1.68467275943489       -0.83758002403358
H            8.82688878040232        1.60247677360885        0.82570465227481
H            9.36679260376552        0.86519479741582       -0.71267647587803
H           10.12936510537702        0.38065213181364        0.82927741917112
H            6.48967634025794       -4.15238686500598        1.87769343393799
H            4.84393394581677       -3.10015236612628        1.69449734743704
H            5.55649135585548       -3.90745324699012        0.37595084241182
H            4.28275567070009       -2.23063751725345       -0.09764370549767
H           -0.00113485330003       -1.60360409936312       -1.77025750158219
H           -0.87334997087430       -1.25440765915547       -0.25763496327379
H            0.73755841394541       -1.99362807615193       -0.19065837524634
H           -4.69217798792549        2.88840520717057       -0.13991813726190
H           -3.74612408374019        2.87035635455797        2.74982911649192
H           -4.86249576699598        1.69800567071996        2.04168498456598
H           -5.34711092878430        3.39632169497028        2.18297122069855
H           -2.63495332815713        4.62726081439791        1.27316861371701
H           -3.11035267201683        4.75542367791208       -0.42476682986951
H           -4.27890415635839        5.12946287902923        0.84347726085941
H           -0.62982391912263        2.78569481400066        2.74220652583739
72
 energy: 14.487350134626 xtb: 6.6.1 (8d0f1dd)
N           -1.55588862130259        2.87422679156695        2.29601480120438
C           -1.57927128540281        2.10165512660505        1.24392469655407
C           -2.76615808346168        2.01727386520450        0.30502295817627
C           -3.32522170291744        0.60401551780747        0.37660811375931
C           -4.29247025590929        0.17402802437901       -0.53344645135723
C           -4.82647236364624       -1.09767117893238       -0.48227013412302
O           -5.79487058949874       -1.59292940801135       -1.33626272245266
C           -6.32982442682037       -0.73060223942322       -2.30080908206898
C           -4.39689368395622       -1.99552723846522        0.50796244667636
O           -4.99924145871622       -3.24132025711185        0.48263189481174
C           -4.66437857219321       -4.15113634179644        1.49121988075790
C           -3.44471093389657       -1.57810260824085        1.41424222353921
C           -2.91933155725489       -0.29353825919301        1.34735363584735
C           -2.24106927663033        2.26758063459691       -1.13997202849067
C           -1.28409283165076        1.21100806366364       -1.73053779067688
C            0.00291272029943        1.29057774923081       -0.98139090733469
N            0.76852707735800        0.00156916268959       -0.61999118842469
C            2.12142997269623        0.13759502925966       -0.29659171885826
C            3.06611522806208       -0.24524870904489       -1.46214235508691
C            4.46678523214818       -0.25576306543473       -1.00611288684607