72
 energy: -103.305454735453 gnorm: 0.120134162047 xtb: 6.6.1 (8d0f1dd)
N           -1.57738373788628        2.86913545097286        2.31018011014166
C           -1.60011995812321        2.13536167971461        1.27499718620169
C           -2.75014555323837        2.05647814411702        0.31976742633333
C           -3.34313792140062        0.66696737600377        0.34679860496551
C           -4.32664395911703        0.25117516873582       -0.55430329483875
C           -4.85982461665526       -1.02294729658566       -0.51191452147398
O           -5.81427074967572       -1.51933145690368       -1.37157432301022
C           -6.35579529123010       -0.64667128193831       -2.32442510446867
C           -4.41516871974296       -1.93172442774011        0.46008281038469
O           -5.00414535051031       -3.17569217986745        0.42723456533551
C           -4.65404243752265       -4.08029092026187        1.44275943490870
C           -3.45795866962178       -1.51886003282543        1.36442989203098
C           -2.92851245092147       -0.23653356898227        1.30379925141579
C           -2.19075915986176        2.29182270241355       -1.11561079780245
C           -1.26059485808219        1.19126342767462       -1.69832964528487
C            0.01890190233075        1.16214414337011       -0.95071230795877
N            0.66294668401636       -0.08312836278519       -0.58628524024430
C            2.02620450489285       -0.08275270550948       -0.20757492721978
C            2.97423729285592       -0.56137632010040       -1.32610450129945
C            4.38188733472437       -0.44489288712004       -0.87900927207109
C            5.10239981134682        0.72394338544201       -1.07032147738716
C            6.41319755798134        0.84572702167478       -0.59002835560190
C            7.02163051659072       -0.20442940137395        0.08277977328077
O            8.29596650322804       -0.20734749084233        0.55555503434900
C            9.06550088796453        0.95218771374642        0.35216434624655
C            6.30373582691760       -1.39489509086165        0.27267641745381
O            6.95320561121530       -2.38476101688588        0.96612154854864
C            6.27981571024149       -3.59885003869917        1.16023274130642
C            4.99336292036710       -1.49905281021938       -0.20136968854316
C           -0.05212702846667       -1.32988341670378       -0.63275973394016
C           -3.86220671812150        3.10148472770777        0.57742684826050
C           -4.52934055216500        2.81736654511248        1.92431437956530
C           -3.27837815405042        4.48130002363252        0.57031984872110
H           -4.62667008053588        0.91993746870862       -1.34415292226882
H           -6.80897108353136        0.23020624112241       -1.85222735766199
H           -7.12579215602046       -1.21792737583327       -2.84379869211715
H           -5.60722919920116       -0.30930949391846       -3.04467182185110
H           -4.87767156760401       -3.67959893112955        2.43545918128817
H           -5.26872670144695       -4.97074986158584        1.25068064394907
H           -3.59634717256460       -4.35967621851809        1.38720238146606
H           -3.10874393813566       -2.18202787316207        2.14701411654167
H           -2.20339735205833        0.07241979658878        2.03549525058345
H           -3.06279995240443        2.42168225068925       -1.81673307964803
H           -1.62687215438210        3.22351176390820       -1.10853439931775
H           -1.77994806631855        0.24476566558161       -1.65521434394983
H           -1.04036147386082        1.39017670268127       -2.75180175495918
H           -0.70741663313413        1.60589448478562        0.78611018626969
H            0.68538870092418        1.99079677662480       -1.07457190673519
H            2.18366776262313       -0.70337905059165        0.69346399957221
H            2.28839045014160        0.93883617128528        0.04954850094586
H            2.78563991978254        0.05582775842779       -2.23614605124799
H            2.71870708892243       -1.59662645361200       -1.57879068050983
H            4.65776242784220        1.55736637313777       -1.58794231366400
H            6.92977837576806        1.76733800372209       -0.76430451381583
H            8.62290144422068        1.82777200926189        0.83518214474919
H            9.18337229638535        1.15782625342523       -0.72080710926659
H           10.04231097608318        0.73642246679011        0.78196376492730
H            7.01083699942606       -4.24710385058311        1.66630193031622
H            5.39977283453595       -3.48213449890419        1.78551534593705
H            5.99550604493907       -4.06692036835152        0.20952526904041
H            4.42734762654362       -2.39558332714653       -0.05646871685571
H           -0.22730377448641       -1.66035137649732       -1.65063562147237
H           -1.02150569084517       -1.20399197604423       -0.13930285741448
H            0.54341742905805       -2.07930497461280       -0.10651019822430
H           -4.64249422186678        3.03341283189486       -0.22977913014613
H           -3.72832282793712        2.89124108797835        2.68681982534887
H           -4.93995197575368        1.80360135415740        1.96310057893002
H           -5.29839652765733        3.54410000371726        2.16240237262205
H           -2.53673099911696        4.56351425467761        1.28367008447187
H           -2.91813498511545        4.74664591065310       -0.41497658865517
H           -4.06502074893909        5.22122411632894        0.84469776837603
H           -0.72869832232561        2.75785484987171        2.86316171760901
72
 energy: -103.313662063864 gnorm: 0.038665062663 xtb: 6.6.1 (8d0f1dd)
N           -1.58193057629872        2.82892481456870        2.30468108005543
C           -1.59298141784789        2.14420127009863        1.24317242205434
C           -2.75370330647679        2.05492204139229        0.28945457854748
C           -3.34397609613658        0.65974698544921        0.34751446599572
C           -4.31657427179414        0.24596327893271       -0.56456462293690
C           -4.85487694369965       -1.02588400209706       -0.51753534364224
O           -5.81070723578485       -1.51319668966775       -1.36995812303901
C           -6.35525552600574       -0.64213182174334       -2.32412307761094
C           -4.41821361093447       -1.93440375894760        0.46574910302204
O           -5.00195375420093       -3.17296024936277        0.43089784103930
C           -4.65480740901771       -4.08387264875541        1.44110749142610
C           -3.46047022276115       -1.52467195253797        1.37222129149256
C           -2.93433892964256       -0.24160633968413        1.31270506078573
C           -2.18386502967828        2.30014103198253       -1.13556766423637
C           -1.26097534281982        1.18645490514891       -1.67949376788469
C            0.02441379189433        1.13996662041538       -0.93312669840342
N            0.65473148061270       -0.07141691238252       -0.58740160203544
C            2.02652209461071       -0.06911190949394       -0.21028513947759
C            2.97222410920457       -0.56104108404975       -1.33014903475876
C            4.38991500624738       -0.44555476523944       -0.88304935800574
C            5.10666473890549        0.72350437305457       -1.06721781867401
C            6.40971141178154        0.84299103720090       -0.59543285728748
C            7.01817717652687       -0.20599127119116        0.07443722765464
O            8.29234882498836       -0.20252528041238        0.55568507142112
C            9.06629082747589        0.95232891945649        0.34852391090796
C            6.29332801440521       -1.39549054433655        0.27786452584169
O            6.94969283476564       -2.38347224634722        0.95963416672853
C            6.28476529559618       -3.60225461404351        1.15912930721736
C            4.99486390027397       -1.49817440706231       -0.19858372236116
C           -0.05557631879480       -1.32074472720592       -0.63306178409608
C           -3.86446440923537        3.09876889446184        0.58198625485253
C           -4.52128867717216        2.81493427407815        1.93174900099254
C           -3.29993853358207        4.50486056312353        0.56825785908741
H           -4.63678741666074        0.92675760857126       -1.33677467112779
H           -6.81329056353848        0.23403912415242       -1.85315147150180
H           -7.12353035425332       -1.21550385888977       -2.84208136710663
H           -5.60484552453959       -0.30993952352941       -3.04869072345448
H           -4.87929696880198       -3.68622311000960        2.43539041673459
H           -5.26621927264131       -4.96935383441511        1.25546809651544
H           -3.59632271922698       -4.36114791734872        1.38891065199035
H           -3.10788714412242       -2.18961193156277        2.14611802004598
H           -2.20125449817668        0.06143984850760        2.04239711306152
H           -3.03947317532209        2.42630343937483       -1.81890393492080
H           -1.62134828410123        3.23213720619943       -1.12557405312347
H           -1.78447353839035        0.23567493508664       -1.64329690268001
H           -1.06351155892747        1.40933743163109       -2.73832075280856
H           -0.71177825615842        1.59094169962047        0.80910864906392
H            0.69837289596308        1.96880236956004       -1.06445604726011
H            2.17965743455455       -0.70110509581018        0.67908800412607
H            2.30445043355193        0.95057309420064        0.05729852952804
H            2.79063295058455        0.05313228148399       -2.22404014849814
H            2.72071678805581       -1.59515589646322       -1.58039053115386
H            4.66023702795555        1.55680100419943       -1.58714082654529
H            6.93081151524014        1.76880199145632       -0.76501000210713
H            8.62657390655042        1.82688499501184        0.83759292145363
H            9.18832833939496        1.16076598415716       -0.72147009790189
H           10.04011009291662        0.73843450544901        0.78520352586394
H            7.00670003054758       -4.24677623012139        1.66666537242452
H            5.39984325437616       -3.48343672971438        1.78802481019110
H            5.99743509600776       -4.06863012619611        0.20980655830383
H            4.42881726926177       -2.40167625484685       -0.05425571131218
H           -0.22623815835343       -1.66218717928092       -1.65639399274277
H           -1.02388112566669       -1.21743097852609       -0.13511566954738
H            0.53401273485992       -2.07251755537337       -0.10819016296447
H           -4.62924759552657        3.01751791362482       -0.21398077797193
H           -3.74893516920782        2.88923240384668        2.70091541254861
H           -4.94414475280788        1.81202848570635        1.96084493560862
H           -5.30001845593410        3.53935601668319        2.14981179600172
H           -2.51983219674358        4.58469808178491        1.29619795130307
H           -2.92984579033838        4.76929115898007       -0.41699594377570
H           -4.07996677845970        5.22866879467094        0.83532960381284
H           -0.71259241709290        2.76649783296733        2.83610340672202
72
 energy: -103.314294158117 gnorm: 0.024946754374 xtb: 6.6.1 (8d0f1dd)
N           -1.58440287166726        2.84490534615218        2.30709426173609
C           -1.59882866810624        2.14788595745713        1.25795632583515
C           -2.75748482672571        2.05327137701532        0.29281571245367
C           -3.34932682550608        0.65959722453847        0.35145061084831
C           -4.31992718348642        0.24851194830342       -0.56405815940196
C           -4.85958119326014       -1.02367630367713       -0.51686318257533
O           -5.80924244378047       -1.51315447169117       -1.36822654412091
C           -6.35720606379023       -0.64540202034503       -2.32412577489019
C           -4.41693462974502       -1.93401402696950        0.46512176095321
O           -4.99914893231637       -3.16833321471180        0.43004587369799
C           -4.65543712679311       -4.08198143813560        1.43825277321828
C           -3.45718111094553       -1.52327017123601        1.37077398200991
C           -2.93379163901611       -0.23967156385965        1.31243680230148
C           -2.19002140894827        2.28809837723318       -1.13284007331540
C           -1.25911472719185        1.18960434416439       -1.69223654994821
C            0.02981307895887        1.13147743015736       -0.94818455095930
N            0.64951144861629       -0.06322713829773       -0.59697414347103
C            2.02333808395090       -0.07092445555344       -0.21029638829610
C            2.96843260804457       -0.56091729585634       -1.33473443401402
C            4.39104007571562       -0.44313317077369       -0.88276241000853
C            5.10722977764709        0.72502968646466       -1.06423757995881
C            6.40608359025452        0.84338457097756       -0.59174766839206
C            7.01628710074245       -0.20532827813650        0.07598785584458
O            8.29190227132379       -0.20156104023929        0.55893315346825
C            9.06586784814875        0.95096709487134        0.34721092857412
C            6.29037165950299       -1.39779291969236        0.27748245918014
O            6.94935074654726       -2.38191766129996        0.95732853001812
C            6.28716401869269       -3.60233601945527        1.15927740962222
C            4.99654760727792       -1.49646545381532       -0.19950974498312
C           -0.05305801746693       -1.31614033726309       -0.63145015626619
C           -3.87677900749525        3.09149283692288        0.57710005560230
C           -4.51735054441281        2.81259712222463        1.93347332395442
C           -3.29581989046572        4.49554697502725        0.56462933658814
H           -4.62956105478203        0.92420077733148       -1.34353806411944
H           -6.81521729642853        0.22992540460376       -1.85217794704720
H           -7.12403969484153       -1.21992252802855       -2.84283399770540
H           -5.60555724971751       -0.31124505407130       -3.04757244356925
H           -4.87773421941273       -3.68129056268629        2.43317551434060
H           -5.26637791511143       -4.96451108302179        1.25405052591065
H           -3.59657910381176       -4.35879736121231        1.38711159131177
H           -3.10815771426165       -2.18384880225385        2.14625791617794
H           -2.20126334311851        0.06809223012345        2.04160330228344
H           -3.04379952742539        2.41526957695329       -1.80237209199164
H           -1.63020959701231        3.22108414515977       -1.10908640864746
H           -1.77938324031894        0.23556523529425       -1.66168513279599
H           -1.05442861593458        1.40623569059193       -2.75539096716045
H           -0.71805162205894        1.63245458727057        0.81322287985469
H            0.69093914275361        1.97758631971283       -1.07722413656827
H            2.17263399949993       -0.70020329773677        0.68118125324915
H            2.30115615538987        0.94894304837704        0.05446128437325
H            2.78941596842723        0.04858199299984       -2.22395165644670
H            2.72163420061030       -1.59631010605906       -1.57741626799626
H            4.65877113161562        1.55738357491484       -1.58684481298393
H            6.93253112053397        1.76907992184740       -0.76158395427739
H            8.62650160346007        1.82619786825574        0.83776654632467
H            9.18326393347965        1.15849560218277       -0.72179225771583
H           10.04114126168950        0.73802345610967        0.78171437072860
H            7.00537018525429       -4.24485495112390        1.66656647157622
H            5.39833358026114       -3.48108287273123        1.78839172271276
H            5.99644804031785       -4.06617176047900        0.21031475097177
H            4.42795087846335       -2.40125810938816       -0.05418448622257
H           -0.22476589849277       -1.66564076556189       -1.65572439277308
H           -1.02126124533798       -1.21019343089231       -0.13621165913491
H            0.53528716444882       -2.06995943494702       -0.10575800822562
H           -4.63443621462688        3.02678888724912       -0.21676393225664
H           -3.73552759249370        2.88766324307544        2.68084772964649
H           -4.94288108462172        1.81230977071736        1.96533219897172
H           -5.29319840037248        3.54079982136330        2.15985039504375
H           -2.50101438062786        4.55242025959941        1.30122057343688
H           -2.90466808579300        4.74642646687382       -0.41742525773671
H           -4.05650718743692        5.22019163238377        0.83690894391539
H           -0.73933093623629        2.76907306634334        2.87169814070769
72
 energy: -103.314996004949 gnorm: 0.014082517063 xtb: 6.6.1 (8d0f1dd)
N           -1.55970733596102        2.84221421404699        2.30191735316686
C           -1.59065627319649        2.13525004755937        1.25875946202024
C           -2.75415040170595        2.05605924781956        0.29900457320808
C           -3.34697160332713        0.66186815660334        0.35010891951444
C           -4.32278551148644        0.25061591649979       -0.56051949847393
C           -4.86135314113352       -1.02305899048741       -0.51584540835967
O           -5.80982779653341       -1.51346964252226       -1.36824787833740
C           -6.35618063079665       -0.64417487187819       -2.32399959280235
C           -4.41671168057954       -1.93490159915790        0.46359332490061
O           -4.99971794262531       -3.16957190227293        0.43002074834303
C           -4.65631655204540       -4.08321517014804        1.43911546727469
C           -3.45646949714577       -1.52221448325411        1.36785942807526
C           -2.93008961299346       -0.23917037812691        1.30744081293122
C           -2.19155339320903        2.29405665326067       -1.12976035859740
C           -1.26039285664603        1.19248825866327       -1.68598939196315
C            0.03039334482333        1.13302502281414       -0.94430022655423
N            0.65027240204690       -0.06664868679019       -0.59068567759580
C            2.02508392510075       -0.07789456012090       -0.20595828169607
C            2.96791475029805       -0.56038672309709       -1.33503275239054
C            4.39001359545848       -0.44314974874102       -0.88245596815459
C            5.10756747906095        0.72396869202150       -1.06712645000567
C            6.40787145956297        0.84244716102454       -0.59315613289994
C            7.01884887999064       -0.20566165254822        0.07609477444862
O            8.29474282817605       -0.20289541530646        0.55830156159313
C            9.06669493306797        0.95113318269801        0.34880778614301
C            6.29391605189343       -1.39960099182130        0.27517031581862
O            6.95115407273321       -2.38226306315341        0.95895231561625
C            6.28765117811046       -3.60257380993176        1.15942363642398
C            4.99794098163767       -1.49699554250426       -0.20117371429491
C           -0.05077415126203       -1.32053147026186       -0.62889716490007
C           -3.87456651347576        3.09530592571117        0.57734462566460
C           -4.52201952131820        2.81406585261407        1.93051538511630
C           -3.31041672224575        4.50505841862311        0.56303110773762
H           -4.63091901903310        0.92423567737163       -1.34172381902405
H           -6.80988843813978        0.23267112443288       -1.85159780311928
H           -7.12498135364889       -1.21585196710534       -2.84296055672144
H           -5.60454001297062       -0.30981716830002       -3.04660820042273
H           -4.87856484313124       -3.68250512906070        2.43461263063157
H           -5.26657975398775       -4.96728659526220        1.25285125212488
H           -3.59714863366998       -4.35985343601705        1.38834980132445
H           -3.10841297669664       -2.18263936773092        2.14487385551299
H           -2.20006604067527        0.06971365217180        2.03769647373313
H           -3.04378614513673        2.42233500296105       -1.80891113325214
H           -1.62574026824271        3.22463072389187       -1.10985895293007
H           -1.78315124564516        0.24092455663075       -1.64887605864483
H           -1.04830567097779        1.39573515242851       -2.74938519360302
H           -0.72140591591161        1.60044713092406        0.80835665716827
H            0.68608140094376        1.98464633331815       -1.06883657910097
H            2.17951251240763       -0.70484736169650        0.68654644084270
H            2.29805559689064        0.94263753952333        0.05572127489773
H            2.78774018253466        0.05215978754050       -2.22506144003468
H            2.72130782068035       -1.59581688739526       -1.57821385618417
H            4.65796334330946        1.55636598937618       -1.58871719996640
H            6.93423144021275        1.76721481352014       -0.76455742052216
H            8.62485132360211        1.82677437723105        0.83714740780278
H            9.18567943641379        1.15880602111342       -0.72002415022029
H           10.04183364452846        0.73833312308292        0.78414407583457
H            7.00733401705381       -4.24535426963137        1.66625069566725
H            5.39852616251127       -3.48211773945361        1.78739540141862
H            5.99703759339844       -4.06649414059801        0.21016333843097
H            4.42796924302816       -2.39988580608678       -0.05474915140519
H           -0.22548077442686       -1.66220997187340       -1.65431757861494
H           -1.02003185751354       -1.21227264296350       -0.13558962747698
H            0.53959080476251       -2.07778709729952       -0.10869681095281
H           -4.63314294337670        3.02749291838581       -0.21880318673704
H           -3.74256374747010        2.89328903294870        2.68391744563765
H           -4.94165721687683        1.80967131972132        1.96096396768500
H           -5.30261864791350        3.53934145273601        2.15423257006766
H           -2.52323505464998        4.57691140859349        1.29618224184306
H           -2.92447970924900        4.75960400059312       -0.41835636938969
H           -4.08030614197467        5.22023975240867        0.83791874760122
H           -0.71038290499934        2.76200641137515        2.85746974059557
72
 energy: -103.315135883039 gnorm: 0.012662452548 xtb: 6.6.1 (8d0f1dd)
N           -1.58426887550481        2.84007754234622        2.30277015198688
C           -1.59395868603748        2.14088879915858        1.25199208910207
C           -2.75332634017813        2.05407306625240        0.29330863738122
C           -3.34327305448255        0.65823939360723        0.34695177201044
C           -4.31962100467925        0.24610448272994       -0.56253191067708
C           -4.85891905746324       -1.02699466694178       -0.51800981113920
O           -5.80997534009459       -1.51571281718433       -1.36973233378297
C           -6.35648054967114       -0.64503233838178       -2.32451880657786
C           -4.41861806616599       -1.93766265145270        0.46415847421975
O           -5.00166279861497       -3.17323903231618        0.43075857463840
C           -4.65591470138755       -4.08518318720590        1.44097496943866
C           -3.46072174507093       -1.52466404979492        1.37018500068837
C           -2.93231783757633       -0.24210589355712        1.30888419180190
C           -2.18948475641950        2.29922863734400       -1.13451102972565
C           -1.26214958190470        1.19210675238775       -1.68406806262250
C            0.02886986805460        1.13666075331909       -0.94195239373100
N            0.65044285360601       -0.06710740806618       -0.58907644429763
C            2.02602984444878       -0.07390248104228       -0.20842546435439
C            2.96881961785996       -0.56034862740810       -1.33434296990520
C            4.38884394419327       -0.44365166357274       -0.88152159224385
C            5.10638402284720        0.72385504500506       -1.06735709919875
C            6.40788758773177        0.84307622920656       -0.59316183423541
C            7.01858229339694       -0.20489207057067        0.07673712787349
O            8.29461210190444       -0.20295262780487        0.55688175856144
C            9.06626967724476        0.95163151612981        0.34819617784266
C            6.29374807509921       -1.39850946008551        0.27747750632087
O            6.95020835103000       -2.38216961063800        0.96129105940679
C            6.28576130140548       -3.60254149655080        1.15974897139864
C            4.99634289191890       -1.49691106697780       -0.19878683334828
C           -0.05351726189272       -1.32003806629729       -0.63037280842543
C           -3.86699056701615        3.09580659889321        0.58023097669497
C           -4.51817535200264        2.81452018438731        1.93293531501757
C           -3.29596164133038        4.50167335590210        0.56697108325081
H           -4.63387692600306        0.92280892158534       -1.33910370778874
H           -6.81193053630874        0.23133896666667       -1.85265896259538
H           -7.12468998912246       -1.21737418312917       -2.84323058461929
H           -5.60603283633110       -0.31017056951945       -3.04774684710289
H           -4.87836522610006       -3.68484013412126        2.43636470897950
H           -5.26617132907607       -4.97054546440993        1.25516705564696
H           -3.59646241333213       -4.36117407152783        1.38911247231279
H           -3.11080851617041       -2.18772100045449        2.14594456008104
H           -2.20349437256707        0.06427628138187        2.04096906186487
H           -3.04244609593118        2.42378744091148       -1.81957863261011
H           -1.62332148366293        3.23059207220618       -1.12277663515567
H           -1.78420888154876        0.23990526778927       -1.64739090376956
H           -1.05552373255584        1.40298304300342       -2.74536323535690
H           -0.71567612620976        1.60298990378143        0.81031430916436
H            0.69006796870432        1.98136433001759       -1.06947086067420
H            2.18103667209425       -0.70035358180963        0.68322570888437
H            2.29869060228491        0.94747991105332        0.05227129306637
H            2.79019408707260        0.05338318422904       -2.22643739633225
H            2.72091048094999       -1.59555640824958       -1.57897348763357
H            4.65710239190254        1.55687538418326       -1.58729745875421
H            6.93173539588838        1.76855055814492       -0.76336250459779
H            8.62558558454826        1.82754241669348        0.83678792896343
H            9.18636294172902        1.16007725470567       -0.72096997978680
H           10.04106715978257        0.73784483547364        0.78354683575235
H            7.00670969473568       -4.24617423187341        1.66621683789173
H            5.39803862259076       -3.48328805272373        1.78802214577946
H            5.99600364576069       -4.06704770776242        0.21018303273800
H            4.42741323479517       -2.39990677248092       -0.05427271526086
H           -0.22696573828834       -1.66121220365455       -1.65536871060696
H           -1.02404554758979       -1.21249424188181       -0.13816182791504
H            0.53649538968360       -2.07483056204465       -0.10798565642270
H           -4.62970895784105        3.02442114623555       -0.21516685820766
H           -3.74159490410313        2.88712883771567        2.69500136470895
H           -4.94357589466719        1.81148364744518        1.96210256756893
H           -5.29583383727984        3.54253427342293        2.15574381993511
H           -2.51196671422364        4.57273643986166        1.29541158443860
H           -2.91594371407463        4.75900715572262       -0.41482831168859
H           -4.06387620724539        5.22382593198162        0.84172365811201
H           -0.72862915530451        2.77605461025234        2.85121391908858
72
 energy: -103.315348076550 gnorm: 0.005656258244 xtb: 6.6.1 (8d0f1dd)
N           -1.57771594116443        2.83738539213510        2.30738565779800
C           -1.59262184582602        2.14336477298871        1.25372839692599
C           -2.75454568349112        2.05581666562074        0.29618078183940
C           -3.34550503578503        0.66130568845086        0.35085302709400
C           -4.31905382232592        0.24965522725249       -0.56175091441004
C           -4.85844376258768       -1.02303749410172       -0.51693511388574
O           -5.80899562952220       -1.51222334323903       -1.36806545137994
C           -6.35630711183999       -0.64326860409669       -2.32396596018096
C           -4.41710026304295       -1.93383098032337        0.46510936824887
O           -4.99989014928401       -3.16861896411509        0.42996327330615
C           -4.65522442418659       -4.08176468151436        1.43907063449615
C           -3.45845051529729       -1.52196870487289        1.37109782513547
C           -2.93282283672990       -0.23860237035654        1.31214482585944
C           -2.18827859698327        2.29302286081864       -1.13061416678899
C           -1.26085706876643        1.18949140714748       -1.68716477041604
C            0.03015631145741        1.13331515675464       -0.94457686141673
N            0.65058927088871       -0.06701415162351       -0.59139652512646
C            2.02608340842544       -0.07345294508298       -0.20849726401755
C            2.96910093034586       -0.56134666372272       -1.33365236446010