25
 energy: -43.826340080628 gnorm: 0.151900542526 xtb: 6.6.1 (8d0f1dd)
C            3.31429997168369        1.17197219124865        0.08102619611609
N            2.33896534561629        0.12210915153265        0.05214237782902
C            2.70910032095975       -1.27344292706954       -0.00776132722599
N            1.42327744029762       -1.88919506261298        0.03081079484402
C            0.40784194725109       -1.03691089783170        0.00714314275120
C            0.93334679566891        0.25361350684468        0.03462872396899
C            0.07476315556253        1.39256592146133        0.03678525773757
O            0.46497526020271        2.57366522973775        0.01187369470176
N           -1.29462620624785        1.04838746236919       -0.01876262504002
C           -2.25429712335690        2.14029316318920       -0.04727037917488
C           -1.83833803200538       -0.19823914014201       -0.04135968946938
O           -3.02314691377410       -0.38972583327213       -0.07312150611145
N           -0.93651618003850       -1.28301751875678       -0.02614278687472
C           -1.47177543144544       -2.63339596245783       -0.06191781699340
H            3.70262592003037        1.26933593331489        1.08673015576416
H            4.11985544241035        0.91389890493871       -0.60628413766292
H            2.75730117450123        2.09696890028983       -0.17278077348027
H            3.62293616116526       -1.69355541855311       -0.03153609735454
H           -1.71647319254016        3.07460197577591       -0.01355446689662
H           -2.85327850497907        2.08593285976084       -0.95518947317728
H           -2.91652979732877        2.06581937646724        0.81145189923640
H           -1.17704503824787       -3.18378839616860        0.82919191157860
H           -1.13953024055863       -3.15975763432062       -0.95818940185832
H           -2.55785875870811       -2.54206139761884       -0.08301596382396
H            1.34543049149797       -2.92940468187983       -0.00949723294904
25
 energy: -43.836031759180 gnorm: 0.046949083516 xtb: 6.6.1 (8d0f1dd)
C            3.29685415173984        1.17291724851498        0.08531655395065
N            2.32624714512426        0.11773713781184        0.04817416572293
C            2.65084439578144       -1.25743820051198        0.00290322218005
N            1.41733158898377       -1.91558887544233        0.02039099694960
C            0.40822409098067       -1.04324514689330        0.00712919710597
C            0.93508444261034        0.24613632711430        0.03001234925331
C            0.09190447763009        1.39100949347343        0.02020540544047
O            0.46468410866414        2.57009018417120        0.01552007883540
N           -1.28284196692190        1.04745174625167       -0.01846125765911
C           -2.24665196115664        2.13735284456484       -0.04451864385402
C           -1.82886112934953       -0.20043827944693       -0.03881871988491
O           -3.02382255683583       -0.39528819686128       -0.07115813754269
N           -0.93200430306086       -1.28583207783051       -0.02455881907565
C           -1.46771129811917       -2.63107726601979       -0.06072697892763
H            3.70844496850542        1.27882909864656        1.09066442502240
H            4.10516148812980        0.94382292674311       -0.60877096730800
H            2.77997788316414        2.10070572314969       -0.17916347272366
H            3.60606692429980       -1.68861172709499       -0.01708388819009
H           -1.69663966400654        3.07202865585121       -0.01460934657701
H           -2.84722959095554        2.08207922179977       -0.95310511578513
H           -2.91323868522466        2.06416959377844        0.81464591934240
H           -1.17215311344719       -3.18563718986108        0.83038712800544
H           -1.13438923935617       -3.15710081859255       -0.95730394133859
H           -2.55342545141703       -2.53786645196664       -0.08282113237649
H            1.34344730185435       -2.92953626510276       -0.01884854413068
25
 energy: -43.836348390367 gnorm: 0.023562590222 xtb: 6.6.1 (8d0f1dd)
C            3.30311018193690        1.15974156401001        0.08271074097358
N            2.33451244311203        0.11192013214280        0.04290033826532
C            2.64292601847468       -1.24552964552460       -0.00867845730004
N            1.43288100190160       -1.91613245636026        0.02648874131601
C            0.41682633664327       -1.03544244185522        0.01527351752945
C            0.94229779235773        0.25110539987302        0.04060366421688
C            0.09803404368384        1.39738579605583        0.03340430102512
O            0.45552188246421        2.57797693240548        0.02103538421228
N           -1.28578871626249        1.05286871531460       -0.01325699151948
C           -2.26175592356576        2.13611700871298       -0.04843296431789
C           -1.82545212949696       -0.19674244971369       -0.04011686414424
O           -3.02402868148793       -0.39655685291769       -0.08075541099766
N           -0.92691941984527       -1.28099488802641       -0.02144873465744
C           -1.46755471331350       -2.62397125257044       -0.06149836394354
H            3.71343852870996        1.25992653912420        1.09237689874743
H            4.11972027117766        0.91776349865964       -0.60449195042406
H            2.77959525484912        2.07944278203291       -0.17848404409426
H            3.61874779949895       -1.68303228980448       -0.04909195347425
H           -1.72516024401048        3.08003885161911       -0.01318412714259
H           -2.85904976660317        2.08068027070987       -0.95996131992296
H           -2.93353918000761        2.05886520069909        0.80647784704512
H           -1.17787806043996       -3.18275753186014        0.83008787138007
H           -1.13791793787357       -3.15585556759287       -0.95691489194309
H           -2.55410198450854       -2.53442228696366       -0.08468582586116
H            1.35683921022228       -2.91572532192318        0.00504307146639
25
 energy: -43.837065975602 gnorm: 0.013745461853 xtb: 6.6.1 (8d0f1dd)
C            3.29346051879689        1.16913108313425        0.08163553528877
N            2.33609097669094        0.10984635090066        0.04243071912827
C            2.64550598977822       -1.24819950382909        0.00721161275560
N            1.43309180215048       -1.91784073258204        0.01608426918321
C            0.41377038254115       -1.03749169747764        0.00698599686800
C            0.94035108703282        0.24703289259041        0.03473622597006
C            0.09942440139238        1.39271364747340        0.02348456611336
O            0.45724366273814        2.57367432132013        0.00818302369299
N           -1.28686760774826        1.04840235554897       -0.01710442057069
C           -2.25025348619226        2.13965693449488       -0.04461467271399
C           -1.82908460805936       -0.19898658650488       -0.04073393767454
O           -3.02759278846170       -0.39570865483017       -0.07116013549978
N           -0.93181499111991       -1.28536442678270       -0.02753351690915
C           -1.46941521037506       -2.62971366975839       -0.06276970016718
H            3.70145953111399        1.27639694174918        1.09105851138858
H            4.11387085412806        0.93232433985354       -0.60435614449227
H            2.76073942917705        2.08678900964817       -0.17707204200758
H            3.61956387829971       -1.68856739451356       -0.01847709165731
H           -1.69984290549093        3.07530134093143       -0.01405138658082
H           -2.85287015485848        2.08951881362360       -0.95205730948816
H           -2.91111818914254        2.06958454082979        0.81825132301779
H           -1.17435251732098       -3.18639800348833        0.82863808988864
H           -1.14047689029681       -3.16233678613987       -0.95834692325690
H           -2.55649844595851       -2.54423193660122       -0.08185071480795
H            1.35091928880196       -2.91886347334360       -0.01317140103398
25
 energy: -43.837099686179 gnorm: 0.011173954569 xtb: 6.6.1 (8d0f1dd)
C            3.29848830236683        1.17165729539149        0.08286957468205
N            2.33559971986765        0.11254802388843        0.04491627289175
C            2.64353928607548       -1.25126727177891        0.00366882668917
N            1.42594322718662       -1.91651490814815        0.01822953042516
C            0.40919264628892       -1.03649162752422        0.01107670243675
C            0.93688301567812        0.24833176037529        0.03762597305091
C            0.09816054319140        1.39308574018348        0.02862320614955
O            0.45989366741949        2.57420821929746        0.02102028195678
N           -1.28812950046592        1.04691989819075       -0.01576528495828
C           -2.25153021759174        2.13523627151509       -0.04800399799799
C           -1.83026666699130       -0.19917782353792       -0.03929921215368
O           -3.02671911523758       -0.39556727735943       -0.07309716024259
N           -0.93431836578482       -1.28532280968424       -0.02299952400345
C           -1.46781878323251       -2.62927263729117       -0.05981114049932
H            3.71632483620628        1.27459057058669        1.08841988008722
H            4.11019885974626        0.93792926168593       -0.61139526772484
H            2.78219985309143        2.10177606682253       -0.17265840248825
H            3.60887300444585       -1.69340145086570       -0.02919214764527
H           -1.70355338351931        3.07142931624131       -0.01526806475906
H           -2.84586993396222        2.07801868528117       -0.95974146398682
H           -2.91911998461545        2.06076025057186        0.80912000106066
H           -1.17403234908257       -3.18525078685551        0.83242227115819
H           -1.13222352613665       -3.15626287572917       -0.95602784708447
H           -2.55401950838502       -2.53799225272861       -0.08371370210958
H            1.33760838105775       -2.92329993228154       -0.01561882849959
25
 energy: -43.837296040466 gnorm: 0.005053530601 xtb: 6.6.1 (8d0f1dd)
C            3.29738688277052        1.16833686823713        0.08415582094056
N            2.33534782524448        0.11139253293554        0.04305821591963
C            2.64504105141477       -1.24914812208202        0.00312147689366
N            1.43065299989097       -1.91696589701230        0.02140498288721
C            0.41192945279743       -1.03756734015993        0.00933356244217
C            0.93732606136060        0.24809433324780        0.03301116553574
C            0.09980180776249        1.39378944499441        0.02200968839016
O            0.46029780507115        2.57474045747301        0.01308675969601
N           -1.28769274366320        1.04842813700524       -0.01821603916508
C           -2.25329643541672        2.13696102701145       -0.04431207354783
C           -1.82766678360808       -0.19866293705302       -0.04124137323945
O           -3.02437262538080       -0.39640947334445       -0.07444769659731
N           -0.93169581540988       -1.28558977732850       -0.02543970315099
C           -1.46801424572349       -2.62846239095291       -0.06196351557002
H            3.70582789677963        1.27408477990680        1.09334492574253
H            4.11436501028775        0.93149451465390       -0.60302107461959
H            2.77700446100555        2.09167945173468       -0.18182382714226
H            3.61322533861075       -1.68871666707880       -0.03005772695647
H           -1.70784097307274        3.07502457762242       -0.01243344913679
H           -2.85443040011647        2.08345411994481       -0.95205728706431
H           -2.91801308683719        2.06234753139741        0.81536851169580
H           -1.17420272525741       -3.18544526786564        0.82945506640073
H           -1.13734782194856       -3.15754566064296       -0.95873420320057
H           -2.55415724861262       -2.53589007347774       -0.08319074275091
H            1.34582831966807       -2.92275446291943       -0.00501098796762
25
 energy: -43.837239786081 gnorm: 0.007184074750 xtb: 6.6.1 (8d0f1dd)
C            3.29549836120266        1.16726338846453        0.08268846472904
N            2.33549735163791        0.11042100039025        0.04418267431546
C            2.64554992102191       -1.24732198962177        0.00413969606155
N            1.43363414925232       -1.91683135258818        0.01745324894403
C            0.41291300119556       -1.03774740034134        0.01061849912704
C            0.93740631829714        0.24792554687370        0.03891582681130
C            0.10029124628827        1.39374007448497        0.03019464884583
O            0.45787222639955        2.57490520982398        0.01775589775576
N           -1.28813231017796        1.04865700965366       -0.01438733543149
C           -2.25183182449358        2.13914889893544       -0.04817511383650
C           -1.82786020017615       -0.19840973807325       -0.03806342788982
O           -3.02533100914094       -0.39621067237673       -0.07335259060712
N           -0.93153543942024       -1.28606203724533       -0.02403012681079
C           -1.46854430408178       -2.62934747568395       -0.06104255669215
H            3.70921890041457        1.27010496437317        1.09007754235505
H            4.10988478850932        0.93299671389928       -0.60999548108625
H            2.76549810774534        2.08668336777049       -0.17375513965476
H            3.61660357773144       -1.68635698662638       -0.02913986555639
H           -1.70384630475328        3.07606509556814       -0.01665682135255
H           -2.84975964932532        2.08645082577651       -0.95854770957196
H           -2.91961461518671        2.06966368319313        0.80967827975251
H           -1.17490644327139       -3.18606762788774        0.83049989304410
H           -1.13827226669073       -3.16080118588952       -0.95658642107582
H           -2.55530319839411       -2.54210652058326       -0.08208204502528
H            1.35037362303316       -2.92009308604289       -0.01498956071579
25
 energy: -43.837342840391 gnorm: 0.001998737451 xtb: 6.6.1 (8d0f1dd)
C            3.29785937133266        1.16833366073354        0.08256130867125
N            2.33623562623927        0.11122342017441        0.04315060323957
C            2.64478462804283       -1.24871453183430        0.00515536105911
N            1.43112869723643       -1.91621142672717        0.01907466562858
C            0.41173866908954       -1.03678865069328        0.00942249833892
C            0.93735282799609        0.24870865037415        0.03563215790008
C            0.10016868759673        1.39402100715799        0.02575011876201
O            0.45812367910246        2.57534787304674        0.01440628510562
N           -1.28843981257832        1.04817350932846       -0.01675264625669
C           -2.25288525969456        2.13696106432955       -0.04579043293297
C           -1.82864536832758       -0.19825704285829       -0.04039625534264
O           -3.02588100766864       -0.39592508540601       -0.07363046880873
N           -0.93236184255520       -1.28540157414819       -0.02531544756166
C           -1.46846762432084       -2.62859928299120       -0.06161515521705
H            3.70977656794817        1.27304940729146        1.09027165286519
H            4.11395626693279        0.93220415488257       -0.60696411000356
H            2.77438121120442        2.09169512959228       -0.17671315688932
H            3.61365853794835       -1.68955402414163       -0.02675047999398
H           -1.70591445493505        3.07416876172043       -0.01348344539995
H           -2.85216792514789        2.08332253269348       -0.95506257728107
H           -2.91788166909389        2.06311324089617        0.81377290876869
H           -1.17494800106955       -3.18486767965740        0.83032648447603
H           -1.13647300352995       -3.15881196491817       -0.95725912878564
H           -2.55507488444378       -2.53995761448853       -0.08372092389870
H            1.34528009031252       -2.92056382811016       -0.01066934000810
25
 energy: -43.837290962666 gnorm: 0.004621681014 xtb: 6.6.1 (8d0f1dd)
C            3.29503047733781        1.16990561952453        0.08504434059722
N            2.33549492947480        0.11066662617180        0.04347753764134
C            2.64535149045320       -1.24966296407658        0.00044194555713
N            1.43132511226213       -1.91767584611024        0.02029868368026
C            0.41182116639691       -1.03885352542815        0.01037109584626
C            0.93672277261290        0.24704160173624        0.03513125150517
C            0.10122979926895        1.39269272767947        0.02559293675717
O            0.46086470879982        2.57363743684542        0.01667966285236
N           -1.28781873072347        1.04762386687942       -0.01666367697893
C           -2.25114640790929        2.13755018206885       -0.04679781515728
C           -1.82777478267100       -0.19880130039501       -0.03930977559854
O           -3.02453519757180       -0.39669460231907       -0.07335283266788
N           -0.93188969318695       -1.28655433395645       -0.02354077783932
C           -1.46818826233749       -2.62906400049184       -0.06073665332375
H            3.70385820016154        1.27558740743839        1.09398111059500
H            4.11180234349610        0.93514437808116       -0.60320023770636
H            2.77250472769902        2.09298299561263       -0.17884734113095
H            3.61328847675259       -1.68926184583876       -0.03618974541424
H           -1.70402745347742        3.07467774050668       -0.01575439333885
H           -2.85001136828847        2.08337863122514       -0.95604990782673
H           -2.91773860234135        2.06610920875643        0.81168889527096
H           -1.17351859622481       -3.18739700477186        0.82968244048281
H           -1.13853098467500       -3.15712914823368       -0.95858536853233
H           -2.55431966050103       -2.53578511613105       -0.08056755888739
H            1.34550954280930       -2.92344902852657       -0.00739333994814
25
 energy: -43.837342386579 gnorm: 0.001839410524 xtb: 6.6.1 (8d0f1dd)
C            3.29627788359441        1.16881359861985        0.08370874044030
N            2.33565789487943        0.11087446830208        0.04368514982910
C            2.64524861460102       -1.24907680718522        0.00333889831337
N            1.43151074953400       -1.91702329286088        0.01987550338100
C            0.41186990922441       -1.03811514014832        0.01004232796350
C            0.93676080771743        0.24781550966717        0.03555909346265
C            0.10090839482295        1.39338179772858        0.02568175530310
O            0.45966237380484        2.57450035668063        0.01614005619374
N           -1.28831762855875        1.04803104756773       -0.01672505384877
C           -2.25219459189980        2.13759791724319       -0.04615930442083
C           -1.82802705926725       -0.19845472247077       -0.03997103193250
O           -3.02490538900057       -0.39655550265604       -0.07393124273395
N           -0.93192149507973       -1.28611502151024       -0.02447066486930
C           -1.46802414597838       -2.62892332599270       -0.06129523004078
H            3.70721357269596        1.27364532298932        1.09191492106088
H            4.11179329945397        0.93315143872061       -0.60600881501310
H            2.77319497594330        2.09181676821599       -0.17835875749839
H            3.61367887866902       -1.68880147226321       -0.03083569914674
H           -1.70546704903796        3.07496266585787       -0.01444496055638
H           -2.85141345272725        2.08405039690214       -0.95531019836583
H           -2.91848230848380        2.06528990581991        0.81253342150102
H           -1.17412462757221       -3.18617120343716        0.82999989133344
H           -1.13719092840804       -3.15823437622640       -0.95796714352026
H           -2.55432455809282       -2.53750668936027       -0.08244164451196
H            1.34591988678280       -2.92228393395695       -0.00915953588832
25
 energy: -43.775226603972 gnorm: 0.325725221074 xtb: 6.6.1 (8d0f1dd)
C            3.39150959289519        1.16979262801656        0.07708202626473
N            2.37834279993256        0.16791538441963        0.06940222341919
C            2.83899800684544       -1.33108256993091       -0.04436212434011
N            1.47042845487549       -1.88535847690810        0.01313770705972
C            0.42510592620194       -1.01523073301555        0.02280596407204
C            0.93064775061037        0.29223221539397        0.05496968644137
C            0.04886361553803        1.39158779621267        0.07502008926741
O            0.43120817089955        2.60341217049268        0.02695467271758
N           -1.33918003518378        1.03624022268264       -0.00681962855324
C           -2.28979348155887        2.12619743348010       -0.04453934803263
C           -1.85911719761343       -0.19590338574808       -0.03534431123690
O           -3.04576166076848       -0.40172298775403       -0.07647755645045
N           -0.94477207302828       -1.26339002715974       -0.01493881468236
C           -1.47353198786059       -2.62034767220061       -0.06355515047905
H            3.69266066763494        1.32432221531226        1.10728985890149
H            4.23051283550420        0.79359063731604       -0.53694769791898
H            2.81634948940793        2.09587122089332       -0.25355836410914
H            3.67772415407864       -1.74866869758430       -0.10757378568077
H           -1.76231905809914        3.05845386994190       -0.00059867804751
H           -2.88236070026862        2.07806717192497       -0.95732132786393
H           -2.95658441562586        2.05413551677777        0.80820851196242
H           -1.18355858257602       -3.17204222443623        0.82537010462778
H           -1.13416071281530       -3.14428516891633       -0.95969535097893
H           -2.56007830769801       -2.52735606313204       -0.09110364339367
H            1.30987423856237       -2.91523560551268       -0.00449940802871
25
 energy: -43.820675298716 gnorm: 0.077961681915 xtb: 6.6.1 (8d0f1dd)
C            3.36139689963412        1.16799848186392        0.08259031661865
N            2.36286020748362        0.14273342773059        0.06311130787485
C            2.71790055073717       -1.28184657296041       -0.02845699386209
N            1.44641219602021       -1.91008825762413        0.00633477654597
C            0.42987149741288       -1.02735525357947        0.02117287854410
C            0.94845273048176        0.26902114492202        0.05098185322297
C            0.07567943544696        1.39136230688316        0.05177146101977
O            0.42841800747130        2.58331855357546        0.03514432258055
N           -1.31115774375457        1.04390171655112       -0.00503768093184
C           -2.28094331735142        2.12602807849004       -0.04125400107636
C           -1.83795142180189       -0.20099003748652       -0.03268215353076
O           -3.03252337053975       -0.40963597607117       -0.07508483200957
N           -0.92539264310352       -1.27130547688105       -0.01472521550759
C           -1.46581990636874       -2.61844590535667       -0.06267349460633
H            3.70292707527316        1.33423448329556        1.10681483069793
H            4.20592785451042        0.83670632957707       -0.53482754251685
H            2.85762013871390        2.09424460258244       -0.26156300208424
H            3.65584097238524       -1.72803331722566       -0.09810326123668
H           -1.74675358771946        3.06538468657110       -0.00220636669894
H           -2.87610235463523        2.07290252599974       -0.95477933048879
H           -2.95606842387225        2.05079194856853        0.81077369364714
H           -1.17924218382722       -3.17565963365853        0.82771320020540
H           -1.13014067156157       -3.14243722031689       -0.95940931919539
H           -2.55265913066957       -2.52322047053866       -0.09114541246759
H            1.31245467952472       -2.91841529434569       -0.01155437980696
25
 energy: -43.822982590336 gnorm: 0.024001554278 xtb: 6.6.1 (8d0f1dd)
C            3.35703959730344        1.14694518976769        0.07862466780397
N            2.36648346355113        0.11511627728874        0.05316375065779
C            2.69844375288069       -1.25415395306027       -0.02954954537038
N            1.46280065351024       -1.89679122876120        0.00400724810941
C            0.43735901727415       -1.01744957480177        0.02372556410844
C            0.95789720455255        0.27132711940219        0.05999690374207
C            0.08214325301575        1.40472594810107        0.06139215246040
O            0.41698091006312        2.59115539530306        0.03312112340207
N           -1.30865067301138        1.05049302366740        0.00068654613222
C           -2.29082169044600        2.12482990834509       -0.04339738150743
C           -1.83696442402382       -0.19966924573579       -0.03180150801433
O           -3.03415922994681       -0.41006784638579       -0.07992554818641
N           -0.91811741123301       -1.26775787761973       -0.01248533352900
C           -1.46343029361764       -2.61162686388398       -0.06305353899134
H            3.69728673096129        1.31108044225283        1.10681585558372
H            4.21018602326313        0.81379224068732       -0.53092658037619
H            2.84453894369034        2.05474626961322       -0.26084971517259
H            3.66074509043393       -1.71250947926552       -0.10816733240909
H           -1.75771711072163        3.06693177059295       -0.00105123154551
H           -2.88195008257729        2.07127084153714       -0.95992488839202
H           -2.96731196656245        2.04699266753163        0.80745653372835
H           -1.18128871224823       -3.17297484709684        0.82778362103430
H           -1.13074191925511       -3.13988761937757       -0.95890540705802
H           -2.55131531447891       -2.51982644405070       -0.09171930195479
H            1.34157167751279       -2.89549724348527       -0.00211099931828
25
 energy: -43.823653331544 gnorm: 0.015405680560 xtb: 6.6.1 (8d0f1dd)
C            3.35167888096455        1.16647808705160        0.07826640045086
N            2.37241620417274        0.11461868312047        0.05061392471377
C            2.69286440850002       -1.26256558029305       -0.01476530410402
N            1.45703646458919       -1.90629745619931       -0.00201594664013
C            0.43236573244913       -1.02224038885529        0.01867357483892
C            0.95841317565028        0.26513828267816        0.05401580205930
C            0.08618080489429        1.39998074679761        0.05093323873762
O            0.42334972680457        2.58694097235621        0.03065575761359
N           -1.30746049319729        1.04450513581556       -0.00394892430383
C           -2.28062460235519        2.12550015194706       -0.04061649858007
C           -1.84116365492293       -0.20336485818939       -0.03461558697871
O           -3.03859417025608       -0.40933366490275       -0.07462693294401
N           -0.92416241727882       -1.27398270877806       -0.01617999851689
C           -1.46684903682090       -2.61841004267907       -0.06346089847898
H            3.69587701407461        1.33768658245907        1.10522816307891
H            4.20970172899964        0.84430465655573       -0.53205030607721
H            2.84795012546765        2.08330236221877       -0.25753558550649
H            3.65142564528535       -1.73195334448144       -0.09033104238400
H           -1.73832999568962        3.06275161348421       -0.00194727336369
H           -2.87624026423813        2.07609493708315       -0.95331214613590
H           -2.94902093619665        2.05273367629734        0.81592741462916
H           -1.18109975065575       -3.17886141141368        0.82734308309835
H           -1.13372728658447       -3.14750711326442       -0.95914424387822
H           -2.55492687107198       -2.52860379716683       -0.09014177914389
H            1.32394705730604       -2.90572065107576       -0.01405923724707
25
 energy: -43.823753684619 gnorm: 0.011110000973 xtb: 6.6.1 (8d0f1dd)
C            3.35928984697627        1.16400163641337        0.08198554805689
N            2.37139337927569        0.12170905657074        0.05691762212842
C            2.69579565582515       -1.26330930638782       -0.02708904977869
N            1.45567315157142       -1.90678169426888        0.00505380386242
C            0.43146616311786       -1.02049554897046        0.02548396845329
C            0.95440046818181        0.26914917453022        0.05882581136651
C            0.08337492854336        1.40182966603471        0.05574619785356
O            0.42321667752749        2.59015055770769        0.04051133320759
N           -1.31071746958585        1.04524979191162       -0.00216062787857
C           -2.28753228446856        2.12343206781560       -0.04432224602874
C           -1.84055512842959       -0.20237620059349       -0.03276633654529
O           -3.03594109424396       -0.41087258533160       -0.07729434603604
N           -0.92358677526756       -1.27207772845972       -0.01120741106225
C           -1.46340540788657       -2.61562292196075       -0.06210580732207
H            3.70848024821349        1.32807507010234        1.10843255094369
H            4.20710686287023        0.82888380929738       -0.53307513245541
H            2.86546876818911        2.08736118796953       -0.25983964242569
H            3.65132561294449       -1.73160390510523       -0.11593853814122
H           -1.75445795812078        3.06556891910383       -0.00312474702837
H           -2.87684722615741        2.06846871214282       -0.96041673025695