25
 energy: 0.000000000000 xtb: 6.6.1 (8d0f1dd)
C            3.23720132972391        1.16630909158653        0.08434468864950
N            2.29877796055224        0.07527476373246        0.03981602671198
C            2.58028186251803       -1.21425391179017        0.03006175752192
N            1.43813944744728       -1.93419254010258        0.00098261751768
C            0.39035684826767       -1.05887462812143       -0.00790371763344
C            0.93510047688824        0.21347817468824        0.01709077332874
C            0.09450143016486        1.40504290868848       -0.00410946993748
O            0.49712746915594        2.54126690785742       -0.00342325656480
N           -1.25076628431515        1.06271869620815       -0.03085477937476
C           -2.21907191394203        2.15522079838987       -0.05001256521996
C           -1.81739470187490       -0.20012724136556       -0.04692818139228
O           -2.99983858926755       -0.37846413507442       -0.07008877579474
N           -0.92618577614240       -1.30210203518959       -0.03682761236648
C           -1.46982251276835       -2.64643077634382       -0.06029819901142
H            3.71247229913541        1.21471443890471        1.06488839270555
H            4.00791460421487        1.03430799217987       -0.67357688121503
H            2.69909982127087        2.09770098766290       -0.09130154035862
H            3.56654087521359       -1.63682977417947        0.04233139674524
H           -1.67107945562430        3.09322822573871       -0.02552706696334
H           -2.82428927394145        2.09428605349656       -0.95318074103337
H           -2.87644002486466        2.07745706351925        0.81450059976605
H           -1.17061985538665       -3.19584861009707        0.83242224714061
H           -1.14560246782873       -3.17511580834413       -0.95688266944647
H           -2.55549768731684       -2.55659960601237       -0.07459039105944
H            1.38130842369251       -2.94313824728853       -0.01389874052104
25
 energy: -5.632189743678 xtb: 6.6.1 (8d0f1dd)
C            3.29853897292457        1.16820016174708        0.08375852447881
N            2.33667111594206        0.11137911320695        0.04239328391674
C            2.64466050410075       -1.24821894246435        0.00354897052531
N            1.43141358522140       -1.91565387133949        0.01752935203570
C            0.41169129546800       -1.03655526949792        0.00878543379216
C            0.93738165184953        0.24917241016588        0.03507427370789
C            0.10082941671955        1.39434663907778        0.02534071444350
O            0.45731113145353        2.57589118781009        0.01210962292612
N           -1.28859092342372        1.04799920675694       -0.01661863297735
C           -2.25273872023107        2.13649689262211       -0.04649125607758
C           -1.82884245588557       -0.19794060745988       -0.03925915636431
O           -3.02621186543272       -0.39576188828291       -0.07177524835066
N           -0.93255777139330       -1.28535516910265       -0.02500996410074
C           -1.46932190703353       -2.62845211275471       -0.06094491209418
H            3.70930835195151        1.27217023022040        1.09190684072312
H            4.11625010139842        0.93346863433339       -0.60475522587585
H            2.77430239486269        2.09132214535773       -0.17410570772659
H            3.61375762849700       -1.68928040759907       -0.02864112110981
H           -1.70527524071994        3.07346418917295       -0.01478310691771
H           -2.85200832298290        2.08203275875205       -0.95586111660422
H           -2.91713298915182        2.06267691599310        0.81358245637049
H           -1.17543068934383       -3.18457017822216        0.83091034318848
H           -1.13796240949047       -3.15917621241437       -0.95650337459641
H           -2.55616068205724       -2.54135700322393       -0.08248826528213
H            1.34542183437409       -2.91962911660811       -0.01230225159578
25
 energy: -2.033712706471 xtb: 6.6.1 (8d0f1dd)
C            3.35673256105972        1.16179131745534        0.08164004663218
N            2.37112616266540        0.11879462806593        0.05342503934410
C            2.69709564981744       -1.26016424985624       -0.02219561718759
N            1.45948926377318       -1.90444014264901       -0.00001626419518
C            0.43246882668428       -1.02073188783546        0.02026416785492
C            0.95421686597285        0.26839754803104        0.05488576358060
C            0.08578694165949        1.40161177914235        0.05274325408673
O            0.42258385884499        2.58926031319228        0.03209601445484
N           -1.30982315577642        1.04520303290456       -0.00345962329676
C           -2.28555236024721        2.12422376003673       -0.04239341561698
C           -1.83987376946612       -0.20156659039065       -0.03349449502512
O           -3.03572017828765       -0.41012277543911       -0.07559405061649
N           -0.92275508376755       -1.27265566777598       -0.01433131453610
C           -1.46538040989447       -2.61549428616204       -0.06195404582253
H            3.69887512706802        1.32882912670954        1.10888958050317
H            4.21125351576593        0.83222869672981       -0.52873860679600
H            2.85419754880230        2.07844822733770       -0.25858276945070
H            3.65433243009414       -1.72906701496881       -0.10477726377592
H           -1.74900552197040        3.06443566221688       -0.00211282600404
H           -2.87892271205626        2.07186595442387       -0.95642233688240
H           -2.95782893156672        2.04812223358051        0.81102784137867
H           -1.17986988828198       -3.17582048896964        0.82880521662112
H           -1.13303060977606       -3.14368985984916       -0.95838610815681
H           -2.55312064477764       -2.52307919195330       -0.08840722205845
H            1.32373200355103       -2.90518525341121       -0.01000531009788
25
 energy: 4.630897001115 xtb: 6.6.1 (8d0f1dd)
C            3.41521875053136        1.15214186267910        0.08193342764680
N            2.40573815061604        0.12429273613956        0.06895389976245
C            2.75189334113115       -1.27736508945912       -0.02441502524378
N            1.48782704924165       -1.90005249422011       -0.02091397820795
C            0.45464220814368       -1.00636859401285        0.03128103425035
C            0.96909934465558        0.28711405649982        0.07610597870587
C            0.06577533283589        1.41186618847808        0.07321203778892
O            0.38281147621320        2.60381056272367        0.05011482672416
N           -1.33341465859682        1.04410965805288        0.00900438281737
C           -2.31892631516034        2.11441813537002       -0.03831729193944
C           -1.85077838473808       -0.20559642943134       -0.02793671265891
O           -3.04465437125881       -0.42656718859470       -0.07920434328555
N           -0.91245730350064       -1.26000105448317       -0.00364068441344
C           -1.46068429592127       -2.60282040894796       -0.06434393254694
H            3.69375237119289        1.38201691090223        1.12002325422208
H            4.29344794940739        0.73362866190348       -0.45290823132065
H            2.93593726780885        2.06095393252400       -0.33596695539351
H            3.69336195024912       -1.76671015250703       -0.18546336082917
H           -1.79117653458536        3.05696950779536        0.01166276556924
H           -2.90581505842438        2.06556942190606       -0.95730448616745
H           -2.99860981998554        2.03685467653839        0.80845473889312
H           -1.18516610970656       -3.16795536350023        0.82510244632238
H           -1.12624366441750       -3.12811788907864       -0.96132755030029
H           -2.54925642781884       -2.50632465429794       -0.09732483773106
H            1.30356336736862       -2.89355371491762       -0.00588665846879
25
 energy: 14.799098089824 xtb: 6.6.1 (8d0f1dd)
C            3.47887544930390        1.14461097198038        0.08499132443486
N            2.44254499447349        0.13482563926405        0.08565349017143
C            2.81289867187468       -1.29275588322361       -0.00082308032384
N            1.51720328284230       -1.88343933269844       -0.02198997363617
C            0.47619533250405       -0.98597107124371        0.04311254340519
C            0.98365193460196        0.31082159658787        0.09619465690746
C            0.04455867836410        1.42767802063770        0.08802781156560
O            0.34251325391870        2.62163963519994        0.06433168815699
N           -1.35709373865676        1.04714427993488        0.02059724179496
C           -2.35357228598901        2.10595703431790       -0.03437432102030
C           -1.86124028809369       -0.20714576590878       -0.02387443123733
O           -3.05288132639456       -0.44087259931783       -0.08467411924114
N           -0.90254957604036       -1.24547230574467        0.00696129962992
C           -1.45675105527040       -2.58935126328552       -0.06617047114481
H            3.68959312022728        1.43558866087138        1.12724432634895
H            4.37699381349447        0.64195252879348       -0.37089040148257
H            3.02071975539198        2.03869514404712       -0.40982972536410
H            3.73028327082814       -1.80150814573565       -0.26316163804614
H           -1.83829027656481        3.05372555832816        0.02391184727879
H           -2.93304638984299        2.05635245556424       -0.95851650076786
H           -3.03882612883123        2.02084572954925        0.80654952060437
H           -1.19192721099465       -3.15938250185270        0.82246382013958
H           -1.12197974725315       -3.11262605921404       -0.96402645715715
H           -2.54658491948938       -2.49139743934981       -0.10470852465826
H            1.28444324583432       -2.87037293840713        0.00317131698967
25
 energy: 27.548750136375 xtb: 6.6.1 (8d0f1dd)
C            3.50516207814341        1.15520925982181        0.09574637383372
N            2.46300555700995        0.15437035497336        0.10786300774953
C            2.87444982447356       -1.30709562398755        0.04112248051421
N            1.53934629490054       -1.86223553209304       -0.01533701560789
C            0.49295487830832       -0.96436620054479        0.05612856554591
C            0.98962414677959        0.33604661966505        0.11571651571486
C            0.01953553718069        1.44677515346871        0.10033931405820
O            0.30425480163585        2.64055005541071        0.08055094986791
N           -1.38187548131401        1.05380855509385        0.03123647558663
C           -2.38934406443642        2.10033188607095       -0.03353240494179
C           -1.87191157066855       -0.20724264584483       -0.01917336649703
O           -3.06118200832160       -0.45344865079854       -0.08853828480123
N           -0.89484410717866       -1.23003575835437        0.01828293340501
C           -1.45341923237573       -2.57496074205268       -0.06711139161285
H            3.68648847535536        1.49465732164251        1.12868709705743
H            4.43862127300116        0.57312217826147       -0.29099244905417
H            3.08922422780332        2.02474934421451       -0.47371141797489
H            3.76297748044986       -1.83049479601220       -0.32950767483320
H           -1.88741755631496        3.05387351502396        0.03169262236980
H           -2.96029220333287        2.04792254571672       -0.96293864853778
H           -3.08024225216749        2.00790585075780        0.80142022701150
H           -1.19967420227243       -3.14948309112769        0.82122866778692
H           -1.11678393363734       -3.09503534825076       -0.96589587907444
H           -2.54409979772565       -2.47426480759392       -0.11212383276756
H            1.26447704094337       -2.84514372862350        0.01036132583718
25
 energy: 43.530108267306 xtb: 6.6.1 (8d0f1dd)
C            3.51617870413011        1.16017306271205        0.10973570127258
N            2.46320831694133        0.17378694959180        0.13013918738310
C            2.93490160477457       -1.31886070622062        0.07022871414289
N            1.55844630083261       -1.84318279812718       -0.00141278067953
C            0.50547606061291       -0.94920848589674        0.06360371766397
C            0.98681552769274        0.34903327797479        0.12137857545200
C           -0.00896845064713        1.46346932348900        0.10654554098960
O            0.26636160816892        2.65631167183386        0.09509999541092
N           -1.40774093243616        1.06297540065585        0.03996503172458
C           -2.42633509946965        2.09742345314857       -0.03326842537119
C           -1.88254274307021       -0.20735906824621       -0.01557188070284
O           -3.06933111252528       -0.46626793400919       -0.09208834142790
N           -0.88869536421985       -1.21669497309871        0.02592339839767
C           -1.45104723926624       -2.56208631494861       -0.06773141636009
H            3.69262500928744        1.54682963586248        1.12674247463901
H            4.49173048961691        0.50323695300625       -0.21807768440447
H            3.16367848175182        2.00795290623325       -0.52606037986612
H            3.80017813425430       -1.85780924382178       -0.38683599898878
H           -1.93782324390785        3.05751317455300        0.03818015092705
H           -2.98935672140245        2.04171787624744       -0.96767989636881
H           -3.12228750977304        1.99671948720629        0.79591414985876
H           -1.20793569834330       -3.14041530290046        0.82097269364362
H           -1.11184041670254       -3.07896432224937       -0.96706847475818
H           -2.54210471212361       -2.45896008799559       -0.11941636254855
H            1.24681729813582       -2.82078323078431        0.02279597888260
25
 energy: 64.622754112937 xtb: 6.6.1 (8d0f1dd)
C            3.52066047555364        1.16524990404853        0.11818112521031
N            2.46325805577896        0.19048641686356        0.14133483399119
C            2.99114118841532       -1.31663909333993        0.03969240757498
N            1.57038226661707       -1.82694326901878        0.00869975658697
C            0.50906428842422       -0.93541805151309        0.06741789385482
C            0.99248136702974        0.35618758704248        0.13711042758091
C           -0.03338539467341        1.47664053181599        0.11313661119491
O            0.23143900648225        2.66963593244708        0.10998640469532
N           -1.43129639873726        1.07154151337623        0.04983280307879
C           -2.46103383561092        2.09579565148916       -0.03418676314801
C           -1.89228002975138       -0.20793715926920       -0.01185330051626
O           -3.07623568864283       -0.47990318315534       -0.09542096023997
N           -0.88340933179635       -1.20680244715523        0.03135017758581
C           -1.45072565668821       -2.55092786153879       -0.06799611167507
H            3.71239953555942        1.59274232050373        1.11203591225845
H            4.55688082580341        0.41539578090007       -0.15323954828266
H            3.24168088286253        1.99384176960857       -0.56825687630340
H            3.85419093547261       -1.87547620938784       -0.44847231387196
H           -1.98714076183547        3.06292367739790        0.04243839431114
H           -3.01631442821905        2.03467519952274       -0.97334223248789
H           -3.16297017931866        1.98569719654965        0.78824607979592
H           -1.22016911148298       -3.13272235225421        0.82186993966871
H           -1.10856465970905       -3.06517369173593       -0.96690143862998
H           -2.54166912938190       -2.44359650822610       -0.12795621547928
H            1.22043540184994       -2.79691763168671        0.03150869646361
25
 energy: 176.406205152968 xtb: 6.6.1 (8d0f1dd)
C            3.21940829139217        1.34407744305384        0.17985204118660
N            2.25973761285416        0.50042285255244        0.26207804813281
C            3.77713843233855       -1.26736406700472        0.04812680157462
N            1.46132838883317       -1.78017343343224        0.00314523524989
C            0.47603735467395       -0.94417093553151        0.06422413998642
C            0.94003212491461        0.40707284413466        0.13793347272850
C           -0.10949632992187        1.51245591407530        0.11657338807320
O            0.18720556574986        2.69474095674240        0.12971179080552
N           -1.47736481526068        1.09745345212208        0.05968673840744
C           -2.51102384124240        2.10267885811576       -0.03815545080934
C           -1.92397568153505       -0.20643746432947       -0.00231449682596
O           -3.10544522190278       -0.47971496779245       -0.09177860817582
N           -0.91225601783407       -1.18358495287585        0.03728293297433
C           -1.46266014880812       -2.53683050544884       -0.06589851097664
H            3.77514285067078        1.58734463379640        1.07418643415318
H            4.72043850721847       -0.15381185229625       -0.14748555683202
H            3.26519671081312        2.04853062108782       -0.63276102554334
H            4.05392496153476       -2.07750931629942       -0.61231724838811
H           -2.04486188295272        3.07283331503129        0.04246725637916
H           -3.05230358611988        2.03211751310640       -0.98353824124028
H           -3.21169684249781        1.98233520708565        0.78044088847357
H           -1.23375457889844       -3.11774485595697        0.82566018170738
H           -1.10429036102611       -3.04646962826505       -0.96159156664761
H           -2.55045306050459       -2.43314633864163       -0.13705610834998
H            1.15836694998694       -2.76879720071636        0.03897170490535
25
 energy: 171.548646731460 xtb: 6.6.1 (8d0f1dd)
C            3.17547239413775        1.36316319430352        0.18274206182277
N            2.21986936181263        0.53754240308202        0.29486235015742
C            3.90408237063492       -1.23550726121839       -0.07005832667565
N            1.42897319779067       -1.76530948026732        0.05841115219096
C            0.45112616180524       -0.93316667352761        0.08053417346110
C            0.92115081199306        0.41380930523986        0.16483932210633
C           -0.13828284902238        1.52794974665149        0.12712741193362
O            0.16348138929936        2.70550691281171        0.15156755023387
N           -1.49042669290696        1.11626223640471        0.07152593260743
C           -2.54282400156081        2.10712184647465       -0.03766139006242
C           -1.93471313499219       -0.19995135632788        0.00236994277387
O           -3.11623728221204       -0.46425154912396       -0.08796185525826
N           -0.93193859477820       -1.16898044511417        0.03376305554041
C           -1.46804295148785       -2.52613903367177       -0.06994059693934
H            3.76672773572540        1.63010290153331        1.04561851919379
H            4.85164806823669       -0.25605879912955       -0.14064212600150
H            3.34599840962816        1.97589614680928       -0.68754242851454
H            4.19021374613252       -2.11703874577165       -0.62848179072812
H           -2.09158815500311        3.08422749453805        0.04737204556296
H           -3.07719262472152        2.03092049936959       -0.98749646749916
H           -3.25018338453026        1.97599824257706        0.77361299518209
H           -1.24168780732365       -3.10790285671439        0.82314906248288
H           -1.09546009641333       -3.03212137083245       -0.96186005286728
H           -2.55517644439830       -2.43148301584812       -0.15176761235683
H            1.12072078254125       -2.75534120807571        0.05302527905766
25
 energy: 165.698095293756 xtb: 6.6.1 (8d0f1dd)
C            3.13195111573787        1.37150141866883        0.15304547295911
N            2.18428808332501        0.55322496197084        0.31351495766344
C            4.02516458939393       -1.22425883903058       -0.14946020949190
N            1.40194242157905       -1.75072738446605        0.08218220926836
C            0.42623319527096       -0.92270256868256        0.08997170706073
C            0.89643365694752        0.42011892492282        0.17276353463597
C           -0.16286042754978        1.54244412887319        0.13400871059310
O            0.14562672945995        2.71289140777086        0.18045318720589
N           -1.49738832723952        1.13024906559261        0.07271192121684
C           -2.57070158069926        2.10918215283954       -0.03877838327498
C           -1.94334397669008       -0.19509360212692        0.00738175012175
O           -3.12465712305765       -0.44641900896930       -0.08629911209047
N           -0.94993515215016       -1.16076219743541        0.03405531912724
C           -1.47588035989336       -2.52161602192024       -0.07460648568203
H            3.74012392843035        1.65809279130747        1.00275757940827
H            4.99069444234349       -0.36742337792519       -0.13001078948724
H            3.36094369065443        1.93513126612888       -0.75344177671716
H            4.27956921776714       -2.14821347719459       -0.66576070955559
H           -2.13768817792256        3.09493628224905        0.05072909347290
H           -3.10112942329673        2.02643985813739       -0.99141890617266
H           -3.28439738768988        1.96774906155868        0.76569909690930
H           -1.25350880938638       -3.10211444594575        0.82050566421136
H           -1.09114090566133       -3.01926759099393       -0.96465635852919
H           -2.56169876189695       -2.43375289584113       -0.16686153822775
H            1.09696472295294       -2.73691428822165        0.06383083873226
25
 energy: 162.070595767483 xtb: 6.6.1 (8d0f1dd)
C            3.09826790662081        1.38222878775053        0.12798821635457
N            2.15291468843190        0.56597840737489        0.33210316873350
C            4.13322585685220       -1.22660731731677       -0.24023429189247
N            1.37745615118385       -1.75170722067358        0.09753700337839
C            0.40744654850793       -0.92300092393201        0.10061162624871
C            0.86486530009666        0.42445572948276        0.17675932940778
C           -0.18721960921233        1.55550302122278        0.13542758238519
O            0.11454533457695        2.72331833903732        0.19215675600344
N           -1.50514561515897        1.14149273155460        0.07061363010037
C           -2.59865989438413        2.11123477587277       -0.03919158506830
C           -1.94932302725016       -0.18918555170457        0.01466805319449
O           -3.12604193095958       -0.44033944654800       -0.08646417900879
N           -0.96679295569112       -1.15644516771911        0.03611496488110
C           -1.48387452873738       -2.52035518511464       -0.07991991223714
H            3.69220317897875        1.70254482883544        0.98528555755885
H            5.12422080140475       -0.47577104374484       -0.13422604253483
H            3.38540652576199        1.89650338113565       -0.80589229311828
H            4.36741161371521       -2.19115881390908       -0.69573284250311
H           -2.18559828785817        3.10723305988963        0.05302901696963
H           -3.12638632949569        2.01851163643525       -0.99323393391117
H           -3.31857697268241        1.95774826284651        0.75869659233427
H           -1.26611711050863       -3.09668686979031        0.81873616290139
H           -1.08396885367487       -3.00692420963679       -0.96762844443419
H           -2.56708686404191       -2.43878996664286       -0.18388136069987
H            1.06609417190149       -2.73098103398974        0.08442850060864
25
 energy: 158.488685495961 xtb: 6.6.1 (8d0f1dd)
C            3.06257574075898        1.40925945949001        0.14031704123674
N            2.13189182012725        0.58630439288497        0.37417997145798
C            4.23923066629149       -1.21393148477713       -0.34616522938506
N            1.35827546185288       -1.75413455880485        0.10690612608779
C            0.39552280263618       -0.92396924077531        0.11005680062944
C            0.84126956717877        0.42910211038654        0.18675533785314
C           -0.21389115168684        1.56556230904011        0.13820166689957
O            0.09479658548227        2.72975059343257        0.20354152919103
N           -1.52763203501327        1.15032006463498        0.06377634114217
C           -2.63180255635767        2.11592830712620       -0.03948710977204
C           -1.95240777375286       -0.18278775870364        0.01134716436308
O           -3.12546568448219       -0.44279850546941       -0.09446456087150
N           -0.97818980863986       -1.15247178145169        0.03829046239727
C           -1.49161743628694       -2.51398102861131       -0.08081005244902
H            3.66158843949400        1.75398818980042        0.98612253294014
H            5.25340094506019       -0.58438060174462       -0.13296758920748
H            3.37543022581139        1.85213849248940       -0.81426420941635
H            4.43372798778286       -2.23295180105653       -0.71899506525452
H           -2.23149506561625        3.11688791736260        0.05626956752863
H           -3.15750088902019        2.01846853353611       -0.99405526956677
H           -3.35625682693985        1.95236291139860        0.75290411351365
H           -1.27479721514702       -3.09042637766769        0.81795899303550
H           -1.09238437706506       -2.99838642783000       -0.97059784748351
H           -2.57351297243071       -2.44087917273831       -0.18523059210941
H            1.04767158049143       -2.72393143830105        0.08478794521778
25
 energy: 154.401021988210 xtb: 6.6.1 (8d0f1dd)
C            3.01770578954255        1.45103179084057        0.18469586426891
N            2.10405406879008        0.60809608626802        0.42340405557703
C            4.35768875764823       -1.22436143508992       -0.40941013277267
N            1.33234412368286       -1.76533226828608        0.11884927229165
C            0.38040178859923       -0.92867123267210        0.11988473930583
C            0.81571988113944        0.43644060103861        0.19662868041776
C           -0.24076458306488        1.58349873223657        0.14579386289690
O            0.08682884579772        2.74366451002754        0.23389551242110
N           -1.55529936311903        1.15847989825172        0.06017556045721
C           -2.66258602518317        2.11826316063077       -0.03498954688743
C           -1.96243560022178       -0.17734037533407       -0.00129326438628
O           -3.13428402279843       -0.44815315717227       -0.11305036005993
N           -0.99369413503630       -1.14938886103896        0.03856213168311
C           -1.50156332244729       -2.51176713060015       -0.08203573224935
H            3.63317742782678        1.81024830337203        1.00587713860111
H            5.38039931662818       -0.70058266988839       -0.12601983431608
H            3.28899447631087        1.87188791240818       -0.78267465382830
H            4.50921116613160       -2.27935682566449       -0.72576585055097
H           -2.27617336181753        3.12493491687272        0.06328897606625
H           -3.18386965490291        2.01016448129345       -0.98999290707717
H           -3.39271683136208        1.94411106825584        0.74975909364460
H           -1.28207749138935       -3.08856327863538        0.81470571408605
H           -1.09215890579007       -2.99240792104257       -0.96945046969556
H           -2.58170062418739       -2.44721753953823       -0.19464880716256
H            1.03594696175649       -2.73807859636103        0.08326428106052
25
 energy: 151.787628784747 xtb: 6.6.1 (8d0f1dd)
C            2.96524274128183        1.48094580633038        0.20788753414211
N            2.06341642018569        0.62606262431016        0.43742118435873
C            4.47059481654475       -1.25470256701164       -0.45061650735051
N            1.30195651670365       -1.77705596517340        0.13154455514397
C            0.35894539740001       -0.93163364608196        0.13212540527044
C            0.77998450997429        0.44601012875447        0.20144832072926
C           -0.27502436106891        1.60615571750078        0.14877127127626
O            0.07033115001973        2.76382947202283        0.24219468119003
N           -1.58684210382871        1.16956200662668        0.06279409831432
C           -2.69665078420530        2.12513986234090       -0.02948452879566
C           -1.97588221152094       -0.17293078963915       -0.01012468709687
O           -3.14636945425701       -0.45860322661798       -0.12751042767198
N           -1.01300848294995       -1.14843446922340        0.03791597031904
C           -1.51514445293685       -2.51192037482382       -0.08229064295237
H            3.59870583088559        1.83730759553344        1.01226518838321
H            5.46315541847341       -0.81986817774836       -0.05321136037938
H            3.20378264030263        1.91441638282566       -0.75667912667742
H            4.58541405789381       -2.33386880187776       -0.72665447322024
H           -2.31939792458133        3.13829534529862        0.07916645215013
H           -3.20241348892496        2.02188506011928       -0.98988365217781
H           -3.43278752147705        1.93275217234300        0.74600610501097
H           -1.28990376578344       -3.08465378107868        0.81694995992677
H           -1.10599409071175       -2.99232256572227       -0.97143747063014
H           -2.59544947257218       -2.45346733116940       -0.18765228805972
H            1.02743696695746       -2.75653115258085        0.08343263720224
25