25
 energy: -42.091028368227 gnorm: 0.004244386785 xtb: 6.6.1 (8d0f1dd)
C            3.59302689888704        1.49529253497801        0.36248878577227
N            2.50834581231927        0.74936958153180       -0.24287562332880
C            2.75603674235594       -0.49889281690035       -0.76567633207856
N            1.82827643848833       -1.18000555091945       -1.27847181426417
C            0.03044734942292        0.88060895961917       -0.76957672126632
C            1.26942379016787        1.26069242360745       -0.27317027021269
C            0.67875912170138        2.49887422665137        0.26091281680348
O            0.92730330571431        3.49436305253928        0.84886309536092
N           -0.62595062121720        2.01434781944164       -0.28850385247300
C           -1.82494077461192        2.46178466009585       -0.26803686794541
C           -2.47767358374743       -1.74817071024195        0.51242004876220
O           -2.21956368194597       -0.62932695273432        0.31439731192918
N           -2.57054308959714       -2.89154841463960        0.78668134861056
C           -3.18259517748726       -4.15216637368579        0.83281491684119
H            3.99704133621582        0.94924696998034        1.21642035331990
H            4.39179209983566        1.65009440410499       -0.36431753554964
H            3.23475779716264        2.46361324186387        0.70251416387736
H            3.80448934765423       -0.79769026081633       -0.67363222862515
H           -2.01978413454289        3.40629660607036        0.21541216497113
H           -0.38605458908272        0.04628440750187       -1.29241833530096
H           -2.62991426669720        1.89837605220560       -0.71163860627052
H           -2.84540444438863       -4.66160198430336        1.73657058846264
H           -2.88066535897157       -4.73800278048897       -0.03812764701246
H           -4.27061847808472       -4.06292005661953        0.85168329840644
H            2.07443967395959       -2.09068049674521       -1.64356144062060
