25
 energy: -40.417266307840 gnorm: 8.791993378020 xtb: 6.6.1 (8d0f1dd)
C            3.12871403693440        1.18820102427650       -0.19668839476834
N            2.14231933598441        0.14417463059065       -0.09196603549865
C            2.37577037087345       -1.12135505177850        0.23006617200049
N            1.21185762728640       -1.79390122492575        0.23936002770752
C            0.20679210298884       -0.92352784532995       -0.09349165088799
C            0.80457694870841        0.29964062571581       -0.31970152596005
C            0.07267217677625        1.60981831499112       -0.79076451739626
O            0.45225186586406        2.63374628814875       -0.17742876319137
N           -1.59064854307653        1.02858200422293        0.12383378957169
C           -2.20961076054974        1.98151068506209        0.69354647548181
C           -2.10891523968519       -0.27906274284582        0.04932110092128
O           -3.27486330301424       -0.54664104613974        0.11618636060460
N           -1.12171360341893       -1.24538494478074       -0.11314629556878
C           -1.52645454779097       -2.63966463898197       -0.14020547892153
H            3.86069406507978        1.08960182737512        0.60270858742900
H            3.64275231489715        1.13086060108128       -1.15738437755762
H            2.63101546273815        2.15423652113680       -0.11370687647734
H            3.33624826041117       -1.54454012963964        0.44826639756284
H           -1.73133852876364        2.95384338528277        0.68092528961094
H           -0.13769584840566        1.57972982657971       -1.15797290054964
H           -3.16383996061627        1.85048296859197        1.19042680025346
H           -1.33003765362249       -3.12914612550441        0.81580062137715
H           -1.01340771413187       -3.16269536980006       -0.94631940456063
H           -2.59976732824596       -2.66710643186344       -0.32307669922846
H            1.10305997687833       -2.77316460986474        0.46258291594709
25
 energy: -42.119951403612 gnorm: 0.296906235985 xtb: 6.6.1 (8d0f1dd)
C            3.12872677650482        1.18820840972642       -0.19663016886404
N            2.14269943027471        0.14365736971631       -0.09212014910880
C            2.37581261170930       -1.12143808456972        0.22999757580628
N            1.21182683048030       -1.79396022051794        0.23928064678268
C            0.20668913629556       -0.92350704803289       -0.09375791842251
C            0.80879900554542        0.29862625518510       -0.31419580406178
C            0.21491827418905        1.62850620651361       -0.54030310576870
O            0.46054250016337        2.64378903947815       -0.16420255347261
N           -1.59023347129451        1.02876803800319        0.12431705945373
C           -2.20970160640065        1.98152388692386        0.69347311390437
C           -2.10889352613616       -0.27904655515383        0.04930820228795
O           -3.27485890217350       -0.54663318452899        0.11615121392120
N           -1.12172534023003       -1.24533831535125       -0.11307698271729
C           -1.52645652223720       -2.63965824127590       -0.14020632973745
H            3.86070617045001        1.08959031747977        0.60269143705010
H            3.64273760720211        1.13087392370389       -1.15738553423724
H            2.63103492793239        2.15423396450340       -0.11368761900969
H            3.33625188133557       -1.54454675871788        0.44826433100037
H           -1.73133627746464        2.95383757372632        0.68094913026854
H           -0.29310634317194        1.55239240712709       -1.42709038395122
H           -3.16384902694019        1.85048121234737        1.19041118070362
H           -1.33003399494543       -3.12914567041254        0.81580165914276
H           -1.01340725422243       -3.16269715708112       -0.94632178432335
H           -2.59976764592866       -2.66710683108433       -0.32307449809407
H            1.10305627316205       -2.77317199610735        0.46257889934837
25
 energy: -42.142960728563 gnorm: 0.089944278404 xtb: 6.6.1 (8d0f1dd)
C            3.13844080455386        1.18336962240661       -0.18614430099566
N            2.15620255212471        0.13820908062544       -0.06598284314989
C            2.38517450624251       -1.13337181404874        0.23104408633717
N            1.21560054933364       -1.79948594493077        0.23618722879466
C            0.21015182983939       -0.92114000348537       -0.07163365416221
C            0.81740834424218        0.30441075853506       -0.26813796185489
C            0.19229014127959        1.59835586871765       -0.59398495247132
O            0.43121975997289        2.75969628077921       -0.20168609690333
N           -1.58260066748187        1.02546655141997        0.15841389716159
C           -2.21385512448065        1.98095685509025        0.70910546357202
C           -2.10657042916143       -0.27659617312801        0.06503774158983
O           -3.27382777970317       -0.54449054871384        0.11312171406550
N           -1.11786110432862       -1.24245052000653       -0.10631589829144
C           -1.52623575769286       -2.63632054418215       -0.14730412247320
H            3.87494643740680        1.08425943514369        0.60694975968411
H            3.64234585480567        1.12807756956880       -1.15264250117505
H            2.64475323397349        2.15058410612473       -0.10111351884740
H            3.34391564739533       -1.56199820557210        0.43779610099030
H           -1.73481024667272        2.95241591770846        0.69715766195189
H           -0.31585680223341        1.50467044422996       -1.48577045595108
H           -3.17581933916447        1.85389057112941        1.19052768199943
H           -1.33265651819753       -3.13200163460558        0.80617110862023
H           -1.01454517951640       -3.15687461924896       -0.95593529354960
H           -2.59984643641552       -2.66095683041565       -0.33092101581198
H            1.10246723797791       -2.78043768154077        0.44723178877152
25
 energy: -42.148698501350 gnorm: 0.069186264425 xtb: 6.6.1 (8d0f1dd)
C            3.14380758301023        1.18348768591625       -0.17163780850342
N            2.15904835533528        0.14041268555962       -0.05298923708514
C            2.38912298887846       -1.13582728660887        0.22747214265374
N            1.21888586118332       -1.79993379412689        0.22795776775567
C            0.21311353028480       -0.91839780870634       -0.06891934376452
C            0.81729032016103        0.30860829164993       -0.26762470216329
C            0.16284670414353        1.58859316015201       -0.63735905004293
O            0.41587816464530        2.70867430248109       -0.19707488807325
N           -1.57274765325703        1.03063030976431        0.18394798832178
C           -2.21286529719812        1.98684945352904        0.72379299032515
C           -2.09922527901886       -0.26964708172686        0.07705265315133
O           -3.26682688953242       -0.53582326092369        0.11836155403463
N           -1.11325584078844       -1.23871385872971       -0.09955685260887
C           -1.52216084257469       -2.63250890895022       -0.14431871230093
H            3.88738996767432        1.08414273971229        0.61599074205190
H            3.64204717464345        1.12650634019167       -1.14102798649491
H            2.65149468475333        2.15145171960116       -0.08639325034108
H            3.34849378327365       -1.56968086250127        0.42672720275758
H           -1.73536167118172        2.95921639900418        0.71155568815164
H           -0.33898522767820        1.50465620510874       -1.53791604384319
H           -3.19637968587989        1.86637569182864        1.16700305397122
H           -1.32904926001093       -3.13273458308959        0.80700249611795
H           -1.01124315576609       -3.15052030257462       -0.95513872515612
H           -2.59557069863565       -2.65508484079669       -0.32854421168614
H            1.10468389763467       -2.78249385416343        0.43280815067242
25
 energy: -42.151121277303 gnorm: 0.056188294338 xtb: 6.6.1 (8d0f1dd)
C            3.14434955309333        1.18592647556977       -0.16055595326060
N            2.15772523350367        0.14401478858326       -0.04654064996721
C            2.38945168869710       -1.13348356241883        0.22702953504252
N            1.22121799500467       -1.79983372532135        0.22476613566210
C            0.21534930144719       -0.91773979827898       -0.06687980452047
C            0.81393975452022        0.31240979856232       -0.26182520953425
C            0.12646021274467        1.58266482457844       -0.67310479483723
O            0.43696419180029        2.65870798300672       -0.20134414777540
N           -1.56659838671756        1.03192448361616        0.19936243717019
C           -2.21919300731504        1.99447162170792        0.71264175860414
C           -2.09502044469970       -0.26656549117819        0.08581312626498
O           -3.26283057255168       -0.53253469918884        0.12228091421987
N           -1.11014827066098       -1.23747787109114       -0.09254708408633
C           -1.51984943208794       -2.62998584898985       -0.14192230142329
H            3.89285492840110        1.08238676218033        0.62303705170988
H            3.64029247227660        1.13186320507791       -1.13142940512347
H            2.65118666352554        2.15308806517422       -0.06833211631224
H            3.34963320932865       -1.56924408475676        0.42153461390550
H           -1.71739952197063        2.95566200797017        0.74228073303632
H           -0.36709695976816        1.50968768112111       -1.58885012141463
H           -3.20054543239954        1.87328099881807        1.15620506420602
H           -1.32644609058347       -3.13432141239635        0.80703940827044
H           -1.00875129263304       -3.14341850367484       -0.95558688288127
H           -2.59311273531804       -2.64951096618670       -0.32685487374251
H            1.10799845646206       -2.78373419088381        0.42495418468816
25
 energy: -42.151577194608 gnorm: 0.052206678016 xtb: 6.6.1 (8d0f1dd)
C            3.14144442996014        1.18758300430039       -0.15877169851709
N            2.15569459301192        0.14369973190612       -0.05314001566469
C            2.38916881256402       -1.13220983596070        0.22440156038385
N            1.22326926515799       -1.80269700964593        0.22244256990370
C            0.21708349150541       -0.92277314988449       -0.07321717301453
C            0.81280922091874        0.30818894730768       -0.26596852211685
C            0.11959751234033        1.58106432964958       -0.67502391698539
O            0.43671856973064        2.64704895909190       -0.18451298425900
N           -1.55605662932459        1.03096440687964        0.20806048734018
C           -2.20193955921024        1.99127990982378        0.73245958965426
C           -2.09066727547369       -0.26479916493145        0.08434690916987
O           -3.25857988146279       -0.52774345221138        0.13246737568201
N           -1.10938352593613       -1.23935084724921       -0.09410430530979
C           -1.52178732194921       -2.63057699330725       -0.14080954562000
H            3.88877246973272        1.07929645876951        0.62542847454751
H            3.63939939696491        1.14024096432322       -1.12878405385033
H            2.64672971497520        2.15340702719017       -0.05992644060949
H            3.34993826008249       -1.56486775292536        0.42169579268162
H           -1.72250841071927        2.96205814318477        0.72355710706664
H           -0.37194689463076        1.51285912547596       -1.59918014662762
H           -3.20510552885970        1.87981338500294        1.13649888902671
H           -1.32633554771659       -3.13457258686422        0.80780186928960
H           -1.01256818813635       -3.14456270469873       -0.95524471507025
H           -2.59541050823825       -2.64870001747084       -0.32326417602176
H            1.11209504881237       -2.78641233615535        0.42395868682205
25
 energy: -42.152287265331 gnorm: 0.043907230311 xtb: 6.6.1 (8d0f1dd)
C            3.13657280785458        1.19055746382781       -0.15616811198596
N            2.15247894877235        0.14344842642837       -0.06341128711727
C            2.38924591927410       -1.13007417192296        0.22097375359785
N            1.22660260409864       -1.80659040385867        0.22073269495740
C            0.21912510374027       -0.92995863637166       -0.08019009069111
C            0.81126182799224        0.30113282095346       -0.27364037606126
C            0.11422895954573        1.57798341761320       -0.67240179165781
O            0.43063284534800        2.63820328035599       -0.16379191950518
N           -1.55034856449044        1.03280305814261        0.19972291136408
C           -2.19687387563706        1.99634994988908        0.72000796948434
C           -2.08648740577151       -0.26370770966466        0.08492086688311
O           -3.25468395709729       -0.52394034407725        0.14235160172820
N           -1.10916965617325       -1.24195420102352       -0.09328114840344
C           -1.52513054876524       -2.63177442370702       -0.13798307298355
H            3.88194076205538        1.07429460661086        0.62883401849020
H            3.63674563915313        1.15470489516836       -1.12535218403898
H            2.63958205275564        2.15423513863537       -0.04672294204648
H            3.35134354191221       -1.55786771232635        0.42166249528099
H           -1.71141385787441        2.96392133734735        0.72372454452368
H           -0.37338025734437        1.51388141515653       -1.61029557594509
H           -3.19569067630648        1.88401761007897        1.12795317789965
H           -1.32637844736880       -3.13575324703956        0.80984471369672
H           -1.01947560849370       -3.14692658437943       -0.95394511847553
H           -2.59941623315278       -2.64846629979180       -0.31594226835877
H            1.11911959007239       -2.79028114444433        0.42356875726544
25
 energy: -42.153449737039 gnorm: 0.022328225918 xtb: 6.6.1 (8d0f1dd)
C            3.12606054760616        1.19724087685909       -0.14963343625305
N            2.14581332779503        0.14372751921169       -0.08309000413971
C            2.39080750102317       -1.12616112691273        0.21301858288373
N            1.23377232547860       -1.81305797685112        0.21934351848765
C            0.22154959602141       -0.94250044236900       -0.08710816866385
C            0.80667409361079        0.28902071455782       -0.28634900703375
C            0.10268200628032        1.57356740649934       -0.64912559872440
O            0.43685182785603        2.63162433077195       -0.13791023914658
N           -1.54079240165085        1.03460141735648        0.17784050539373
C           -2.18575585423862        2.00450028874671        0.69324317113744
C           -2.07970823194241       -0.26433945516485        0.08772491178234
O           -3.24873523120292       -0.51862437439306        0.16492174741087
N           -1.11033480374929       -1.24790738390303       -0.08850703138978
C           -1.53348469752951       -2.63545514460135       -0.13241587716278
H            3.87053499807393        1.06020138213024        0.63311966152663
H            3.62537030098506        1.19105419581624       -1.12016356567433
H            2.62403252813896        2.15555551895861       -0.01237326383570
H            3.35677474550529       -1.54593503891103        0.41401673736187
H           -1.69016364931559        2.96744654331934        0.71267647947798
H           -0.37473704002289        1.51389856873262       -1.62341726754707
H           -3.17847225759259        1.89084403403642        1.10695891708918
H           -1.32854938382141       -3.14102220813946        0.81328517040208
H           -1.03592914509058       -3.15248703663595       -0.95238756381247
H           -2.60921168396833       -2.64908934286234       -0.30099265763977
H            1.13538209584953       -2.79846472465186        0.41849589597096
25
 energy: -42.153845688429 gnorm: 0.011039691276 xtb: 6.6.1 (8d0f1dd)
C            3.12362131271650        1.19965222059426       -0.14337117759031
N            2.14620657047762        0.14376426264646       -0.08098764949512
C            2.39455629017815       -1.12737285045572        0.21016553647132
N            1.23807332274895       -1.81538853944378        0.21818950218720
C            0.22335231553203       -0.94549915215102       -0.08262494352585
C            0.80627092265950        0.28643780046421       -0.28417956061179
C            0.09587089879696        1.56459445554792       -0.63881064869160
O            0.41911349858081        2.63159182903263       -0.13996507996140
N           -1.53407941691427        1.03870802073741        0.17130563366988
C           -2.18211615846744        2.00982406388551        0.68367368664807
C           -2.07368215452813       -0.26235783173764        0.08982245629918
O           -3.24323183128532       -0.51177486314922        0.17303937366622
N           -1.10903575074062       -1.24903435060627       -0.08490680604950
C           -1.53698362436881       -2.63561464991162       -0.13064073477528
H            3.87407956741577        1.05360653599853        0.63157061209665
H            3.61441768736285        1.20810711026749       -1.11825515039486
H            2.62002417557036        2.15507081016546        0.00862307474186
H            3.36209967935590       -1.54697686558544        0.40415248851374
H           -1.68483700675172        2.97215704408596        0.70490786619894
H           -0.37424994385403        1.50121717848994       -1.63318989830434
H           -3.17394678487568        1.89296086696800        1.09906409968190
H           -1.33075628306839       -3.14407861051193        0.81332662367149
H           -1.04405845834512       -3.15275303035890       -0.95335010418375
H           -2.61337058774354       -2.64571321383192       -0.29571871565448
H            1.14309327364697       -2.80288969953958        0.40933113329308
25
 energy: -42.154070930118 gnorm: 0.004737031731 xtb: 6.6.1 (8d0f1dd)
C            3.12153807736418        1.20145150771866       -0.13763063640080
N            2.14831874728044        0.14290996465593       -0.07056081473050
C            2.39791074841271       -1.13115565782183        0.20847619466268
N            1.24017201538447       -1.81707180329072        0.21565954204300
C            0.22396785218660       -0.94572117344843       -0.07423456210187
C            0.80602625913511        0.28812620566387       -0.27211229498897
C            0.08982943882589        1.55875149924023       -0.62730203677325
O            0.41473165601162        2.63818957194926       -0.15593714132191
N           -1.52883149410207        1.04044893700046        0.17193383330660
C           -2.18057207252662        2.01186485531367        0.68061405141351
C           -2.06926396060032       -0.26169079546452        0.09126702503960
O           -3.23954912841062       -0.50609279521067        0.17493204654675
N           -1.10741652291153       -1.25004574178207       -0.08263696277539
C           -1.53866698515399       -2.63586626268253       -0.12983845720737
H            3.88337954276709        1.05192196544852        0.62501316478549
H            3.59874133159778        1.22045371354986       -1.11899605443859
H            2.61637395550833        2.15393311863366        0.02639690195686
H            3.36583850904709       -1.55290089464454        0.39475672442524
H           -1.68549545653731        2.97549496834456        0.69294746601618
H           -0.37237673012954        1.48955574983718       -1.63862655416632
H           -3.17400994457963        1.89277401130233        1.09375776501826
H           -1.33178145331511       -3.14662305612419        0.81267088639306
H           -1.04927621309522       -3.15218972210108       -0.95500552795486
H           -2.61550533225173       -2.64190580580855       -0.29261825214485
H            1.14634867419166       -2.80637381867829        0.39824531129872
