      -----------------------------------------------------------      
     |                   =====================                   |     
     |                           x T B                           |     
     |                   =====================                   |     
     |                         S. Grimme                         |     
     |          Mulliken Center for Theoretical Chemistry        |     
     |                    University of Bonn                     |     
      -----------------------------------------------------------      

   * xtb version 6.6.1 (8d0f1dd) compiled by 'conda@1efc2f54142f' on 2023-08-01

   xtb is free software: you can redistribute it and/or modify it under
   the terms of the GNU Lesser General Public License as published by
   the Free Software Foundation, either version 3 of the License, or
   (at your option) any later version.
   
   xtb is distributed in the hope that it will be useful,
   but WITHOUT ANY WARRANTY; without even the implied warranty of
   MERCHANTABILITY or FITNESS FOR A PARTICULAR PURPOSE.  See the
   GNU Lesser General Public License for more details.
   
   Cite this work as:
   * C. Bannwarth, E. Caldeweyher, S. Ehlert, A. Hansen, P. Pracht,
     J. Seibert, S. Spicher, S. Grimme, WIREs Comput. Mol. Sci., 2020, 11,
     e01493. DOI: 10.1002/wcms.1493
   
   for GFN2-xTB:
   * C. Bannwarth, S. Ehlert and S. Grimme., J. Chem. Theory Comput., 2019,
     15, 1652-1671. DOI: 10.1021/acs.jctc.8b01176
   for GFN1-xTB:
   * S. Grimme, C. Bannwarth, P. Shushkov, J. Chem. Theory Comput., 2017,
     13, 1989-2009. DOI: 10.1021/acs.jctc.7b00118
   for GFN0-xTB:
   * P. Pracht, E. Caldeweyher, S. Ehlert, S. Grimme, ChemRxiv, 2019, preprint.
     DOI: 10.26434/chemrxiv.8326202.v1
   for GFN-FF:
   * S. Spicher and S. Grimme, Angew. Chem. Int. Ed., 2020, 59, 15665-15673.
     DOI: 10.1002/anie.202004239
   
   for ALPB and GBSA implicit solvation:
   * S. Ehlert, M. Stahn, S. Spicher, S. Grimme, J. Chem. Theory Comput.,
     2021, 17, 4250-4261. DOI: 10.1021/acs.jctc.1c00471
   
   for DFT-D4:
   * E. Caldeweyher, C. Bannwarth and S. Grimme, J. Chem. Phys., 2017,
     147, 034112. DOI: 10.1063/1.4993215
   * E. Caldeweyher, S. Ehlert, A. Hansen, H. Neugebauer, S. Spicher,
     C. Bannwarth and S. Grimme, J. Chem. Phys., 2019, 150, 154122.
     DOI: 10.1063/1.5090222
   * E. Caldeweyher, J.-M. Mewes, S. Ehlert and S. Grimme, Phys. Chem. Chem. Phys.
     2020, 22, 8499-8512. DOI: 10.1039/D0CP00502A
   
   for sTDA-xTB:
   * S. Grimme and C. Bannwarth, J. Chem. Phys., 2016, 145, 054103.
     DOI: 10.1063/1.4959605
   
   in the mass-spec context:
   * V. Asgeirsson, C. Bauer and S. Grimme, Chem. Sci., 2017, 8, 4879.
     DOI: 10.1039/c7sc00601b
   * J. Koopman and S. Grimme, ACS Omega 2019, 4, 12, 15120-15133.
     DOI: 10.1021/acsomega.9b02011
   
   for metadynamics refer to:
   * S. Grimme, J. Chem. Theory Comput., 2019, 155, 2847-2862
     DOI: 10.1021/acs.jctc.9b00143
   
   for SPH calculations refer to:
   * S. Spicher and S. Grimme, J. Chem. Theory Comput., 2021, 17, 1701-1714
     DOI: 10.1021/acs.jctc.0c01306
   
   with help from (in alphabetical order)
   P. Atkinson, C. Bannwarth, F. Bohle, G. Brandenburg, E. Caldeweyher
   M. Checinski, S. Dohm, S. Ehlert, S. Ehrlich, I. Gerasimov, C. Hölzer
   A. Katbashev, J. Koopman, C. Lavigne, S. Lehtola, F. März, M. Müller,
   F. Musil, H. Neugebauer, J. Pisarek, C. Plett, P. Pracht, F. Pultar,
   J. Seibert, P. Shushkov, S. Spicher, M. Stahn, M. Steiner, T. Strunk,
   J. Stückrath, T. Rose, and J. Unsleber
   
 * started run on 2024/04/06 at 11:11:48.323     

           -------------------------------------------------
          |                Calculation Setup                |
           -------------------------------------------------

          program call               : xtb xtbopt.xyz --opt crude --input .xc2 --gfn2
          hostname                   : n-62-30-23
          coordinate file            : xtbopt.xyz
          omp threads                :                     1

   ID    Z sym.   atoms
    1    7 N      1, 17
    2    6 C      2-6, 8, 9, 11-16, 18-23, 25, 26, 28-33
    3    8 O      7, 10, 24, 27
    4    1 H      34-72

molecular fragmentation (1/2 indicates fragments):
112222222222222222222222222222222222222222222222222222222222222222222221
# atoms in fragment 1/2:     3    69
 fragment masses (1/2) :       27.03      428.59
CMA distance (Bohr)    :   9.310
constraining FC (au)   :  0.0500
########################################################################
[WARNING] Please study the warnings concerning your input carefully
-1- readin_getIntValue: could not parse ''
########################################################################

           -------------------------------------------------
          |                 G F N 2 - x T B                 |
           -------------------------------------------------

        Reference                      10.1021/acs.jctc.8b01176
      * Hamiltonian:
        H0-scaling (s, p, d)           1.850000    2.230000    2.230000
        zeta-weighting                 0.500000
      * Dispersion:
        s8                             2.700000
        a1                             0.520000
        a2                             5.000000
        s9                             5.000000
      * Repulsion:
        kExp                           1.500000    1.000000
        rExp                           1.000000
      * Coulomb:
        alpha                          2.000000
        third order                    shell-resolved
        anisotropic                    true
        a3                             3.000000
        a5                             4.000000
        cn-shift                       1.200000
        cn-exp                         4.000000
        max-rad                        5.000000

q/qsh data taken from xtbrestart
CAMM data taken from xtbrestart

          ...................................................
          :                      SETUP                      :
          :.................................................:
          :  # basis functions                 171          :
          :  # atomic orbitals                 171          :
          :  # shells                          105          :
          :  # electrons                       180          :
          :  max. iterations                   250          :
          :  Hamiltonian                  GFN2-xTB          :
          :  restarted?                       true          :
          :  GBSA solvation                  false          :
          :  PC potential                    false          :
          :  electronic temp.         5000.0000000     K    :
          :  accuracy                    1.0000000          :
          :  -> integral cutoff          0.2500000E+02      :
          :  -> integral neglect         0.1000000E-07      :
          :  -> SCF convergence          0.1000000E-05 Eh   :
          :  -> wf. convergence          0.1000000E-03 e    :
          :  Broyden damping             0.4000000          :
          ...................................................

 iter      E             dE          RMSdq      gap      omega  full diag
   1   -100.7468471 -0.100747E+03  0.158E-05    1.04       0.0  T
   2   -100.7468471  0.527791E-10  0.249E-05    1.04     473.5  T
   3   -100.7468471 -0.715659E-10  0.562E-06    1.04    2097.5  T

   *** convergence criteria satisfied after 3 iterations ***

         #    Occupation            Energy/Eh            Energy/eV
      -------------------------------------------------------------
         1        2.0000           -0.8144302             -22.1618
       ...           ...                  ...                  ...
        84        1.9936           -0.5103665             -13.8878
        85        1.9928           -0.5084974             -13.8369
        86        1.9842           -0.4958699             -13.4933
        87        1.9680           -0.4845636             -13.1856
        88        1.9176           -0.4691884             -12.7673
        89        1.8319           -0.4571901             -12.4408
        90        1.6844           -0.4458840             -12.1331 (HOMO)
        91        0.6438           -0.4075661             -11.0904 (LUMO)
        92        0.0025           -0.3138502              -8.5403
        93        0.0025           -0.3136849              -8.5358
        94        0.0024           -0.3131698              -8.5218
        95        0.0018           -0.3084777              -8.3941
       ...           ...                  ...                  ...
       171                          0.9375234              25.5113
      -------------------------------------------------------------
                  HL-Gap            0.0383179 Eh            1.0427 eV
             Fermi-level           -0.4193646 Eh          -11.4115 eV

 SCC (total)                   0 d,  0 h,  0 min,  0.118 sec
 SCC setup                      ...        0 min,  0.001 sec (  0.836%)
 Dispersion                     ...        0 min,  0.002 sec (  1.470%)
 classical contributions        ...        0 min,  0.000 sec (  0.364%)
 integral evaluation            ...        0 min,  0.018 sec ( 15.336%)
 iterations                     ...        0 min,  0.027 sec ( 23.022%)
 molecular gradient             ...        0 min,  0.069 sec ( 58.424%)
 printout                       ...        0 min,  0.001 sec (  0.535%)

         :::::::::::::::::::::::::::::::::::::::::::::::::::::
         ::                     SUMMARY                     ::
         :::::::::::::::::::::::::::::::::::::::::::::::::::::
         :: total energy             -99.339667056788 Eh    ::
         :: gradient norm              0.004116477633 Eh/a0 ::
         :: HOMO-LUMO gap              1.042683488459 eV    ::
         ::.................................................::
         :: SCC energy              -100.746847071629 Eh    ::
         :: -> isotropic ES            0.088368848790 Eh    ::
         :: -> anisotropic ES         -0.001942784942 Eh    ::
         :: -> anisotropic XC          0.053163253688 Eh    ::
         :: -> dispersion             -0.072167661367 Eh    ::
         :: repulsion energy           1.405977329310 Eh    ::
         :: add. restraining           0.000000000000 Eh    ::
         :: total charge               1.000000000000 e     ::
         :::::::::::::::::::::::::::::::::::::::::::::::::::::

      ----------------------------------------------------------- 
     |                   =====================                   |
     |                        A N C O P T                        |
     |                   =====================                   |
     |               Approximate Normal Coordinate               |
     |                Rational Function Optimizer                |
      ----------------------------------------------------------- 

          ...................................................
          :                      SETUP                      :
          :.................................................:
          :   optimization level             crude          :
          :   max. optcycles                   200          :
          :   ANC micro-cycles                  20          :
          :   degrees of freedom               210          :
          :.................................................:
          :   RF solver                   davidson          :
          :   write xtbopt.log                true          :
          :   linear?                        false          :
          :   energy convergence         0.5000000E-03 Eh   :
          :   grad. convergence          0.1000000E-01 Eh/α :
          :   maxmium RF displ.          1.0000000          :
          :   Hlow (freq-cutoff)         0.1000000E-01      :
          :   Hmax (freq-cutoff)         5.0000000          :
          :   S6 in model hess.         20.0000000          :
          ...................................................

generating ANC from model Hessian ...
Using Lindh-Hessian (1995)
 Shifting diagonal of input Hessian by    1.0397603118057269E-002
 Lowest  eigenvalues of input Hessian
    0.010000    0.010382    0.000000    0.000000    0.000000    0.000000
    0.000000    0.000000    0.010439    0.010497    0.010556    0.010632
    0.010687    0.010704    0.010923    0.011015    0.011031    0.011241
 Highest eigenvalues
    1.937849    2.024834    2.045242    2.182174    2.191877    2.533462


........................................................................
.............................. CYCLE    1 ..............................
........................................................................

 iter      E             dE          RMSdq      gap      omega  full diag
   1   -100.7468471 -0.100747E+03  0.438E-06    1.04       0.0  T
   2   -100.7468471  0.146372E-11  0.480E-06    1.04    2456.3  T
   3   -100.7468471 -0.238742E-11  0.221E-06    1.04    5335.7  T
     SCC iter.                  ...        0 min,  0.026 sec
     gradient                   ...        0 min,  0.069 sec
 * total energy  :   -99.3396671 Eh     change       -0.7958079E-12 Eh
   gradient norm :     0.0041165 Eh/α   predicted     0.0000000E+00 (-100.00%)
   displ. norm   :     0.1705892 α      lambda       -0.3891756E-03
   maximum displ.:     0.0902024 α      in ANC's #11, #21, #17, ...

   *** GEOMETRY OPTIMIZATION CONVERGED AFTER 1 ITERATIONS ***

------------------------------------------------------------------------
 total energy gain   :        -0.0000000 Eh       -0.0000 kcal/mol
 total RMSD          :         0.0000002 a0        0.0000 Å
 total power (kW/mol):        -0.0000000 (step)   -0.0000 (real)
------------------------------------------------------------------------

 ANCopt (total)                0 d,  0 h,  0 min,  0.176 sec
 optimizer setup                ...        0 min,  0.000 sec (  0.149%)
 model hessian                  ...        0 min,  0.049 sec ( 27.904%)
 ANC generation                 ...        0 min,  0.006 sec (  3.683%)
 coordinate transformation      ...        0 min,  0.000 sec (  0.032%)
 single point calculation       ...        0 min,  0.117 sec ( 66.347%)
 optimization log               ...        0 min,  0.002 sec (  1.333%)
 hessian update                 ...        0 min,  0.000 sec (  0.001%)
 rational function              ...        0 min,  0.001 sec (  0.494%)

================
 final structure:
================
72
 xtb: 6.6.1 (8d0f1dd)
N            0.10635418270542        4.92659276244540        1.38656746654296
C           -0.18688121957951        3.86532917415205        1.02654367875895
C           -3.40878578515790        1.64129494243920        0.14611709482082
C           -4.03259881994704        0.37902458987864        0.09361569533136
C           -4.05452569083739       -0.39844194663256       -1.09402219837169
C           -4.59340125958075       -1.66359015813652       -1.12467380249446
O           -4.69052703183546       -2.44988614339837       -2.21809324915531
C           -4.30399636913711       -1.93731257126979       -3.47101782780657
C           -5.10545115113144       -2.24348890189626        0.07585063339955
O           -5.54968369981750       -3.50304937076776       -0.03349527507760
C           -6.08633682452543       -4.15176728265431        1.09782139862334
C           -5.11887765607323       -1.47211748836179        1.23690963568401
C           -4.62377812468380       -0.18820498011453        1.24424914685936
C           -2.28549085880487        1.97169848763746       -0.77848364017540
C           -1.20448753590436        0.88157381116697       -0.85575593225380
C           -0.67410360974199        0.53919229522823        0.54670415872500
N            0.26278220602559       -0.54598254915551        0.60399787805588
C            1.66700173286162       -0.27468142601198        0.57641379746301
C            2.28412718864719       -0.11864543666825       -0.83719389363304
C            3.75912428534483        0.10996305540448       -0.72887379442539
C            4.30582752620964        1.37296843516535       -0.90424690367957
C            5.67015692072416        1.58117861753336       -0.77791135086405
C            6.51921881326513        0.53035031686903       -0.45658294679977
O            7.85369194207219        0.61725847282004       -0.30220855139371
C            8.48879088373440        1.85896478253123       -0.50107900578989
C            5.96782039041059       -0.76831529471082       -0.26396600501031
O            6.85847228527957       -1.72896118645476        0.05041355133035
C            6.40328160273801       -3.04141427608955        0.28010445558280
C            4.60212178293586       -0.95285133688053       -0.40785288027458
C           -0.17314792086252       -1.81943249355724        0.10862160216415
C           -3.84667962104407        2.66077604596199        1.15412671737767
C           -2.89252961025323        2.72487335384079        2.35610297385978
C           -3.98273728405175        4.05495135317662        0.52774552054436
H           -3.70982554409308        0.05412631278756       -2.00857519619124
H           -4.87630769227182       -1.04185305347947       -3.73194904803721
H           -4.52270266239227       -2.72542789401480       -4.18876447209292
H           -3.23333808860857       -1.70910252934352       -3.50063803010522
H           -6.97850837037693       -3.63792541570154        1.46873086932487
H           -6.35828302376019       -5.15032587110858        0.76074558421315
H           -5.34786948485969       -4.22784250025911        1.90175717687692
H           -5.52223996567833       -1.88080899834529        2.14928245886554
H           -4.63496612318504        0.36018382201516        2.17110569142967
H           -2.67135408617188        2.14461766196744       -1.78918160300639
H           -1.80910272071320        2.89439447454221       -0.45037319924106
H           -1.60353775530701       -0.02370501855778       -1.31020945159357
H           -0.39074580922952        1.24902396965284       -1.48175160608057
H           -1.53565965574935        0.26714003218564        1.16825480428753
H           -0.20462327267296        1.42290657904167        0.97906156417139
H            2.18242007843119       -1.09637852771933        1.08430758407202
H            1.85378309426160        0.64162926157091        1.14082956162251
H            1.81400764990059        0.72391316586712       -1.34339535151247
H            2.08710870670768       -1.02728253214279       -1.40830342193577
H            3.66612166985639        2.20666326298472       -1.15201282065239
H            6.06595149291667        2.57185315375041       -0.93120013093370
H            8.13246608191353        2.60977087047795        0.21116281082293
H            8.34117696618275        2.22426950027165       -1.52213776038222
H            9.54834546674109        1.67570557059544       -0.33267079709169
H            7.29039158335184       -3.61901960098257        0.53363997646734
H            5.69592407589659       -3.07931208564024        1.11466557176574
H            5.93827656909792       -3.46735943801462       -0.61479180701243
H            4.17469971001789       -1.93501044067501       -0.28057045853095
H           -0.11874763629829       -1.90102196898733       -0.98557855906349
H           -1.20659818711654       -1.98751179350581        0.41158624915862
H            0.45030258728153       -2.60592300728524        0.53536490223197
H           -4.83879176794558        2.37764355355079        1.51899294471837
H           -1.89565872217004        3.01739342354527        2.03419840896716
H           -2.82547099091417        1.76329300831800        2.85692841918557
H           -3.25534005931458        3.46104499756045        3.06873765631627
H           -3.01451608839063        4.48411352019874        0.28537881309249
H           -4.58331566590859        4.01161362609665       -0.37700136563461
H           -4.47629887924886        4.71765325481856        1.23370984379301
H            0.34459044679789        5.84314952285610        1.69548088241985

 Bond Distances (Angstroems)
 ---------------------------
N1-C2=1.1584         N1-H72=0.9961        C2-N1=1.1584         C3-C4=1.4090         C3-C14=1.4919        C3-C31=1.4991        
C4-C3=1.4090         C4-C5=1.4197         C4-C13=1.4125        C5-C4=1.4197         C5-C6=1.3755         C5-H34=1.0771        
C6-C5=1.3755         C6-O7=1.3503         C6-C9=1.4282         O7-C6=1.3503         O7-C8=1.4078         C8-O7=1.4078         
C8-H35=1.0943        C8-H36=1.0882        C8-H37=1.0951        C9-C6=1.4282         C9-O10=1.3401        C9-C12=1.3940        
O10-C9=1.3401        O10-C11=1.4102       C11-O10=1.4102       C11-H38=1.0943       C11-H39=1.0884       C11-H40=1.0943       
C12-C9=1.3940        C12-C13=1.3761       C12-H41=1.0780       C13-C4=1.4125        C13-C12=1.3761       C13-H42=1.0770       
C14-C3=1.4919        C14-C15=1.5372       C14-H43=1.0956       C14-H44=1.0890       C15-C14=1.5372       C15-C16=1.5380       
C15-H45=1.0887       C15-H46=1.0904       C16-C15=1.5380       C16-N17=1.4348       C16-H47=1.0966       C16-H48=1.0901       
N17-C16=1.4348       N17-C18=1.4305       N17-C30=1.4343       C18-N17=1.4305       C18-C19=1.5503       C18-H49=1.0949       
C18-H50=1.0923       C19-C18=1.5503       C19-C20=1.4965       C19-H51=1.0896       C19-H52=1.0911       C20-C19=1.4965       
C20-C21=1.3874       C20-C29=1.3940       C21-C20=1.3874       C21-C22=1.3859       C21-H53=1.0797       C22-C21=1.3859       
C22-C23=1.3887       C22-H54=1.0778       C23-C22=1.3887       C23-O24=1.3462       C23-C26=1.4240       O24-C23=1.3462       
O24-C25=1.4088       C25-O24=1.4088       C25-H55=1.0945       C25-H56=1.0944       C25-H57=1.0884       C26-C23=1.4240       
C26-O27=1.3472       C26-C29=1.3856       O27-C26=1.3472       O27-C28=1.4080       C28-O27=1.4080       C28-H58=1.0885       
C28-H59=1.0947       C28-H60=1.0948       C29-C20=1.3940       C29-C26=1.3856       C29-H61=1.0787       C30-N17=1.4343       
C30-H62=1.0986       C30-H63=1.0900       C30-H64=1.0906       C31-C3=1.4991        C31-C32=1.5360       C31-C33=1.5345       
C31-H65=1.0943       C32-C31=1.5360       C32-H66=1.0876       C32-H67=1.0863       C32-H68=1.0869       C33-C31=1.5345       
C33-H69=1.0865       C33-H70=1.0868       C33-H71=1.0868       H34-C5=1.0771        H35-C8=1.0943        H36-C8=1.0882        
H37-C8=1.0951        H38-C11=1.0943       H39-C11=1.0884       H40-C11=1.0943       H41-C12=1.0780       H42-C13=1.0770       
H43-C14=1.0956       H44-C14=1.0890       H45-C15=1.0887       H46-C15=1.0904       H47-C16=1.0966       H48-C16=1.0901       
H49-C18=1.0949       H50-C18=1.0923       H51-C19=1.0896       H52-C19=1.0911       H53-C21=1.0797       H54-C22=1.0778       
H55-C25=1.0945       H56-C25=1.0944       H57-C25=1.0884       H58-C28=1.0885       H59-C28=1.0947       H60-C28=1.0948       
H61-C29=1.0787       H62-C30=1.0986       H63-C30=1.0900       H64-C30=1.0906       H65-C31=1.0943       H66-C32=1.0876       
H67-C32=1.0863       H68-C32=1.0869       H69-C33=1.0865       H70-C33=1.0868       H71-C33=1.0868       H72-N1=0.9961        
 C  H  Rav=1.0892 sigma=0.0058  Rmin=1.0770  Rmax=1.0986    38
 C  C  Rav=1.4459 sigma=0.0634  Rmin=1.3755  Rmax=1.5503    21
 N  H  Rav=0.9961 sigma=0.0000  Rmin=0.9961  Rmax=0.9961     1
 N  C  Rav=1.3645 sigma=0.1190  Rmin=1.1584  Rmax=1.4348     4
 O  C  Rav=1.3773 sigma=0.0315  Rmin=1.3401  Rmax=1.4102     8

 selected bond angles (degree)
 --------------------
H72-N1-C2=179.17               C14-C3-C4=120.57               C31-C3-C4=120.33               C31-C3-C14=119.08              
C5-C4-C3=121.91                C13-C4-C3=120.98               C13-C4-C5=117.07               C6-C5-C4=121.90                
H34-C5-C4=118.38               H34-C5-C6=119.53               O7-C6-C5=125.58                C9-C6-C5=119.68                
C9-C6-O7=114.74                C8-O7-C6=119.27                H35-C8-O7=111.50               H36-C8-O7=105.55               
H36-C8-H35=109.29              H37-C8-O7=111.62               H37-C8-H35=109.53              H37-C8-H36=109.24              
O10-C9-C6=115.59               C12-C9-C6=118.61               C12-C9-O10=125.79              C11-O10-C9=119.54              

 selected dihedral angles (degree)
 ---------------------------------
C5-C4-C3-C14=333.57           C5-C4-C3-C31=154.91           C13-C4-C3-C14=151.24          C13-C4-C3-C31=332.57          
C6-C5-C4-C3=176.07            C6-C5-C4-C13=358.31           H34-C5-C4-C3=351.05           H34-C5-C4-C13=173.29          
O7-C6-C5-C4=177.84            O7-C6-C5-H34=  2.91           C9-C6-C5-C4=357.68            C9-C6-C5-H34=182.76           
C8-O7-C6-C5=355.30            C8-O7-C6-C9=175.45            H35-C8-O7-C6=301.58           H36-C8-O7-C6=183.02           
H37-C8-O7-C6= 64.44           O10-C9-C6-C5=183.21           O10-C9-C6-O7=  3.07           C12-C9-C6-C5=  3.91           
C12-C9-C6-O7=183.77           C11-O10-C9-C6=180.68          C11-O10-C9-C12=359.91         

 CMA Distance (Angstroems)
 ---------------------------
R(CMA):  4.9266
           -------------------------------------------------
          |                Final Singlepoint                |
           -------------------------------------------------

          ...................................................
          :                      SETUP                      :
          :.................................................:
          :  # basis functions                 171          :
          :  # atomic orbitals                 171          :
          :  # shells                          105          :
          :  # electrons                       180          :
          :  max. iterations                   250          :
          :  Hamiltonian                  GFN2-xTB          :
          :  restarted?                      false          :
          :  GBSA solvation                  false          :
          :  PC potential                    false          :
          :  electronic temp.         5000.0000000     K    :
          :  accuracy                    1.0000000          :
          :  -> integral cutoff          0.2500000E+02      :
          :  -> integral neglect         0.1000000E-07      :
          :  -> SCF convergence          0.1000000E-05 Eh   :
          :  -> wf. convergence          0.1000000E-03 e    :
          :  Broyden damping             0.4000000          :
          ...................................................

 iter      E             dE          RMSdq      gap      omega  full diag
   1   -100.7468471 -0.100747E+03  0.166E-06    1.04       0.0  T
   2   -100.7468471  0.383693E-12  0.210E-06    1.04    5613.4  T
   3   -100.7468471 -0.838440E-12  0.778E-07    1.04   15143.4  T

   *** convergence criteria satisfied after 3 iterations ***

         #    Occupation            Energy/Eh            Energy/eV
      -------------------------------------------------------------
         1        2.0000           -0.8144301             -22.1618
       ...           ...                  ...                  ...
        84        1.9936           -0.5103665             -13.8878
        85        1.9928           -0.5084974             -13.8369
        86        1.9842           -0.4958699             -13.4933
        87        1.9680           -0.4845636             -13.1856
        88        1.9176           -0.4691884             -12.7673
        89        1.8319           -0.4571901             -12.4408
        90        1.6844           -0.4458840             -12.1331 (HOMO)
        91        0.6438           -0.4075661             -11.0904 (LUMO)
        92        0.0025           -0.3138502              -8.5403
        93        0.0025           -0.3136850              -8.5358
        94        0.0024           -0.3131699              -8.5218
        95        0.0018           -0.3084776              -8.3941
       ...           ...                  ...                  ...
       171                          0.9375234              25.5113
      -------------------------------------------------------------
                  HL-Gap            0.0383178 Eh            1.0427 eV
             Fermi-level           -0.4193646 Eh          -11.4115 eV

 SCC (total)                   0 d,  0 h,  0 min,  0.117 sec
 SCC setup                      ...        0 min,  0.001 sec (  0.760%)
 Dispersion                     ...        0 min,  0.002 sec (  1.383%)
 classical contributions        ...        0 min,  0.000 sec (  0.366%)
 integral evaluation            ...        0 min,  0.018 sec ( 15.278%)
 iterations                     ...        0 min,  0.026 sec ( 22.567%)
 molecular gradient             ...        0 min,  0.069 sec ( 59.094%)
 printout                       ...        0 min,  0.001 sec (  0.539%)

         :::::::::::::::::::::::::::::::::::::::::::::::::::::
         ::                     SUMMARY                     ::
         :::::::::::::::::::::::::::::::::::::::::::::::::::::
         :: total energy             -99.339667056789 Eh    ::
         :: gradient norm              0.004116530566 Eh/a0 ::
         :: HOMO-LUMO gap              1.042681415389 eV    ::
         ::.................................................::
         :: SCC energy              -100.746847071630 Eh    ::
         :: -> isotropic ES            0.088368799100 Eh    ::
         :: -> anisotropic ES         -0.001942746478 Eh    ::
         :: -> anisotropic XC          0.053163261646 Eh    ::
         :: -> dispersion             -0.072167662925 Eh    ::
         :: repulsion energy           1.405977329310 Eh    ::
         :: add. restraining           0.000000000000 Eh    ::
         :: total charge               1.000000000000 e     ::
         :::::::::::::::::::::::::::::::::::::::::::::::::::::

           -------------------------------------------------
          |                Property Printout                |
           -------------------------------------------------

    * Orbital Energies and Occupations

         #    Occupation            Energy/Eh            Energy/eV
      -------------------------------------------------------------
         1        2.0000           -0.8144301             -22.1618
       ...           ...                  ...                  ...
        78        1.9982           -0.5303067             -14.4304
        79        1.9980           -0.5285366             -14.3822
        80        1.9977           -0.5264426             -14.3252
        81        1.9972           -0.5236607             -14.2495
        82        1.9964           -0.5195661             -14.1381
        83        1.9954           -0.5155285             -14.0282
        84        1.9936           -0.5103665             -13.8878
        85        1.9928           -0.5084974             -13.8369
        86        1.9842           -0.4958699             -13.4933
        87        1.9680           -0.4845636             -13.1856
        88        1.9176           -0.4691884             -12.7673
        89        1.8319           -0.4571901             -12.4408
        90        1.6844           -0.4458840             -12.1331 (HOMO)
        91        0.6438           -0.4075661             -11.0904 (LUMO)
        92        0.0025           -0.3138502              -8.5403
        93        0.0025           -0.3136850              -8.5358
        94        0.0024           -0.3131699              -8.5218
        95        0.0018           -0.3084776              -8.3941
        96        0.0015           -0.3054514              -8.3118
        97        0.0009           -0.2967731              -8.0756
        98        0.0000           -0.1875150              -5.1025
        99        0.0000           -0.1832925              -4.9876
       100                         -0.0906429              -2.4665
       101                         -0.0665057              -1.8097
       ...                                ...                  ...
       171                          0.9375234              25.5113
      -------------------------------------------------------------
                  HL-Gap            0.0383178 Eh            1.0427 eV
             Fermi-level           -0.4193646 Eh          -11.4115 eV

     #   Z          covCN         q      C6AA      α(0)
     1   7 N        1.771    -0.076    23.437     7.169
     2   6 C        0.910    -0.117    39.156    10.472
     3   6 C        2.957     0.020    27.552     8.609
     4   6 C        2.965     0.005    27.912     8.666
     5   6 C        2.918    -0.077    29.915     8.969
     6   6 C        2.858     0.132    25.107     8.213
     7   8 O        1.706    -0.233    17.859     5.706
     8   6 C        3.644     0.028    20.441     6.498
     9   6 C        2.864     0.138    24.992     8.195
    10   8 O        1.706    -0.212    17.522     5.652
    11   6 C        3.645     0.023    20.523     6.511
    12   6 C        2.909    -0.066    29.648     8.928
    13   6 C        2.921    -0.041    29.029     8.836
    14   6 C        3.806    -0.073    21.897     6.661
    15   6 C        3.800    -0.064    21.738     6.638
    16   6 C        3.746    -0.020    21.004     6.537
    17   7 N        2.726    -0.089    22.978     7.119
    18   6 C        3.747    -0.007    20.763     6.499
    19   6 C        3.806    -0.071    21.848     6.654
    20   6 C        2.968     0.008    27.836     8.654
    21   6 C        2.921    -0.045    29.114     8.848
    22   6 C        2.913    -0.066    29.646     8.928
    23   6 C        2.865     0.134    25.067     8.207
    24   8 O        1.706    -0.218    17.627     5.669
    25   6 C        3.645     0.025    20.494     6.506
    26   6 C        2.862     0.135    25.052     8.204
    27   8 O        1.706    -0.221    17.672     5.676
    28   6 C        3.645     0.026    20.468     6.502
    29   6 C        2.920    -0.077    29.930     8.971
    30   6 C        3.697    -0.049    21.626     6.652
    31   6 C        3.853    -0.015    20.806     6.488
    32   6 C        3.755    -0.112    22.693     6.792
    33   6 C        3.756    -0.111    22.673     6.789
    34   1 H        0.926     0.057     2.237     2.339
    35   1 H        0.924     0.053     2.281     2.362
    36   1 H        0.925     0.081     1.967     2.193
    37   1 H        0.924     0.046     2.368     2.406
    38   1 H        0.924     0.060     2.197     2.318
    39   1 H        0.925     0.085     1.933     2.174
    40   1 H        0.924     0.057     2.240     2.340
    41   1 H        0.926     0.059     2.212     2.326
    42   1 H        0.926     0.057     2.233     2.337
    43   1 H        0.924     0.070     2.087     2.259
    44   1 H        0.925     0.081     1.970     2.195
    45   1 H        0.925     0.044     2.390     2.418
    46   1 H        0.924     0.046     2.365     2.405
    47   1 H        0.924     0.053     2.285     2.364
    48   1 H        0.925     0.078     2.001     2.212
    49   1 H        0.924     0.054     2.272     2.357
    50   1 H        0.924     0.056     2.243     2.342
    51   1 H        0.925     0.050     2.314     2.379
    52   1 H        0.924     0.052     2.291     2.367
    53   1 H        0.926     0.050     2.324     2.384
    54   1 H        0.926     0.058     2.220     2.330
    55   1 H        0.924     0.056     2.251     2.347
    56   1 H        0.924     0.057     2.236     2.338
    57   1 H        0.925     0.083     1.949     2.183
    58   1 H        0.925     0.082     1.955     2.187
    59   1 H        0.924     0.052     2.296     2.370
    60   1 H        0.924     0.054     2.265     2.354
    61   1 H        0.926     0.052     2.301     2.372
    62   1 H        0.923     0.044     2.391     2.418
    63   1 H        0.925     0.056     2.245     2.343
    64   1 H        0.924     0.059     2.206     2.323
    65   1 H        0.924     0.052     2.300     2.372
    66   1 H        0.925     0.062     2.178     2.308
    67   1 H        0.925     0.040     2.453     2.449
    68   1 H        0.925     0.053     2.287     2.365
    69   1 H        0.925     0.046     2.370     2.407
    70   1 H        0.925     0.045     2.388     2.417
    71   1 H        0.925     0.053     2.283     2.363
    72   1 H        0.861     0.195     1.130     1.665

 Mol. C6AA /au·bohr⁶  :      47739.978766
 Mol. C8AA /au·bohr⁸  :    1090045.976737
 Mol. α(0) /au        :        335.807796


Wiberg/Mayer (AO) data.
largest (>0.10) Wiberg bond orders for each atom

 ---------------------------------------------------------------------------
     #   Z sym  total        # sym  WBO       # sym  WBO       # sym  WBO
 ---------------------------------------------------------------------------
     1   7 N    3.642 --     2 C    2.710    72 H    0.912
     2   6 C    2.826 --     1 N    2.710
     3   6 C    3.536 --     4 C    1.312    14 C    1.047    31 C    1.029
     4   6 C    3.970 --     3 C    1.312    13 C    1.266     5 C    1.245
     5   6 C    3.884 --     6 C    1.456     4 C    1.245    34 H    0.958
     6   6 C    3.912 --     5 C    1.456     9 C    1.190     7 O    1.095
     7   8 O    2.252 --     6 C    1.095     8 C    0.979
     8   6 C    3.933 --     7 O    0.979    36 H    0.977    37 H    0.974
                            35 H    0.973
     9   6 C    3.817 --    12 C    1.340     6 C    1.190    10 O    1.130
    10   8 O    2.259 --     9 C    1.130    11 C    0.973
    11   6 C    3.926 --    39 H    0.977    10 O    0.973    40 H    0.972
                            38 H    0.972
    12   6 C    3.967 --    13 C    1.485     9 C    1.340    41 H    0.962
    13   6 C    3.854 --    12 C    1.485     4 C    1.266    42 H    0.963
    14   6 C    3.979 --     3 C    1.047    15 C    0.982    44 H    0.953
                            43 H    0.929
    15   6 C    3.948 --    14 C    0.982    16 C    0.977    46 H    0.973
                            45 H    0.968
    16   6 C    3.958 --    17 N    1.015    15 C    0.977    48 H    0.958
                            47 H    0.953
    17   7 N    3.137 --    18 C    1.025    30 C    1.023    16 C    1.015
    18   6 C    3.962 --    17 N    1.025    50 H    0.968    49 H    0.963
                            19 C    0.948
    19   6 C    3.959 --    20 C    1.019    51 H    0.971    52 H    0.965
                            18 C    0.948
    20   6 C    3.930 --    21 C    1.395    29 C    1.375    19 C    1.019
    21   6 C    3.929 --    22 C    1.421    20 C    1.395    53 H    0.967
    22   6 C    3.951 --    21 C    1.421    23 C    1.377    54 H    0.963
    23   6 C    3.874 --    22 C    1.377    26 C    1.211    24 O    1.112
    24   8 O    2.246 --    23 C    1.112    25 C    0.976
    25   6 C    3.927 --    57 H    0.977    24 O    0.976    56 H    0.972
                            55 H    0.972
    26   6 C    3.884 --    29 C    1.395    23 C    1.211    27 O    1.107
    27   8 O    2.248 --    26 C    1.107    28 C    0.978
    28   6 C    3.930 --    27 O    0.978    58 H    0.977    59 H    0.973
                            60 H    0.972
    29   6 C    3.950 --    26 C    1.395    20 C    1.375    61 H    0.961
    30   6 C    3.969 --    17 N    1.023    63 H    0.977    64 H    0.975
                            62 H    0.959
    31   6 C    3.984 --     3 C    1.029    33 C    0.986    32 C    0.969
                            65 H    0.958
    32   6 C    3.957 --    67 H    0.983    68 H    0.980    31 C    0.969
                            66 H    0.958
    33   6 C    3.974 --    31 C    0.986    70 H    0.986    71 H    0.982
                            69 H    0.981
    34   1 H    0.995 --     5 C    0.958
    35   1 H    0.994 --     8 C    0.973
    36   1 H    0.993 --     8 C    0.977
    37   1 H    0.994 --     8 C    0.974
    38   1 H    0.990 --    11 C    0.972
    39   1 H    0.992 --    11 C    0.977
    40   1 H    0.991 --    11 C    0.972
    41   1 H    0.994 --    12 C    0.962
    42   1 H    0.996 --    13 C    0.963
    43   1 H    0.965 --    14 C    0.929
    44   1 H    0.991 --    14 C    0.953
    45   1 H    0.997 --    15 C    0.968
    46   1 H    0.996 --    15 C    0.973
    47   1 H    0.983 --    16 C    0.953
    48   1 H    0.992 --    16 C    0.958
    49   1 H    0.988 --    18 C    0.963
    50   1 H    0.994 --    18 C    0.968
    51   1 H    0.996 --    19 C    0.971
    52   1 H    0.994 --    19 C    0.965
    53   1 H    0.997 --    21 C    0.967
    54   1 H    0.995 --    22 C    0.963
    55   1 H    0.990 --    25 C    0.972
    56   1 H    0.990 --    25 C    0.972
    57   1 H    0.992 --    25 C    0.977
    58   1 H    0.992 --    28 C    0.977
    59   1 H    0.992 --    28 C    0.973
    60   1 H    0.991 --    28 C    0.972
    61   1 H    0.996 --    29 C    0.961
    62   1 H    0.972 --    30 C    0.959
    63   1 H    0.993 --    30 C    0.977
    64   1 H    0.990 --    30 C    0.975
    65   1 H    0.992 --    31 C    0.958
    66   1 H    0.995 --    32 C    0.958
    67   1 H    0.998 --    32 C    0.983
    68   1 H    0.993 --    32 C    0.980
    69   1 H    0.997 --    33 C    0.981
    70   1 H    0.997 --    33 C    0.986
    71   1 H    0.994 --    33 C    0.982
    72   1 H    0.960 --     1 N    0.912
 ---------------------------------------------------------------------------

Topologies differ in total number of bonds
Writing topology from bond orders to xtbtopo.mol

molecular dipole:
                 x           y           z       tot (Debye)
 q only:       -0.318       0.581       0.228
   full:       -0.340       1.141       0.275       3.107
molecular quadrupole (traceless):
                xx          xy          yy          xz          yz          zz
 q only:       49.465      15.635      -5.412      -8.561       0.297     -44.054
  q+dip:       42.317      18.599       4.066     -10.287       3.885     -46.383
   full:       43.241      17.069       1.477     -10.184       2.566     -44.718

           -------------------------------------------------
          |                Geometry Summary                 |
           -------------------------------------------------

      molecular mass/u    :      455.6105846
   center of mass at/Å    :       -0.0402865       0.0433883      -0.0703160
  moments of inertia/u·Å² :        0.2827303E+04   0.1028700E+05   0.1204628E+05
rotational constants/cm⁻¹ :        0.5962442E-02   0.1638732E-02   0.1399406E-02

 * 68 selected distances

     #   Z          #   Z                                           value/Å
     1   7 N        2   6 C                                       1.1583975
     3   6 C        4   6 C                                       1.4089805
     4   6 C        5   6 C                                       1.4196546
     5   6 C        6   6 C                                       1.3754733
     6   6 C        7   8 O                                       1.3502819
     7   8 O        8   6 C                                       1.4078203
     6   6 C        9   6 C                                       1.4281936
     9   6 C       10   8 O                                       1.3400716
    10   8 O       11   6 C                                       1.4102160
     9   6 C       12   6 C                                       1.3940059
     4   6 C       13   6 C                                       1.4125155
    12   6 C       13   6 C                                       1.3760847
    14   6 C       15   6 C                                       1.5371765
    15   6 C       16   6 C                                       1.5379945 (max)
    16   6 C       17   7 N                                       1.4347970
    17   7 N       18   6 C                                       1.4304538
    20   6 C       21   6 C                                       1.3873799
    21   6 C       22   6 C                                       1.3858958
    22   6 C       23   6 C                                       1.3886679
    23   6 C       24   8 O                                       1.3461810
    24   8 O       25   6 C                                       1.4088063
    23   6 C       26   6 C                                       1.4239643
    26   6 C       27   8 O                                       1.3471957
    27   8 O       28   6 C                                       1.4080092
    20   6 C       29   6 C                                       1.3940136
    26   6 C       29   6 C                                       1.3856010
    17   7 N       30   6 C                                       1.4342621
    31   6 C       32   6 C                                       1.5359877
    31   6 C       33   6 C                                       1.5344674
     5   6 C       34   1 H                                       1.0770532
     8   6 C       35   1 H                                       1.0942912
     8   6 C       36   1 H                                       1.0881722
     8   6 C       37   1 H                                       1.0951103
    11   6 C       38   1 H                                       1.0943389
    11   6 C       39   1 H                                       1.0884366
    11   6 C       40   1 H                                       1.0942735
    12   6 C       41   1 H                                       1.0780326
    13   6 C       42   1 H                                       1.0769952
    14   6 C       43   1 H                                       1.0955830
    14   6 C       44   1 H                                       1.0890226
    15   6 C       45   1 H                                       1.0887144
    15   6 C       46   1 H                                       1.0904430
    16   6 C       47   1 H                                       1.0966388
    16   6 C       48   1 H                                       1.0900898
    18   6 C       49   1 H                                       1.0948966
    18   6 C       50   1 H                                       1.0922811
    19   6 C       51   1 H                                       1.0895676
    19   6 C       52   1 H                                       1.0911480
    21   6 C       53   1 H                                       1.0796568
    22   6 C       54   1 H                                       1.0777695
    25   6 C       55   1 H                                       1.0945162
    25   6 C       56   1 H                                       1.0944399
    25   6 C       57   1 H                                       1.0883940
    28   6 C       58   1 H                                       1.0885185
    28   6 C       59   1 H                                       1.0946613
    28   6 C       60   1 H                                       1.0947596
    29   6 C       61   1 H                                       1.0786692
    30   6 C       62   1 H                                       1.0985857
    30   6 C       63   1 H                                       1.0899807
    30   6 C       64   1 H                                       1.0905815
    31   6 C       65   1 H                                       1.0943391
    32   6 C       66   1 H                                       1.0876315
    32   6 C       67   1 H                                       1.0862596
    32   6 C       68   1 H                                       1.0869354
    33   6 C       69   1 H                                       1.0864503
    33   6 C       70   1 H                                       1.0868025
    33   6 C       71   1 H                                       1.0868131
     1   7 N       72   1 H                                       0.9961227 (min)

 * 5 distinct bonds (by element types)

   Z      Z             #   av. dist./Å        max./Å        min./Å
   1 H    6 C          38     1.0892330     1.0985857     1.0769952
   6 C    6 C          17     1.4309445     1.5379945     1.3754733
   1 H    7 N           1     0.9961227     0.9961227     0.9961227
   6 C    7 N           4     1.3644776     1.4347970     1.1583975
   6 C    8 O           8     1.3773228     1.4102160     1.3400716


optimized geometry written to: xtbopt.xyz


           -------------------------------------------------
          | TOTAL ENERGY              -99.339667056789 Eh   |
          | GRADIENT NORM               0.004116530566 Eh/α |
          | HOMO-LUMO GAP               1.042681415389 eV   |
           -------------------------------------------------

------------------------------------------------------------------------
 * finished run on 2024/04/06 at 11:11:48.792     
------------------------------------------------------------------------
 total:
 * wall-time:     0 d,  0 h,  0 min,  0.469 sec
 *  cpu-time:     0 d,  0 h,  0 min,  0.438 sec
 * ratio c/w:     0.933 speedup
 SCF:
 * wall-time:     0 d,  0 h,  0 min,  0.118 sec
 *  cpu-time:     0 d,  0 h,  0 min,  0.118 sec
 * ratio c/w:     1.000 speedup
 ANC optimizer:
 * wall-time:     0 d,  0 h,  0 min,  0.301 sec
 *  cpu-time:     0 d,  0 h,  0 min,  0.292 sec
 * ratio c/w:     0.972 speedup

