25
 energy: 60.187175848170 xtb: 6.6.1 (8d0f1dd)
C            3.18567142490002        1.50718277133074        0.15563152853087
N            2.52290642043317        0.22775304935229       -0.04193879620199
C            2.93393697447241       -1.03645300113544        0.11891574649620
N            1.86402670883964       -1.89292409903371        0.09532732962139
C            0.68349615828438       -1.17522334556250       -0.06683667355547
C            1.16084480508649        0.14574482690464       -0.18891269748757
C            0.29571389956327        1.27481712714401       -0.26420487641358
O            0.65832648579018        2.43684858158613       -0.39146948734472
N           -1.00432466509693        0.89403965919530       -0.12973368247318
C           -2.01172605086173        1.93620941695793       -0.04103815593314
C           -1.48504678536088       -0.41903544755313       -0.03093036818962
O           -2.69616494739901       -0.41072462043387        0.09999760364868
N           -0.62490758712704       -1.49833418036235       -0.01873988520837
C           -2.89207222375443       -2.97785162858366       -0.14822971373843
H            4.18161500454677        1.43350666959756        0.57183682311938
H            3.29478769550147        2.07256019263920       -0.77292384286194
H            2.59315435301886        2.12157759941528        0.83875090634881
H            3.94794073771352       -1.37746370215310        0.18276598240083
H           -1.45558798618745        2.86746741211163       -0.05239596327230
H           -2.68943984266148        1.84606224312472       -0.88176363899708
H           -2.57085348896835        1.82503619225658        0.88654943650395
H           -2.77412819195145       -3.41853721627976        0.80215600058733
H           -2.71075864517573       -3.47874840745372       -1.05125399718479
H           -3.23294796788776       -1.98427770966386       -0.16863956298229
H            1.94959059215892       -2.89508154059833        0.19818526544844
