25
 energy: -42.061747436500 gnorm: 0.037416177756 xtb: 6.6.1 (8d0f1dd)
C            3.07157765624014        1.82604542175609        0.03596646274886
N            2.44046830129987        0.54843876019639        0.00455348811197
C            2.31234815339793       -3.10118228416427       -0.06156545331255
N            1.22321942457882       -2.42187039901380       -0.01794661360044
C            0.63330221639859       -1.12229843621778       -0.00788490093667
C            1.19166208756436        0.21054990094903       -0.00026563487957
C            0.18201618384212        1.36126342082500       -0.00570047197761
O            0.53733598860445        2.51870584926166       -0.01410434812929
N           -1.14164320890157        1.05569806983837       -0.00264877308099
C           -2.12131827843988        2.13691275030682       -0.00308618161783
C           -1.66671068402910       -0.21183935836027        0.00774640342648
O           -2.85490133626979       -0.39843628837305        0.01954236774546
N           -0.74761703870440       -1.26370035090500        0.00199833317473
C           -1.41178465035653       -2.56789995725710        0.00331497049184
H            3.51153445013194        1.96056266967968        1.02828930388499
H            3.88170749717361        1.79496929683391       -0.69604083669063
H            2.39010306367201        2.65625806612539       -0.18061231912851
H            3.29443707653827       -2.64331099602327       -0.09620529290968
H           -1.59399653150163        3.08682369220435        0.00588948080372
H           -2.74639328155527        2.05740879861382       -0.89199728017636
H           -2.75841767353706        2.04631167184903        0.87610850976037
H           -1.20038857151756       -3.14211885814190        0.90953290503876
H           -1.20970013722489       -3.13833947763401       -0.90710153817118
H           -2.48592701481038       -2.35943434181838        0.01038709023154
H            0.42951782150596       -3.07127907893068        0.01300194709256
25
 energy: -42.071340635988 gnorm: 0.025300812869 xtb: 6.6.1 (8d0f1dd)
C            3.08096943209777        1.73925707033509        0.03273762224889
N            2.42308654894779        0.49235587856603        0.00427125624783
C            2.37597254118567       -2.97142542301109       -0.05505809079410
N            1.24036654791008       -2.37542464271523       -0.01738025339127
C            0.60366258862124       -1.11215812377164       -0.00716348326237
C            1.16660574138788        0.20325309501634        0.00094018792589
C            0.17164525314358        1.36225511780257       -0.00469705760510
O            0.53590359802582        2.51650819391051       -0.01275027118123
N           -1.15300292766511        1.05867589005366       -0.00261337387964
C           -2.12859316193284        2.14216580810667       -0.00318642281632
C           -1.68458496659717       -0.20773133248006        0.00755956431121
O           -2.87294670746517       -0.39069348659726        0.01902301842614
N           -0.77072296116837       -1.26335779317115        0.00193699616728
C           -1.42365739879952       -2.57171259086229        0.00325787347891
H            3.51719838626737        1.88665650003770        1.02486997007173
H            3.89253456091796        1.71597109881281       -0.69754203950986
H            2.41409427059222        2.58607161640122       -0.18172652921430
H            3.33629142882436       -2.47983174326268       -0.09858221591403
H           -1.59834472158382        3.09036494582972        0.00598574792948
H           -2.75288641433032        2.06290348195729       -0.89248433405643
H           -2.76524311721484        2.05173982877606        0.87615753960019
H           -1.21136898664558       -3.14327984165706        0.91094813915661
H           -1.21931238997173       -3.14003266903975       -0.90800200905451
H           -2.49775175039583       -2.36573732860178        0.00965830440001
H            0.48051611994856       -3.06855500883569        0.01501147861496
25
 energy: -42.080536065654 gnorm: 0.025002985910 xtb: 6.6.1 (8d0f1dd)
C            3.09053006528131        1.62579385177261        0.02876116354927
N            2.40418107894768        0.41448267460039        0.00107301626711
C            2.44475156878555       -2.78978368696528       -0.06160126857069
N            1.24365513946191       -2.32200665172867       -0.00548588228858
C            0.55827805152159       -1.10280071563247       -0.00588865652049
C            1.13354469828697        0.19244882576162        0.00064348538026
C            0.16332661434821        1.36432058790566       -0.00330564242747
O            0.54544399832983        2.51299937680686       -0.01072629289058
N           -1.16415049171990        1.06299737154476       -0.00284516570657
C           -2.13594691985116        2.14959987839456       -0.00350228739069
C           -1.70832874867000       -0.20143284431186        0.00686106457641
O           -2.89694360491004       -0.37850050787103        0.01790406317765
N           -0.80429083850461       -1.26453779032930        0.00188206022487
C           -1.43556495284994       -2.57840717300964        0.00334965296562
H            3.52771632314378        1.78757841660388        1.02022764831531
H            3.90675104567689        1.60941073680067       -0.69720031174834
H            2.44435190238691        2.49690164589896       -0.18402986890938
H            3.37022795709932       -2.23928724684911       -0.09380345166039
H           -1.60307159698014        3.09614610127676        0.00586507233838
H           -2.76087744692899        2.07247638388923       -0.89257418723161
H           -2.77361949584347        2.06127988075435        0.87537114876384
H           -1.20092950483480       -3.14428487628916        0.90751588152476
H           -1.20744584721395       -3.14212627600193       -0.90360739185869
H           -2.51306795919447       -2.38986147914609        0.00864337952449
H            0.53191047833152       -3.07516794227577        0.01764438849547
25
 energy: -42.086024457772 gnorm: 0.034968405652 xtb: 6.6.1 (8d0f1dd)
C            3.10506847290749        1.53575027005289        0.02454913558824
N            2.38787828076006        0.35032683320571       -0.00650370089220
C            2.50233812029286       -2.62746074014586       -0.02535438664821
N            1.25084660863746       -2.28208544571509       -0.03133373421325
C            0.52129594184224       -1.09959672700717       -0.00843576302998
C            1.10537312574723        0.18532950263124        0.00069889836778
C            0.15637130377948        1.36555068301683       -0.00071737464924
O            0.55248901467399        2.50951074740062       -0.00737037901921
N           -1.17380443568222        1.06486200351283       -0.00157628513342
C           -2.14245581265807        2.15499745356306       -0.00278576655769
C           -1.72941424170481       -0.19792741423732        0.00819552386146
O           -2.91817532102045       -0.36993728461286        0.01850645825017
N           -0.83324334723614       -1.26884043380545        0.00188748438536
C           -1.45003354761942       -2.58615409218664        0.00249057375078
H            3.54618028878590        1.69215278549485        1.01672802612770
H            3.92439054999744        1.50682887533712       -0.69866185118088
H            2.47690341771678        2.42500877472875       -0.18535085619790
H            3.37985701740731       -1.99611161435055       -0.09462621644775
H           -1.60667394144682        3.09997738796927        0.00645660746100
H           -2.76836475625545        2.08087480914381       -0.89169282607390
H           -2.78178651846663        2.07020416392014        0.87548422983876
H           -1.20121638031922       -3.14820157388452        0.90514672257779
H           -1.20670632197165       -3.14597992425123       -0.90289961597306
H           -2.52960125800975       -2.41540382985281        0.00716341233334
H            0.59291525394237       -3.08543666832762        0.02117330137427
25
 energy: -42.089775021333 gnorm: 0.033694275015 xtb: 6.6.1 (8d0f1dd)
C            3.12293176016611        1.46037347361294        0.02247546140512
N            2.37122645434556        0.29573847543600       -0.00803921612315
C            2.53646537331919       -2.47890919621065       -0.08522582846082
N            1.26457551200127       -2.24728759088811        0.02583179715613
C            0.49178395843643       -1.09794269036237        0.00003703372213
C            1.08085432868228        0.18219622821581        0.00120861925779
C            0.15003084967476        1.36701920278193       -0.00164733419562
O            0.55675604650693        2.50669681961752       -0.00704846370702
N           -1.18290748869223        1.06547302072895       -0.00406641794473
C           -2.14956936081476        2.15834847118547       -0.00453917702905
C           -1.74780351909694       -0.19584564313631        0.00431243422613
O           -2.93632698066945       -0.36431547161048        0.01352523524412
N           -0.85663034411417       -1.27366172525591        0.00319589538680
C           -1.46115692071227       -2.59429451454369        0.00394233828668
H            3.56768168453392        1.60217878776487        1.01605472386591
H            3.94426323818386        1.40326146342659       -0.69816808090455
H            2.51324842547698        2.36235170329485       -0.18865025646018
H            3.36005232359817       -1.76245372075108       -0.08157787128792
H           -1.61147309170347        3.10215592570738        0.00520526625942
H           -2.77675646812921        2.08739565230438       -0.89309717891479
H           -2.79015285025314        2.07615521633993        0.87343561508890
H           -1.20167101286541       -3.15204634121258        0.90641595480041
H           -1.20119017723274       -3.15179234346386       -0.89866646648691
H           -2.54269196926949       -2.44331153945199        0.00484417792160
H            0.65889174272781       -3.08924512192959        0.02141335679355
25
 energy: -42.092680764073 gnorm: 0.018263471966 xtb: 6.6.1 (8d0f1dd)
C            3.14051572907834        1.41848014801686        0.01861579470079
N            2.35712253216855        0.26685354471462       -0.01960643580914
C            2.54435376460620       -2.38260356167361       -0.03627386607885
N            1.27549618569618       -2.22459279415092       -0.00805519185706
C            0.47556294644287       -1.09609052997760       -0.00641621136457
C            1.06606067280461        0.18407484392489       -0.00219893483595
C            0.14495495564282        1.36872324742076        0.00125161295502
O            0.55644284535544        2.50555422289760       -0.00297324069957
N           -1.19036884428575        1.06495946379916       -0.00158480491043
C           -2.15632389164727        2.15913013731030       -0.00246880101271
C           -1.75983398215572       -0.19542620952700        0.00599645922595
O           -2.94778216626987       -0.36287103498930        0.01467934052937
N           -0.86968294476197       -1.27736349065676        0.00201053964146
C           -1.46472062060178       -2.60149745467035        0.00183165017016
H            3.59110931182546        1.53056386222054        1.01345680544809
H            3.95903173513700        1.33080618407484       -0.70292777692911
H            2.54703014034405        2.32739524234718       -0.18732816596543
H            3.31085514066824       -1.60390207451374       -0.07399776702687
H           -1.61689232334217        3.10228671119336        0.00724537081045
H           -2.78391578635297        2.08977113570576       -0.89110002448962
H           -2.79785738744106        2.07866754155371        0.87515139661665
H           -1.19253733925222       -3.15748604714333        0.90177920166393
H           -1.19305532547030       -3.15605608507973       -0.89905798642141
H           -2.54809362244709       -2.46773893139989        0.00318873893459
H            0.71295978835839       -3.08339952979736        0.01995391460421
25
 energy: -42.093648644562 gnorm: 0.014343691822 xtb: 6.6.1 (8d0f1dd)
C            3.15371799924947        1.39473540416225        0.01641587100401
N            2.34388951228671        0.25350632604903       -0.02454356019563
C            2.56704479701712       -2.30883655622461       -0.02737079046666
N            1.28783043021974       -2.21711776666362       -0.01330218517967
C            0.45955487005975       -1.10071271995954       -0.00756617988463
C            1.05459535318153        0.17992614828765       -0.00396347988036
C            0.13938242189643        1.36610248472525        0.00073736489774
O            0.55449134388749        2.50087720226404       -0.00163317231118
N           -1.19760780086537        1.06276868982958       -0.00109275850395
C           -2.15805288232141        2.16178981270891       -0.00109854373812
C           -1.77138292234293       -0.19633423267021        0.00542864636017
O           -2.95943862235319       -0.36083539285166        0.01362167591677
N           -0.88394430428300       -1.28325232133091        0.00121417099696
C           -1.47406212065298       -2.60895392587531        0.00111898272554
H            3.61185508726633        1.48205108501851        1.00967554243944
H            3.96567003563520        1.28398484318320       -0.70860546912434
H            2.57806463657445        2.31076283670394       -0.18443752067019
H            3.27912539671508       -1.47992798588748       -0.05762058809010
H           -1.61308593343110        3.10205192685074        0.00857947404939
H           -2.78594200828050        2.09628842497806       -0.88974542522117
H           -2.79922737927063        2.08488766403272        0.87701143909951
H           -1.20000556607734       -3.16283697992010        0.90134863623773
H           -1.19893221621857       -3.16204346476257       -0.89911226556439
H           -2.55682317967719       -2.47940112676177        0.00142509910803
H            0.76371456588492       -3.10124183428615        0.01468665389505
25
 energy: -42.094006801666 gnorm: 0.020506275417 xtb: 6.6.1 (8d0f1dd)
C            3.16287736200777        1.40361777750511        0.01570200984433
N            2.33836188576653        0.26818907998833       -0.02587501995763
C            2.56137891041788       -2.29606256166238       -0.02540813051856
N            1.29550443521426       -2.22250943770808       -0.01111421950212
C            0.45977463380438       -1.10504242676614       -0.00805596114672
C            1.05467765790086        0.17822554580272       -0.00587088353031
C            0.13549559561019        1.36345239558842       -0.00060050745318
O            0.54877635014185        2.49796786116446       -0.00135251977057
N           -1.20185060863874        1.05968635094904       -0.00095433103701
C           -2.15897938805153        2.16140057539744        0.00044180187608
C           -1.77381154457847       -0.19913630349231        0.00379569999261
O           -2.96179941624629       -0.36455111825023        0.01132307170105
N           -0.88499053528349       -1.28652988396379       -0.00030665469260
C           -1.47585730775130       -2.61246297937113        0.00015405481243
H            3.62863096363155        1.46757383336402        1.00579487451119
H            3.96367940918797        1.27706743606500       -0.71707795103470
H            2.60042749889341        2.32223575740032       -0.17859883065332
H            3.23367114433228       -1.45601946129399       -0.04088600434798
H           -1.61010622031019        3.09948848169435        0.01041433298797
H           -2.78704717628647        2.09918899033714       -0.88811697326235
H           -2.79920737150421        2.08670773237908        0.87920114319923
H           -1.20200802592190       -3.16532518310408        0.90055747945690
H           -1.19950737354332       -3.16585489431038       -0.89898316107316
H           -2.55837690713773       -2.48290870097473       -0.00067420368042
H            0.79071754244471       -3.11016032513823        0.00766250117879
25
 energy: -42.094286347346 gnorm: 0.009546948454 xtb: 6.6.1 (8d0f1dd)
C            3.16360364947440        1.39970254109772        0.01449405020626
N            2.33830175180788        0.26815137926343       -0.02499352610880
C            2.56970645931910       -2.28416306245169       -0.02078553200695
N            1.29377100236720       -2.22754167177083       -0.01095509032851
C            0.45752399459433       -1.11009839271021       -0.00793514401707
C            1.05387437834718        0.17164660014548       -0.00566243454584
C            0.13481944221357        1.35947670929445        0.00001244935485
O            0.55015692261538        2.49324672491038       -0.00104730602336
N           -1.20250109217459        1.05794347831829       -0.00057017453693
C           -2.15702307835755        2.16190446276261        0.00117828143343
C           -1.77464266525865       -0.20042425776434        0.00300382532630
O           -2.96282151657849       -0.36532980563972        0.00979959775132
N           -0.88681653869793       -1.28861908319670       -0.00125666554160
C           -1.47998661281162       -2.61313456218111       -0.00029315119383
H            3.63433322825318        1.46195325567581        1.00155209352751
H            3.95948051788244        1.27601841052081       -0.72324409366732
H            2.60660835141840        2.32413689347778       -0.17436294520736
H            3.22322151726275       -1.41961452912311       -0.03225868346388
H           -1.60529831160951        3.09834700628401        0.01149375695637
H           -2.78525202802255        2.10233946462922       -0.88737465559042
H           -2.79710843732230        2.08912545775888        0.88012087146453
H           -1.20568549900886       -3.16553298411980        0.90017466289499
H           -1.20236442448277       -3.16732917526794       -0.89851685346326
H           -2.56275819737360       -2.48136422631490       -0.00173180185552
H            0.79728870024259       -3.12260209199857        0.00033008653505
