25
 energy: 0.000000000000 xtb: 6.6.1 (8d0f1dd)
C            3.23720163006194        1.16630919979326        0.08434469647475
N            2.29877817382611        0.07527477071623        0.03981603040599
C            2.58028210190900       -1.21425402444508        0.03006176031096
N            1.43813958087363       -1.93419271955128        0.00098261760884
C            0.39035688448383       -1.05887472636071       -0.00790371836672
C            0.93510056364412        0.21347819449412        0.01709077491437
C            0.09450143893243        1.40504303904423       -0.00410947031874
O            0.49712751527797        2.54126714362870       -0.00342325688240
N           -1.25076640035757        1.06271879480407       -0.03085478223738
C           -2.21907211982101        2.15522099834493       -0.05001256985998
C           -1.81739487048744       -0.20012725993278       -0.04692818574614
O           -2.99983886758376       -0.37846417018721       -0.07008878229737
N           -0.92618586207120       -1.30210215599479       -0.03682761578324
C           -1.46982264913417       -2.64643102187190       -0.06029820460571
H            3.71247264356769        1.21471455160235        1.06488849150277
H            4.00791497605742        1.03430808813993       -0.67357694370751
H            2.69910007168542        2.09770118228144       -0.09130154882931
H            3.56654120610678       -1.63682992603973        0.04233140067262
H           -1.67107961066214        3.09322851271934       -0.02552706933167
H           -2.82428953597071        2.09428624779827       -0.95318082946668
H           -2.87644029173232        2.07745725625962        0.81450067533302
H           -1.17061996399332       -3.19584890659852        0.83242232437030
H           -1.14560257411436       -3.17511610292205       -0.95688275822323
H           -2.55549792440841       -2.55659984320617       -0.07459039797972
H            1.38130855184625       -2.94313852034425       -0.01389874181052
25
 energy: -4.787285585692 xtb: 6.6.1 (8d0f1dd)
C            3.24760070887686        1.17576343406551        0.08658402096360
N            2.30715875816590        0.09636421439922        0.04019066340358
C            2.59981072274428       -1.23035490294143        0.03339707830968
N            1.42714681637425       -1.93855337855464        0.00791027032470
C            0.38939758648717       -1.05555469508339       -0.00526023143394
C            0.92751149503787        0.22088674571906        0.01739652931010
C            0.09753021000438        1.39155980203377       -0.00357471561371
O            0.50297566620552        2.55503476475820       -0.00048345302188
N           -1.27135174733706        1.05052937030343       -0.03597441665144
C           -2.21531172227340        2.15735678881979       -0.03259000235108
C           -1.85959713919340       -0.19802632383802       -0.09770322651893
O           -3.05837428685977       -0.38410212922401       -0.15343059699585
N           -0.94770665229531       -1.29740269759660       -0.04466704005497
C           -1.46330421923624       -2.64939702355667       -0.05306629613774
H            3.72942827748993        1.22071159655804        1.06713471960722
H            4.01516942203192        1.03867778548683       -0.67704102133774
H            2.70522033834020        2.10270381574567       -0.08841257586430
H            3.58061124217500       -1.65330184020540        0.04273143795596
H           -1.65199183967954        3.08756553380826       -0.05125409095932
H           -2.85216850490891        2.08111773047563       -0.91045500696922
H           -2.83733447390639        2.11091842648411        0.86040288875284
H           -1.14846474842940       -3.19543560190720        0.83974051318889
H           -1.13110651501472       -3.18370361729278       -0.94565386762071
H           -2.54844726894514       -2.57140378499342       -0.06142137098544
H            1.36781254208222       -2.94292541129195       -0.00746631315301
25
 energy: -2.850749586954 xtb: 6.6.1 (8d0f1dd)
C            3.26009942611554        1.18063745374571        0.08976752434643
N            2.31058467258137        0.11595416854327        0.04143280487817
C            2.61123278202620       -1.24496878659742        0.04183766267763
N            1.40847684079962       -1.93671391646277        0.01992468225304
C            0.38232982987932       -1.05080354757187        0.00022803065810
C            0.91520032453513        0.22836183612529        0.01942943310459
C            0.09761430218728        1.36882976178038       -0.00205212896933
O            0.49463674372912        2.55228915669332        0.00365327039878
N           -1.30212710934614        1.03554899580825       -0.04364377785698
C           -2.20882776435418        2.16709226581800       -0.00177023745315
C           -1.91485257827628       -0.19333660242007       -0.18356566038391
O           -3.11709261185969       -0.39497443395810       -0.32308989370495
N           -0.97573458946500       -1.28812687759089       -0.05923949900791
C           -1.44824934304900       -2.65450932443198       -0.04186706084897
H            3.75539786229512        1.22436354386151        1.06690534146147
H            4.02463756651289        1.04294443787936       -0.68043539869166
H            2.72050895088824        2.10906664183752       -0.08068479813292
H            3.58717017961761       -1.66666257983872        0.04624660054479
H           -1.62069369273974        3.08366167707942       -0.11186761435709
H           -2.92232093925131        2.05910190419679       -0.82103671190873
H           -2.75282979878047        2.18537712941062        0.95351549253443
H           -1.10443751393296       -3.18837551172857        0.85237789169575
H           -1.10833299361473       -3.20109613620717       -0.92701758669898
H           -2.53429382716121       -2.60583637612199       -0.03641579264842
H            1.35411794859949       -2.93879627767786        0.00440132225712
25
 energy: 3.054177126730 xtb: 6.6.1 (8d0f1dd)
C            3.26928524274803        1.17899557802089        0.09494138749929
N            2.30830344135481        0.12586332662616        0.04501112416367
C            2.60992674196818       -1.25473976459348        0.05555941836810
N            1.39137323235683       -1.93387695889092        0.03143159135636
C            0.37152569979854       -1.04893472055710       -0.00035655362825
C            0.90413967086168        0.23193413016308        0.01940558152745
C            0.09141515760379        1.35454018917538       -0.00581953292021
O            0.47571035254938        2.54753745994271        0.00511832766610
N           -1.33369436800701        1.02587649627776       -0.05694613490101
C           -2.20307182973064        2.18233467682503        0.03338706492735
C           -1.96211641361449       -0.18742903010327       -0.28411623685053
O           -3.15420874008592       -0.40754606274057       -0.50899340160431
N           -0.99932642231785       -1.27992719043020       -0.08374237103382
C           -1.42982606003897       -2.66128651395965       -0.03159004382029
H            3.77719777385435        1.21980024413441        1.06768343004364
H            4.03111655641893        1.04187734395709       -0.68030840486211
H            2.73953078769881        2.11455919514196       -0.06921484306846
H            3.58492580612111       -1.67439828375976        0.05678306363679
H           -1.59920204839424        3.08222862768287       -0.19337558797413
H           -3.01690358987937        2.03683676476186       -0.70072934594009
H           -2.63824510092007        2.27772740145758        1.06180731866896
H           -1.05096106109933       -3.17155165920969        0.86688954964948
H           -1.08557660468986       -3.22299430301189       -0.90763525400054
H           -2.51704130680569       -2.65182053143815       -0.00731492114411
H            1.34793775018523       -2.93657781330003        0.01915867038800
25
 energy: 7.426047565165 xtb: 6.6.1 (8d0f1dd)
C            3.27361118360200        1.17167197437269        0.10050843679160
N            2.30179092508828        0.12565955820410        0.04983747294670
C            2.59827434879230       -1.25796667010688        0.07149840880279
N            1.37921742279081       -1.93115664231396        0.03795403826090
C            0.35903282045321       -1.04917737098051       -0.01049758316349
C            0.89660229173132        0.23134922110133        0.01575882932702
C            0.08148812084688        1.35148635268198       -0.01453917139783
O            0.45511413731873        2.54224653860827        0.00033892608534
N           -1.35975138507762        1.02307930932101       -0.07261748925684
C           -2.19828795083637        2.19760507801246        0.06478582207915
C           -1.99286588959187       -0.17904145438265       -0.37282460954810
O           -3.16265822167052       -0.41489362811094       -0.65597567621572
N           -1.01514225601070       -1.27376844227973       -0.11503443854960
C           -1.41280292327084       -2.66665557818023       -0.02412771912339
H            3.78994207322949        1.20737638936600        1.06932830041649
H            4.03286936774021        1.03441371524200       -0.67798978364967
H            2.75689465680415        2.11657485251770       -0.05762699988154
H            3.57569023582604       -1.67525123731841        0.07244329014298
H           -1.60946038957540        3.08221769259589       -0.25809593559979
H           -3.09035311812781        2.02799354131877       -0.57824456803100
H           -2.52785802657575        2.34893519238310        1.13581669252385
H           -0.99979889184557       -3.14601997414584        0.87973632095571
H           -1.06933501233926       -3.24475742213677       -0.89071647058669
H           -2.49951422807990       -2.69667270911649        0.02344561043648
H            1.34951537671439       -2.93621968448083        0.03387219238202
25
 energy: 7.406343686115 xtb: 6.6.1 (8d0f1dd)
C            3.27214941454786        1.15930530103087        0.10504273812006
N            2.29113010793636        0.11556454279330        0.05605171565003
C            2.57617744399133       -1.25207218704744        0.08818802474809
N            1.37276155427479       -1.92744993734383        0.03764760920025
C            0.34513813892231       -1.05050182078717       -0.02591588714595
C            0.89266402528161        0.22743491477167        0.01083756349468
C            0.07026803670543        1.35803369037839       -0.02427146635829
O            0.43566352858871        2.53509339788847       -0.01068960201364
N           -1.37703129769322        1.02549965744730       -0.08401106119289
C           -2.19524017624121        2.20811746036247        0.08850208000103
C           -2.00419560780604       -0.16754786664816       -0.42674722574429
O           -3.14042854874447       -0.41448122149773       -0.76207418986298
N           -1.02116725207392       -1.27033756458678       -0.14482168907146
C           -1.39944689114494       -2.66833708842764       -0.02030935111299
H            3.79283883610099        1.18763911774477        1.07036205253861
H            4.02809585945041        1.02097697073075       -0.67579389360222
H            2.76951282092507        2.11388717844325       -0.04734443715329
H            3.55889056168207       -1.66715041123635        0.08884245246404
H           -1.65524107268036        3.07917152532771       -0.30180310050546
H           -3.12697128540299        2.03065296104626       -0.46308307194279
H           -2.42962915200773        2.38875288421648        1.16047979363183
H           -0.95770521872724       -3.11457293735565        0.88640688259089
H           -1.06227355627768       -3.26069993142913       -0.87893929654796
H           -2.48223973750912       -2.73204306280028        0.05478813232312
H            1.35849413583818       -2.93590697084948        0.04568912363896
25
 energy: 7.657915862427 xtb: 6.6.1 (8d0f1dd)
C            3.26714476926772        1.14953158647331        0.11350750903887
N            2.28241207508824        0.10813326704760        0.06522765044549
C            2.55919985606274       -1.24237805787451        0.10634463629032
N            1.37063590765026       -1.92474778988260        0.03245363700302
C            0.33621721981522       -1.04994974918341       -0.03652340546657
C            0.88945948486943        0.22654455230214        0.00496169528344
C            0.06606352451469        1.36378295097468       -0.03772379766670
O            0.42683104940625        2.53520629662433       -0.02440610968973
N           -1.38140709933452        1.02578798143714       -0.09323668082371
C           -2.19539104181609        2.20820948361580        0.10121263934403
C           -2.00174924678870       -0.15783909028956       -0.43666796778525
O           -3.11378732648173       -0.41041347982832       -0.84491954256348
N           -1.01907887697438       -1.27089203276530       -0.16235554111379
C           -1.39280214454359       -2.66651869446758       -0.02360134199743
H            3.78634380586711        1.16650851580414        1.07850447015800
H            4.01954978274371        1.00626918563631       -0.66919700832851
H            2.77143415392561        2.10728001809568       -0.03532426989632
H            3.54436933799749       -1.65605920110092        0.10489734280150
H           -1.70322325974522        3.07329198232267       -0.38673465401133
H           -3.18696936072381        2.00338914463016       -0.34779062024050
H           -2.31234599166126        2.42956843385270        1.19553909710588
H           -0.93387568012538       -3.09234686472690        0.87985687106207
H           -1.06311194639728       -3.26493157093382       -0.87957025859027
H           -2.46945003756769       -2.74478595234147        0.07354189125457
H            1.36574571288735       -2.93361231325018        0.04903765453375
25
 energy: 5.993429577071 xtb: 6.6.1 (8d0f1dd)
C            3.26084720666053        1.14498182691537        0.11530458247364
N            2.27647800186235        0.10358775916685        0.07062676785818
C            2.54910078655196       -1.23264057082898        0.12047033683157
N            1.37130636835620       -1.92335817636835        0.02748058082101
C            0.33267638559479       -1.04818525448744       -0.04399654551338
C            0.88724764777273        0.22803773295871       -0.00160174628680
C            0.06549329962486        1.36851022951646       -0.04266668415555
O            0.42447624185735        2.54016505081189       -0.02558652028850
N           -1.37488078766806        1.02659120734487       -0.09898470869603
C           -2.19574203519403        2.20393772350905        0.10589184128041
C           -1.98783544212289       -0.15399733721570       -0.44177221077612
O           -3.08292688044963       -0.40332424917343       -0.86335166126369
N           -1.01162586551358       -1.27580955975021       -0.17382078514255
C           -1.39411012872747       -2.66583859046956       -0.02342927971058
H            3.77793053147054        1.15505194025234        1.08050800118996
H            4.01027023038789        0.99647847790719       -0.66858803267185
H            2.76561554535472        2.10147680460763       -0.03269145729198
H            3.53456672797714       -1.64754046799254        0.11220078177045
H           -1.75389070002915        3.06203745858369       -0.40796648930747
H           -3.18355013474089        1.99383668698017       -0.28553728311472
H           -2.25820965478654        2.43595258265863        1.17458251612202
H           -0.92813935285294       -3.08207867446411        0.87693261662029
H           -1.07234113654056       -3.26720496117789       -0.87952486238346
H           -2.46689221022212       -2.74064557991699        0.08385525216378
H            1.36635002331294       -2.93099345719554        0.04869888561875
25
 energy: 6.489113982372 xtb: 6.6.1 (8d0f1dd)
C            3.25898210055686        1.14534964115113        0.11925995148567
N            2.27486545895776        0.10600110592912        0.07626739025521
C            2.54888056884266       -1.23121869263346        0.13646524304518
N            1.36981196996989       -1.92367817532347        0.02712811685645
C            0.33244354113849       -1.04601850651617       -0.04765478615402
C            0.88435925770524        0.23149833917216       -0.00643414329572
C            0.06625817270780        1.36800125927817       -0.04574406689056
O            0.42370528429442        2.54601478691845       -0.02383290283997
N           -1.37244337897718        1.02546287697956       -0.10691238239689
C           -2.19435888764789        2.20217816002554        0.11154541728294
C           -1.98535700778197       -0.15235350990806       -0.46359958942224
O           -3.07390638270580       -0.40083626115743       -0.90196243601235
N           -1.00988810425150       -1.27873135162313       -0.18627521753465
C           -1.39523863473784       -2.66679614452246       -0.02416967302498
H            3.77613184948726        1.15209300253485        1.08453638655774
H            4.00697111080046        0.99391137325295       -0.66557795156105
H            2.76229347472337        2.10035075134062       -0.02805392108834
H            3.53288546886363       -1.64773833595048        0.11785578078935
H           -1.78912858312480        3.05289616207119       -0.45769953664612
H           -3.21513802605452        1.96288212584216       -0.20965952883267
H           -2.18198156452955        2.46918995515317        1.18774151858023
H           -0.92090060115717       -3.07911109068322        0.87442842195502
H           -1.08040557015711       -3.27258553294043       -0.88057059123858
H           -2.46795802614994       -2.73793380578727        0.09028371884759
H            1.36133117716360       -2.92979953043142        0.04966867743017
25
 energy: 6.119339164645 xtb: 6.6.1 (8d0f1dd)
C            3.25871047625626        1.15077086709900        0.11920360690753
N            2.27727203670154        0.11087892829467        0.08038162894181
C            2.55662592486037       -1.23378470288213        0.15019861336984
N            1.37112183150760       -1.92522979993004        0.02928324250498
C            0.33812028040127       -1.04411888791684       -0.04406311762495
C            0.88417918220221        0.23496514718214       -0.00633159948224
C            0.06716624330563        1.36605251437998       -0.03846086613474
O            0.42536080611504        2.55080173723595       -0.01413552838317
N           -1.36602512954184        1.02459673900873       -0.10616456857369
C           -2.19376189006585        2.19799578450176        0.11109469868234
C           -1.97877239810821       -0.15508241549979       -0.46417708905481
O           -3.07381465130658       -0.39993838213317       -0.91820364737412
N           -1.00566170529014       -1.28226817217486       -0.18874823638218
C           -1.40125101754974       -2.66687996829063       -0.02675430116256
H            3.77797536954784        1.16079726059135        1.08372700696588
H            4.00591815660064        0.99973769211488       -0.66670876429598
H            2.75641346172299        2.10283733939953       -0.02835914274525
H            3.53802057159785       -1.65338650893308        0.11077983463737
H           -1.82115004498465        3.03991893520154       -0.48910145202818
H           -3.21707042752522        1.93161126292598       -0.16157776317981
H           -2.13809487384957        2.49343046723934        1.17412617690224
H           -0.92908398215429       -3.08776083437962        0.86927342929160
H           -1.09501011530009       -3.27518561377871       -0.88542816301648
H           -2.47675660172354       -2.72175098142527        0.08801283485498
H            1.35178316451664       -2.92997980565864        0.04916706252698
25
 energy: 4.341715748470 xtb: 6.6.1 (8d0f1dd)
C            3.25846017356281        1.15940532793335        0.12462798059325
N            2.28231227931209        0.11545318157838        0.08768175315991
C            2.56923329530178       -1.23822994407947        0.16805251973775
N            1.37578897764878       -1.92745854062939        0.03224336070219
C            0.34813464027070       -1.04349381265205       -0.04587039001412
C            0.88755234695268        0.23626778449962       -0.00898182293726
C            0.06748217832840        1.36343155721151       -0.03904374005062
O            0.42818737504349        2.55226022793205       -0.00356411974258
N           -1.35512933424249        1.02386834768921       -0.11495416011035
C           -2.19457518379690        2.19105636367413        0.10195752040803
C           -1.96543147438357       -0.16138655237856       -0.46115023215853
O           -3.07125873617425       -0.39595803982193       -0.86234714948959
N           -0.99846533544070       -1.28661226373463       -0.19608232118125
C           -1.41197360081013       -2.66592193229665       -0.03675640753170
H            3.77795471994061        1.17781948715014        1.08926269782109
H            4.00776176125790        1.01279400279539       -0.66013302037107
H            2.74797963180588        2.10758517838790       -0.02519028249793
H            3.54749614117171       -1.66105323000743        0.09629920395747
H           -1.85917730412582        3.02066966432874       -0.53847234185173
H           -3.22322565377238        1.89026604913575       -0.11120874067949
H           -2.08742296552839        2.52306032968146        1.15075021270372
H           -0.95204505067900       -3.10323072631152        0.85777421017561
H           -1.11616219284448       -3.27665476866680       -0.89804175023692
H           -2.49160199831247       -2.69344785288086        0.07071270088059
H            1.34033997744994       -2.93146123636621        0.04946821486088
25
 energy: 3.108926072963 xtb: 6.6.1 (8d0f1dd)
C            3.25883375961544        1.16289791731499        0.12660617516803
N            2.28567102329403        0.11464410869617        0.09254290816994
C            2.57467632754204       -1.24035065578878        0.17570901767447
N            1.38023813530997       -1.92795179942858        0.03714045740368
C            0.35382259360590       -1.04527980466685       -0.04415359937970
C            0.89269962030013        0.23315013615331       -0.00471683219576
C            0.06644641315044        1.36269949799549       -0.03494381368133
O            0.42909306827429        2.54733975354608        0.00171854148686
N           -1.34973395847510        1.02432501748675       -0.11633179253922
C           -2.19470384787350        2.18855880348190        0.09414861998180
C           -1.95867828480788       -0.16690125853581       -0.44579106502627
O           -3.07830775178126       -0.39848832206041       -0.83102759225555
N           -0.99393856536949       -1.28646732120403       -0.19439301382354
C           -1.41703841236396       -2.66354727099472       -0.04360278102367
H            3.77923997336831        1.18826419933595        1.09067354447961
H            4.00899148404283        1.02014820180852       -0.65821151696727
H            2.74497848551401        2.10983210747422       -0.02502807287258
H            3.55203289028451       -1.66229900117463        0.07472934478966
H           -1.87878441497969        3.00896804190835       -0.55728340656554
H           -3.21699598896547        1.88018695377482       -0.09513384590930
H           -2.07386523358574        2.53504274415185        1.12737272774845
H           -0.96797462013121       -3.11032773244487        0.85267004624765
H           -1.12468356379646       -3.27360381253278       -0.90569150011053
H           -2.49860282055372       -2.67905208578292        0.05689284748695
H            1.33879835631775       -2.93275981634189        0.05313849786053
25
 energy: 2.181351586106 xtb: 6.6.1 (8d0f1dd)
C            3.25767954105362        1.16391642995211        0.13295711690591
N            2.28666151998005        0.11157946622843        0.10239567405741
C            2.57539369074281       -1.24030835793355        0.19462670327447
N            1.38408147701617       -1.92768457586517        0.04206782658800
C            0.35691508340284       -1.04784555963337       -0.04735883185349
C            0.89805115388011        0.22836249331295       -0.00151252047489
C            0.06444517333160        1.36250114263562       -0.03532303771972
O            0.42728319290318        2.54020608951678        0.00630811311727
N           -1.34536827249690        1.02463915760812       -0.12246262184880
C           -2.19226973109393        2.18754180885997        0.08882779141701
C           -1.95293385230142       -0.17296431425133       -0.43613405055924
O           -3.08499810543235       -0.40366109852957       -0.80236454203322
N           -0.98984015196205       -1.28478879043234       -0.19919762402188
C           -1.42013712964406       -2.66036059761007       -0.05378244647881
H            3.77824760384744        1.19440000476539        1.09650801557651
H            4.00836050534300        1.02315952824955       -0.65191888968102
H            2.74283821013604        2.11034958159598       -0.02110681139325
H            3.55172199908541       -1.65812590436799        0.04527089722569
H           -1.91974517573621        2.99242835575447       -0.61163357260335
H           -3.22288482379529        1.86101150209208       -0.03696626598952
H           -2.02070741152560        2.56939871758460        1.10647142613094
H           -0.98014283046943       -3.11115252217053        0.84579276198763
H           -1.12939175912730       -3.27014493436990       -0.91502249034931
H           -2.50217614994674       -2.66994115095424        0.04141590908901
H            1.34113091074521       -2.93348786986585        0.05917536578403
25
 energy: 1.956193010368 xtb: 6.6.1 (8d0f1dd)
C            3.25678332025707        1.16266975811246        0.13526991340303
N            2.28536074405069        0.11042614081527        0.10526820592043
C            2.57297529189047       -1.24015979989053        0.20503276224814
N            1.38338966798225       -1.92753297651020        0.04328624024839
C            0.35533781279720       -1.04908984220823       -0.05123305060110
C            0.89904801886650        0.22613926967751       -0.00255000595024
C            0.06406406741069        1.36198144702037       -0.04060183849362
O            0.42599011177115        2.53729986925418        0.00686921309249
N           -1.34635278082263        1.02459524484065       -0.12859972910320
C           -2.18945833398134        2.19025336351483        0.08570754275206
C           -1.95557228646067       -0.17673355147189       -0.43621999058164
O           -3.09455609973211       -0.40915249085199       -0.78025315761316
N           -0.99167706050979       -1.28156344834785       -0.20059026881327
C           -1.41780891520353       -2.65977718234977       -0.05620556283159
H            3.77619203388055        1.19362867570198        1.09921606918746
H            4.00806309407263        1.01924460361535       -0.64871496657383
H            2.74408611449399        2.10950421816201       -0.02148220050882
H            3.54761283800975       -1.65246645597204        0.02981539679400
H           -1.92452900735602        2.98385872406405       -0.61284883358047
H           -3.21867257971608        1.87324675000222       -0.02914335998092
H           -2.01469465670301        2.57800817841190        1.09626869343051
H           -0.97993236735737       -3.10702419555237        0.84738625882637
H           -1.11944655040465       -3.26794201612981       -0.91525069886802
H           -2.49971067021739       -2.67675197749041        0.03446082136351
H            1.34572286091787       -2.93363370424557        0.06214644238088
25
 energy: 1.807670410139 xtb: 6.6.1 (8d0f1dd)
C            3.25593184817200        1.16074453625934        0.13757949834142
N            2.28321603366568        0.11036481909912        0.10716497619006
C            2.57003392341319       -1.24015194284572        0.21686535292761
N            1.38065143471013       -1.92781015458775        0.04145751705700
C            0.35310083713013       -1.04861297530176       -0.05463349158093
C            0.89791165080806        0.22646906267862       -0.00527838969477
C            0.06482769042798        1.36237444618899       -0.04383520514814
O            0.42563702659237        2.53872844389151        0.00709340784184
N           -1.34685069874128        1.02533108847472       -0.12952833429797
C           -2.18656360457944        2.19225229452227        0.08609080487101
C           -1.95739126053634       -0.17729598410137       -0.43441340018112
O           -3.09797988456599       -0.41046053651566       -0.76907308926753
N           -0.99370105341302       -1.27943416274221       -0.20160293539647
C           -1.41509695614039       -2.65966866891560       -0.05811707534386
H            3.77406823015802        1.18976874402340        1.10210028144120
H            4.00757037274240        1.01381020292864       -0.64544616324399
H            2.74548104797330        2.10816705108197       -0.02042159217330
H            3.54240049856138       -1.64871665959420        0.01925344246736
H           -1.93554403015989        2.98138251012792       -0.62827558744832
H           -3.21753143993999        1.87206504557745       -0.01300560575072
H           -2.00245154685772        2.58594565542374        1.09021747984807
H           -0.97638301106671       -3.10324919999536        0.84636933701592
H           -1.10975668639543       -3.26598935350909       -0.91604587386556
H           -2.49663784783478       -2.68334736223271        0.03085147995726
H            1.34727209381251       -2.93363829776410        0.06166706158129
25