25
 energy: -43.832083615461 gnorm: 0.116752543896 xtb: 6.6.1 (8d0f1dd)
C            3.23299428661081        1.16965094867365        0.08574425038028
N            2.31101416662973        0.07895742557530        0.03858352647735
C            2.62202942766334       -1.22929720275359        0.03059999269886
N            1.45137421165853       -1.94214328089160        0.00121785920717
C            0.40234882578830       -1.06619743962812       -0.00818210548721
C            0.93104847069831        0.20562152398441        0.01421154810868
C            0.09429132257503        1.39454076039007       -0.00438231062607
O            0.49245032959666        2.55127805534190       -0.00319889094179
N           -1.25700904511052        1.05958681582997       -0.03091506641740
C           -2.22393320907963        2.15462430344695       -0.04999090239047
C           -1.82445920903361       -0.19914195250062       -0.04722990982558
O           -3.00760933519031       -0.37757898767265       -0.07030921196895
N           -0.93423936983727       -1.30146619083959       -0.03706994670833
C           -1.47746635014338       -2.64349634053328       -0.06039707678637
H            3.70817685621013        1.21076217862236        1.06843193247064
H            4.00251783011790        1.02946470375268       -0.67597747282231
H            2.69421187949081        2.09598345611110       -0.09160205328959
H            3.69295412102080       -1.62852366935014        0.04556074744607
H           -1.67451554797453        3.09004833319794       -0.02547525841192
H           -2.82940233436269        2.09717063179961       -0.95309781451067
H           -2.88154897809723        2.08033602233780        0.81438742878762
H           -1.18024422230848       -3.19370321517874        0.83219621019536
H           -1.15505272059848       -3.17305521087385       -0.95690548098953
H           -2.56470932526281       -2.55069368877083       -0.07475319993859
H            1.37027307523573       -2.95256990401931       -0.01214023248344
25
 energy: -43.837630731221 gnorm: 0.041078325355 xtb: 6.6.1 (8d0f1dd)
C            3.24319666161527        1.17818455445868        0.08748618697930
N            2.31499115856324        0.09455665855831        0.03602281433163
C            2.62168529665371       -1.24014107447404        0.03054078385393
N            1.44054518682062       -1.94559218648896        0.00126203508630
C            0.40756705535466       -1.06331405381509       -0.00867614983631
C            0.93105239295327        0.21625865339915        0.01292291691051
C            0.10431762080886        1.38745533124898       -0.00557432480919
O            0.49471578232839        2.55818615446012       -0.00452004209009
N           -1.26073584521363        1.04854627169441       -0.03119519034817
C           -2.22132209872319        2.14542880857634       -0.04975517681266
C           -1.82165237970069       -0.20230077794361       -0.04746001427934
O           -3.01768932987137       -0.38621955941097       -0.07045735038797
N           -0.93229035191211       -1.30164883526215       -0.03723325918502
C           -1.47490684549055       -2.64121151691849       -0.06025690814247
H            3.72221057458251        1.22376070168940        1.07007676203716
H            4.01218406372137        1.04421250274555       -0.67645941819352
H            2.69573645805567        2.10118490123497       -0.08814213785667
H            3.63071992964592       -1.63992533031424        0.04452175369011
H           -1.65957126973829        3.07599056927173       -0.02524352820274
H           -2.82744514541649        2.09338742287310       -0.95389882164635
H           -2.87955007108964        2.07669398364831        0.81584439492952
H           -1.17559928027440       -3.19395840375985        0.83204457802296
H           -1.15042049912927       -3.17356687460664       -0.95628876014871
H           -2.56090357333056       -2.54628380109077       -0.07465756963756
H            1.35865966508385       -2.94952602372282       -0.01159701209085
25
 energy: -43.838248632787 gnorm: 0.020253150065 xtb: 6.6.1 (8d0f1dd)
C            3.23882549653045        1.17346744205573        0.08586353876030
N            2.31426843547402        0.09719404910230        0.03374776826605
C            2.64032130949360       -1.24508179765632        0.03229864561061
N            1.45006272970929       -1.94895019603095        0.00194144267735
C            0.41578907834028       -1.07060368581765       -0.00769160240349
C            0.92853362631256        0.21568909982881        0.01386499221971
C            0.11255848273855        1.37901058667038       -0.00293542959016
O            0.49741782474934        2.55545427387818       -0.00097559980788
N           -1.26519234266886        1.04960374333973       -0.02991405162482
C           -2.22397093169421        2.15099922555993       -0.04989246723913
C           -1.81356341605589       -0.19812942306738       -0.04672354202783
O           -3.01432077661035       -0.38333753153523       -0.07086208433470
N           -0.92996939366391       -1.30306268850476       -0.03646696082528
C           -1.48000570862416       -2.63925117857342       -0.06047543742019
H            3.70866900484555        1.21186967122754        1.07259705189060
H            4.00550136434786        1.02729144844568       -0.67697467898408
H            2.68866760773421        2.09440385007049       -0.09509519293166
H            3.64237016691070       -1.61505672403780        0.04467775511032
H           -1.67542055107693        3.09116279460042       -0.02531021135339
H           -2.83185104206720        2.09965805487582       -0.95318130133662
H           -2.88551303994990        2.08308816306152        0.81343542931442
H           -1.18370716053760       -3.19578450803367        0.83150781903166
H           -1.15827194401480       -3.17440787679712       -0.95685777795726
H           -2.56561105505550       -2.54423109701338       -0.07495164575939
H            1.37990739113005       -2.95083761959743       -0.01231989711132
25
 energy: -43.838626852852 gnorm: 0.008447614353 xtb: 6.6.1 (8d0f1dd)
C            3.23987935916640        1.17234999334297        0.08782558398522
N            2.31131862464799        0.09628509781398        0.03417194539944
C            2.63565005853556       -1.24786307740086        0.03188633125989
N            1.44061996914488       -1.94547235265558        0.00157488780308
C            0.41014605626380       -1.06740727884368       -0.00828675959692
C            0.92479428979002        0.21840386084681        0.01344807831446
C            0.11049459772839        1.38045119681418       -0.00635107033982
O            0.48863015888835        2.55765378110971       -0.00638201589123
N           -1.26920754897552        1.04997672639300       -0.03199924607132
C           -2.22319819625713        2.15073580969686       -0.04999545625918
C           -1.81665972118990       -0.19644009665936       -0.04752504161613
O           -3.01619622191064       -0.38244093128926       -0.07034651907738
N           -0.93457832258260       -1.30086314135793       -0.03708912546173
C           -1.47604688648369       -2.64020453647790       -0.05998158777354
H            3.71696522203820        1.21268463990251        1.07058139072603
H            4.00608121858498        1.03529693479185       -0.67679523794910
H            2.69583684575307        2.09809219153003       -0.08598567069220
H            3.64458366934245       -1.62685218497690        0.04378901763180
H           -1.66493281794859        3.08464471721059       -0.02589739486996
H           -2.83013679178360        2.09791277573905       -0.95369001754858
H           -2.88040549575480        2.08101367975917        0.81636382149480
H           -1.17398135501244       -3.19309635280291        0.83242647890561
H           -1.14898733301214       -3.17327034113369       -0.95580076803094
H           -2.56212362309815       -2.55338049176195       -0.07435706213285
H            1.36694940042226       -2.94805254353927       -0.01227800003566
25
 energy: -43.838571170788 gnorm: 0.007569733433 xtb: 6.6.1 (8d0f1dd)
C            3.24004091327782        1.17527501799661        0.08497093392769
N            2.31267356095938        0.09567492678049        0.03445309002418
C            2.63452802889974       -1.24767389491819        0.03364582213958
N            1.44067558890378       -1.94502566614346        0.00233035138839
C            0.41098515104280       -1.06863819241702       -0.00781750935999
C            0.92655489488937        0.21755241379238        0.01490810984197
C            0.11441335706474        1.38074524593585       -0.00187140094715
O            0.49137045288932        2.55676729203485        0.00095165963097
N           -1.26685029755277        1.04909689060846       -0.02952302580660
C           -2.22254426986915        2.14643002351928       -0.04958004201271
C           -1.81397865571427       -0.19777295520100       -0.04687512849123
O           -3.01223703661202       -0.38579420703026       -0.07105057554557
N           -0.93298596648719       -1.30169942631289       -0.03693241320565
C           -1.47982483000115       -2.63861755603466       -0.06130905655597
H            3.71538338867020        1.22661339578536        1.06840215159645
H            4.01047792578426        1.04015047984324       -0.67626040831930
H            2.69401773993930        2.09893609437635       -0.09634475934676
H            3.64559488264590       -1.63238892100409        0.04585070945186
H           -1.66479159958503        3.07970413230265       -0.02383663131965
H           -2.82656367159339        2.09209122401633       -0.95494394630009
H           -2.88255041177285        2.07505540335257        0.81436375602529
H           -1.18396078966098       -3.19484248165074        0.83095157346231
H           -1.15834300349983       -3.17287884248929       -0.95824843373250
H           -2.56494692752046       -2.53949709385969       -0.07580707627969
H            1.36835673119963       -2.94910522723170       -0.01112118809202
25
 energy: -43.838698344116 gnorm: 0.002897888714 xtb: 6.6.1 (8d0f1dd)
C            3.23995718227652        1.17330620759289        0.08767806248506
N            2.31180855227476        0.09596081050500        0.03385911466345
C            2.63367212889872       -1.24671895355132        0.03149714343400
N            1.44097275452103       -1.94487090154556        0.00060254210338
C            0.41086347913344       -1.06868665157216       -0.00882912376687
C            0.92581723125154        0.21803125911149        0.01323777361897
C            0.11439429993231        1.38135824357358       -0.00518192375371
O            0.49168327597501        2.55730101703192       -0.00403759661220
N           -1.26805778947232        1.05024608794686       -0.03124308859922
C           -2.22337365541243        2.14921386891096       -0.05003960243853
C           -1.81486515019742       -0.19723125276196       -0.04703962755589
O           -3.01351825507346       -0.38541306477464       -0.07006950819608
N           -0.93319603336892       -1.30164889784127       -0.03696188479560
C           -1.47707458001893       -2.64004773666321       -0.05979295756295
H            3.71492775854348        1.21673885202715        1.07179945132038
H            4.00859598081904        1.03636040296383       -0.67522701467746
H            2.69407652324408        2.09794418010797       -0.08970285793234
H            3.64300414355160       -1.62854791671516        0.04341580935674
H           -1.66721263548179        3.08364424754854       -0.02599448094317
H           -2.83060129055118        2.09685321220791       -0.95339940694038
H           -2.88238263511315        2.08063658195804        0.81491261262539
H           -1.17832375971218       -3.19452721026940        0.83256009538978
H           -1.15345829021772       -3.17430169316089       -0.95593507926432
H           -2.56266935256054       -2.54632407737592       -0.07397137402918
H            1.37045527305568       -2.94911853920322       -0.01283051575544
25
 energy: -43.838680849318 gnorm: 0.003194113616 xtb: 6.6.1 (8d0f1dd)
C            3.23985344732248        1.17299492126403        0.08516598268797
N            2.31168901684068        0.09600830857866        0.03472903291650
C            2.63395963103558       -1.24660285433190        0.03411006998235
N            1.44093836558687       -1.94465593499063        0.00383980943036
C            0.41044699442310       -1.06886114283564       -0.00690136977086
C            0.92525073960486        0.21817066786090        0.01516973530994
C            0.11426667627245        1.38097034745248       -0.00360205730934
O            0.48981926744193        2.55749508731883       -0.00261735772474
N           -1.26908032093270        1.04985597205913       -0.03063653132656
C           -2.22265848407343        2.14966538740851       -0.04936932892254
C           -1.81613664052467       -0.19681257782937       -0.04749352935574
O           -3.01517749268899       -0.38419128368882       -0.07187521451508
N           -0.93416112120175       -1.30141576183828       -0.03678390606677
C           -1.47717863029045       -2.64012229984196       -0.06164793735884
H            3.71745471597361        1.21617229286619        1.06787685946946
H            4.00567937725167        1.03420720354488       -0.68009020408459
H            2.69408602519076        2.09777634373661       -0.09136779073414
H            3.64327315879605       -1.62635907307413        0.04645732149060
H           -1.66545009765308        3.08378206049290       -0.02383802055961
H           -2.82858611859382        2.09800742533925       -0.95379439328527
H           -2.88182370469154        2.08001637564416        0.81550414793753
H           -1.17753975320945       -3.19440393657352        0.83044290300009
H           -1.15090484112205       -3.17244782786525       -0.95793769060696
H           -2.56321558769151       -2.55031831792268       -0.07696698367739
H            1.37069053323056       -2.94877330672293       -0.00906698475255
25
 energy: -43.838706122246 gnorm: 0.001317689221 xtb: 6.6.1 (8d0f1dd)
C            3.23996467250260        1.17331586396547        0.08713024771683
N            2.31225030204607        0.09575220462351        0.03413899913728
C            2.63430601166541       -1.24688055456272        0.03221037489524
N            1.44119855293200       -1.94469590405159        0.00119750062822
C            0.41080655966348       -1.06901243488806       -0.00835189400161
C            0.92569895685059        0.21806915755889        0.01382702473124
C            0.11493161644698        1.38093652192071       -0.00470885651511
O            0.49007405955055        2.55745913714481       -0.00369678303111
N           -1.26880767587522        1.04971476172011       -0.03110645975929
C           -2.22281124180584        2.14893832970717       -0.04999558609436
C           -1.81571030493948       -0.19685161794395       -0.04717663920673
O           -3.01464016358400       -0.38443318382018       -0.07043504713657
N           -0.93380750515396       -1.30137573050309       -0.03694479523002
C           -1.47783310407758       -2.63966138371218       -0.06016151844137
H            3.71546150567437        1.21678522870149        1.07082365308797
H            4.00782346055244        1.03612616170562       -0.67631797057488
H            2.69424330071598        2.09801244588548       -0.08989429845756
H            3.64389772962664       -1.62734525409188        0.04414993221959
H           -1.66604773147751        3.08330527806624       -0.02542912490421
H           -2.82917547340536        2.09613332678989       -0.95408031375095
H           -2.88157096137800        2.07936202107418        0.81521967689130
H           -1.17826091336164       -3.19359493933484        0.83217865565683
H           -1.15347429578777       -3.17321323424209       -0.95640408473897
H           -2.56370853424862       -2.54783588974104       -0.07432057959241
H            1.37068633316503       -2.94885223592053       -0.01254555135553
25
 energy: -43.838697849105 gnorm: 0.002130167260 xtb: 6.6.1 (8d0f1dd)
C            3.24002535781660        1.17312665367902        0.08675541228535
N            2.31231917220768        0.09524286432089        0.03387457618246
C            2.63340819540221       -1.24726908836381        0.03226975543952
N            1.44076091821141       -1.94482383336132        0.00194422794973
C            0.41088978215140       -1.06892878072837       -0.00828960809491
C            0.92577398277606        0.21818451102811        0.01351188117206
C            0.11553510432424        1.38156335310159       -0.00486768886865
O            0.49118390095759        2.55766577425111       -0.00356586586511
N           -1.26880563567597        1.05035102257294       -0.03101963216888
C           -2.22374627727346        2.14949446156950       -0.04953321767176
C           -1.81499681912880       -0.19693616367524       -0.04716736047364
O           -3.01344890742403       -0.38561895946241       -0.07048187382046
N           -0.93303379339605       -1.30147337618223       -0.03695267360314
C           -1.47626754354814       -2.64023205721181       -0.06059186769966
H            3.71506601786303        1.21768834866402        1.07070343975531
H            4.00865198001719        1.03595629113794       -0.67600534313893
H            2.69414010060757        2.09756353228980       -0.09134654770783
H            3.64290116545028       -1.62967704969626        0.04414321138056
H           -1.66790257304861        3.08421133882712       -0.02549333652680
H           -2.83150905996081        2.09776112236630       -0.95268041077576
H           -2.88301062341641        2.08140564303646        0.81538650925115
H           -1.17834127117119       -3.19533869172656        0.83168214114741
H           -1.15198641337901       -3.17436607273366       -0.95659963162262
H           -2.56178058721992       -2.54624339593298       -0.07568891071514
H            1.36966898315426       -2.94914937171872       -0.01068062363648
25
 energy: -43.838706942941 gnorm: 0.000873623183 xtb: 6.6.1 (8d0f1dd)
C            3.23987392566185        1.17329666513026        0.08686606031723
N            2.31223595501496        0.09548113102164        0.03410413223053
C            2.63363801711234       -1.24691438547201        0.03225819395044
N            1.44103332278469       -1.94469971162335        0.00158292801299
C            0.41080741928862       -1.06905834427071       -0.00823066719599
C            0.92560346921317        0.21815498904502        0.01386882079557
C            0.11549344430159        1.38132444276682       -0.00451239748501
O            0.49074743272198        2.55758633908923       -0.00333246202582
N           -1.26886175498727        1.04999233477931       -0.03098657574255
C           -2.22318684366484        2.14926695751674       -0.04987059335267
C           -1.81531068549817       -0.19696090069463       -0.04716456218470
O           -3.01389834415482       -0.38530120512549       -0.07063981433817
N           -0.93335364214967       -1.30154278534599       -0.03688119803326
C           -1.47698819249669       -2.64010877516803       -0.06034468918261
H            3.71564848152908        1.21703676507723        1.07047503661249
H            4.00774291590187        1.03613111071762       -0.67664175336150
H            2.69398389641228        2.09788751328012       -0.09031077402303
H            3.64323842695325       -1.62836862269245        0.04424684977922
H           -1.66674311178461        3.08369916305993       -0.02534618407765
H           -2.83008236324480        2.09733239557472       -0.95361557284236
H           -2.88253417473020        2.08064699016699        0.81495557831202
H           -1.17830574159822       -3.19479188035131        0.83189479585842
H           -1.15285296980641       -3.17396698824221       -0.95653187935977
H           -2.56266246867531       -2.54698650111699       -0.07487642236255
H            1.37022874219247       -2.94897862107104       -0.01166028812747
25
 energy: -43.824276099228 gnorm: 0.108185234232 xtb: 6.6.1 (8d0f1dd)
C            3.22768293638034        1.16684215172327        0.08624635534884
N            2.32153866983834        0.07749396846592        0.03589744024887
C            2.66384830882518       -1.24412881763271        0.03120767460333
N            1.46521235132754       -1.94857647466402        0.00158027537419
C            0.41342669453477       -1.07480152585981       -0.00834727356553
C            0.92992486113973        0.19665292719700        0.01258755957319
C            0.09425347429675        1.38402904611044       -0.00448246442885
O            0.48641785053538        2.55397677918402       -0.00295979483444
N           -1.26330449163741        1.05664278179231       -0.03096738908255
C           -2.22878752527753        2.15417389995303       -0.04996674344634
C           -1.83122081233147       -0.19778091886405       -0.04759407206610
O           -3.01537598238595       -0.37681070182848       -0.07055984845588
N           -0.94294853615683       -1.30012991254338       -0.03731680265146
C           -1.48510851868214       -2.64055767146085       -0.06049633632683
H            3.70285600761905        1.20701811702197        1.07025096573877
H            3.99634123747952        1.02542708690887       -0.67769833386220
H            2.68938922400225        2.09416585338600       -0.09184439431371
H            3.81753545169912       -1.61151077158128        0.04891595091579
H           -1.67828099372247        3.08907687914301       -0.02540834890964
H           -2.83451617278396        2.10005098331342       -0.95300007821322
H           -2.88665812089633        2.08321183435250        0.81425837947800
H           -1.18988227757896       -3.19167837993747        0.83197984654988
H           -1.16451534881986       -3.17110796024671       -0.95693233904442
H           -2.57379876425025       -2.54465652851942       -0.07491427132173
H            1.35772288129406       -2.95792496722684       -0.01078936483408
25
 energy: -43.833156156726 gnorm: 0.037674644307 xtb: 6.6.1 (8d0f1dd)
C            3.24084497457471        1.17635808011947        0.08743830884871
N            2.32144425058862        0.09181001095837        0.03322317863151
C            2.64689780586674       -1.24686670140066        0.03119397162609
N            1.45563531081447       -1.95182826884916        0.00176937548724
C            0.41893438703779       -1.07220113830987       -0.00876053202219
C            0.93314832485590        0.20874365361459        0.01166187628906
C            0.10667686846052        1.37927461713580       -0.00556228853000
O            0.49151983747601        2.55323395510747       -0.00405275720755
N           -1.26137370294407        1.04688873624245       -0.03114390463732
C           -2.22267550572910        2.14472491402638       -0.04969335852367
C           -1.81984090487443       -0.20347168423456       -0.04753654529042
O           -3.01568749596304       -0.38883548545146       -0.07059367357137
N           -0.93095579600830       -1.30261171928788       -0.03724364743767
C           -1.47922851729176       -2.63961415054712       -0.06031039646225
H            3.71916772395818        1.22269664153587        1.07103423163095
H            4.01050541740851        1.04399661508175       -0.67696717078696
H            2.69326879342077        2.09958887857876       -0.08847244372979
H            3.68938460673425       -1.61718704986344        0.04627578123770
H           -1.66292548071303        3.07648113002880       -0.02516921484316
H           -2.82959571270838        2.09397092133185       -0.95348638178742
H           -2.88172592863051        2.07722426762574        0.81545049300764
H           -1.18425248719704       -3.19395075321033        0.83218308463691
H           -1.15890663181448       -3.17356024078036       -0.95666531151514
H           -2.56592145766905       -2.54057525039328       -0.07476001253006
H            1.35741372479563       -2.95519230087246       -0.01016607004697
25
 energy: -43.833820682431 gnorm: 0.018906851538 xtb: 6.6.1 (8d0f1dd)
C            3.23766292641244        1.17047142123174        0.08629046113403
N            2.32370194598336        0.08713880839814        0.03175701979508
C            2.67045623690904       -1.25281506175215        0.03281972844581
N            1.46987119028359       -1.95461224900525        0.00233827656065
C            0.42684927414319       -1.07932179486579       -0.00818559845163
C            0.93514341501446        0.20634336285978        0.01238006872179
C            0.11229049648266        1.37252596342599       -0.00388216245511
O            0.49206997772210        2.54884950446118       -0.00156912058628
N           -1.26610806806857        1.04806440483792       -0.03033941735678
C           -2.22705332800294        2.14934828201389       -0.04982597103302
C           -1.81537659425636       -0.20027949556317       -0.04710612298317
O           -3.01538452367236       -0.38520146819981       -0.07090768187225
N           -0.92692150362000       -1.30338221198040       -0.03673616527412
C           -1.48687940627467       -2.63603037061474       -0.06053989551280
H            3.70723777726132        1.21020270506162        1.07345798869994
H            4.00295360711454        1.02830191775667       -0.67878935175128
H            2.68341751818596        2.08966987303624       -0.09327600613045
H            3.70850287917204       -1.58651016006455        0.04729765452894
H           -1.67658416722804        3.08767824724339       -0.02523435355980
H           -2.83642151316174        2.10093886254216       -0.95264090256764
H           -2.88955286027781        2.08425658002405        0.81338226161830
H           -1.19444452290342       -3.19299031904763        0.83178132181163
H           -1.16893223465545       -3.17195110199229       -0.95717215115134
H           -2.57323675152600       -2.53544467444650       -0.07500847747492
H            1.37849063341154       -2.95615334717373       -0.01064481068167
25
 energy: -43.834205849229 gnorm: 0.008307087534 xtb: 6.6.1 (8d0f1dd)
C            3.23794513272045        1.17077137101474        0.08766322616333
N            2.32130792915771        0.08692257480873        0.03181176238828
C            2.67029804456465       -1.25736638284734        0.03234862397407
N            1.46067891627846       -1.95051286172727        0.00212562098971
C            0.42101387125408       -1.07498165917628       -0.00844681646836
C            0.93160694541287        0.21066292495023        0.01221928984173
C            0.11061433138468        1.37489277722214       -0.00590275175949
O            0.48370557695662        2.55360783746271       -0.00499915569017
N           -1.27119553094566        1.04881989412642       -0.03159923896769
C           -2.22668012061678        2.15047325588233       -0.04996238527809
C           -1.81945843610740       -0.19760301641648       -0.04755286463800
O           -3.01956537170376       -0.38249447774878       -0.07059028658147
N           -0.93174912360291       -1.30100603804608       -0.03697277371378
C           -1.48166730972570       -2.63803957150920       -0.06012768114906
H            3.71132497604160        1.21115925240113        1.07231127376566
H            4.00262359668091        1.03276818728388       -0.67784259968372
H            2.69027995213863        2.09470479865348       -0.08790600899989
H            3.71469866406563       -1.60714419040250        0.04581837221288
H           -1.66917181839046        3.08454909798740       -0.02567406197377
H           -2.83443343171569        2.10018759954944       -0.95362005397367
H           -2.88553526501074        2.08339357133626        0.81572074651525
H           -1.18204003550383       -3.19212513344627        0.83198905157649
H           -1.15679439984127       -3.17199941239185       -0.95585431090469
H           -2.56849928824522       -2.54877045571389       -0.07460392891805
H            1.36244459920202       -2.95177226506623       -0.01070645625361
25
 energy: -43.834190704620 gnorm: 0.007268827616 xtb: 6.6.1 (8d0f1dd)
C            3.23783637933489        1.17515166999131        0.08586785531044
N            2.32091539700797        0.08900062972365        0.03199101721764
C            2.66857318022595       -1.25538020693367        0.03351971089822
N            1.46016833726665       -1.95079167737750        0.00242536842999
C            0.42133726787773       -1.07702547243106       -0.00831653324567
C            0.93195346257996        0.20972897531353        0.01310302330232
C            0.11474297486085        1.37409401820427       -0.00348719432126
O            0.48741802722665        2.55246001661997       -0.00100025285312
N           -1.26836421115968        1.04639741043037       -0.03029761945922
C           -2.22422949777521        2.14546233031569       -0.04956231682035
C           -1.81584555109116       -0.19986430416485       -0.04731520560392
O           -3.01478425875477       -0.38694824376534       -0.07105126358474
N           -0.93028421648367       -1.30333577083105       -0.03706544405535
C           -1.48682202846649       -2.63720162446705       -0.06106381052101
H            3.71224309651751        1.22255713227139        1.06989059826118
H            4.00565830240546        1.03995623137757       -0.67746580742336
H            2.68996927462129        2.09838566707621       -0.09318822552066
H            3.71426665689774       -1.60796359390915        0.04828622720328
H           -1.66708768735909        3.07914779544625       -0.02428837464696
H           -2.82996580278131        2.09322405851396       -0.95417665256378