25
 energy: -42.146519674291 gnorm: 0.018889137185 xtb: 6.6.1 (8d0f1dd)
C            3.37323823817705        0.89677901124112        0.04084530450078
N            3.56247818927461       -0.48927739022540        0.02284345141149
C            2.69427325749193       -1.38642545930852       -0.00024680069011
N            1.27849029736249       -1.40648304333928       -0.02067172989426
C            0.16651789912961       -0.62548267061104       -0.01264724483885
C           -0.14064052829869        0.77415222096392       -0.01765810397510
C            0.64155448357196        1.88163701332247       -0.03159094648892
O            0.84550468180879        3.02850348565284       -0.05098169533651
N           -1.54090433886631        0.88812312335116       -0.00627874271730
C           -2.33046282628679        2.09321247907102       -0.00300945164635
C           -2.10660097411723       -0.35425096959300        0.00139476779925
O           -3.26590753450171       -0.64686315216803        0.01176929333201
N           -1.02912939293033       -1.26667600750635       -0.00406890223396
C           -1.27753420325131       -2.68551215521672        0.00086398227702
H            3.80167522487313        1.30698040405067        0.95836242584000
H            3.90303587179445        1.34247548040891       -0.80390807020459
H            2.28950695443243        1.19379334322375       -0.01475467831493
H            3.06613354535929       -2.40313082133572       -0.00610611233231
H           -1.68994412051781        2.97004584321751        0.01287281479189
H           -2.96249531896832        2.11856183069905       -0.89240417102593
H           -2.97995989306180        2.09891395948120        0.87390718174097
H           -0.87008593973724       -3.15984535121887        0.89589923850915
H           -0.88637280910172       -3.16305494313304       -0.89980437125624
H           -2.36126336736540       -2.80940154146656        0.01043894175545
H            0.97932411782854       -2.37853614796137       -0.03389476310294
25
 energy: -42.147887719986 gnorm: 0.013384387007 xtb: 6.6.1 (8d0f1dd)
C            3.34498254563503        0.91455766331319        0.04128248665109
N            3.52843065221258       -0.46981468241979        0.02254007197570
C            2.68187805488044       -1.38423523901643       -0.00051156426660
N            1.27338631702628       -1.42317037368049       -0.02094901207607
C            0.17009761799477       -0.63848641417423       -0.01246358846076
C           -0.11713608944733        0.76228179788047       -0.01848414531544
C            0.66062551488362        1.87258909635706       -0.03824956250584
O            0.85661610563095        3.02137046384413       -0.04353427817741
N           -1.52068869530095        0.88463453841916       -0.00639862059809
C           -2.31004881399415        2.09151384990326       -0.00367487018398
C           -2.09741463895759       -0.35279185177786        0.00195630119184
O           -3.25914281108318       -0.63620619967570        0.01235927822233
N           -1.02759726454946       -1.27253570337586       -0.00347317989117
C           -1.28270011706242       -2.69014842571606        0.00134635624232
H            3.78061405030233        1.32039617428700        0.95723569821168
H            3.87669422502683        1.35575880715381       -0.80465804938645
H            2.26522810658362        1.21005652970196       -0.01079313663390
H            3.07322850978670       -2.39461593809949       -0.00857093047832
H           -1.67185587841407        2.96969188809804        0.01262604972101
H           -2.94366972432504        2.11726858997549       -0.89244637150732
H           -2.96209537160234        2.09758821621454        0.87190748968427
H           -0.87574618784202       -3.16534432515852        0.89619457419333
H           -0.89253075008022       -3.16852208622132       -0.89939289533712
H           -2.36758443140823       -2.80805677105290        0.01120488815756
H            0.97686058820345       -2.39554106317974       -0.03388137153296
25
 energy: -42.149143023104 gnorm: 0.018868196767 xtb: 6.6.1 (8d0f1dd)
C            3.28651733780585        0.95076087241964        0.04156186968222
N            3.46101257552313       -0.42727971533788        0.02272670813673
C            2.66232122557958       -1.38344211264320       -0.00194138701044
N            1.26736748485778       -1.46693634985870       -0.02274417050561
C            0.17917675582872       -0.66893792342792       -0.01190582525108
C           -0.06738172280865        0.73503789310198       -0.00428004011294
C            0.69797035871945        1.85582748978585       -0.00045331746992
O            0.85884516408471        3.01128314717889       -0.08122739329560
N           -1.47757847668432        0.87839777919323       -0.00337618142822
C           -2.26292248601979        2.08967977432083       -0.00260474832176
C           -2.07876382546382       -0.34706509151559       -0.00024512881500
O           -3.24598747126166       -0.60893128700929        0.00713161791646
N           -1.02588641243185       -1.28435984601385       -0.00421181726024
C           -1.29681007740363       -2.69934766969073        0.00061514698296
H            3.73027362689972        1.35233090637820        0.95562135165033
H            3.81745101325924        1.38581652238403       -0.80828217473000
H            2.20779853970910        1.24699777775517       -0.00620509181971
H            3.09982874373107       -2.37776862861156       -0.01181307493888
H           -1.62600020120346        2.96817046148284        0.01833094378623
H           -2.89402176092005        2.11708450837913       -0.89392556090133
H           -2.92135835009226        2.09407147166417        0.86890667665392
H           -0.89376404422090       -3.17802336239828        0.89548330854207
H           -0.91040774445861       -3.18127990852110       -0.89988610805944
H           -2.38351811712659       -2.80350804826069        0.01073770961196
H            0.97626937819682       -2.44034011915538       -0.03684169514301
25
 energy: -42.149297717318 gnorm: 0.026121007523 xtb: 6.6.1 (8d0f1dd)
C            3.24842885232235        0.97367064595095        0.04491150633890
N            3.41851461380677       -0.39747696132621        0.01991372107422
C            2.65462794422205       -1.38445557282749       -0.00475089443863
N            1.26758753689883       -1.50300737804015       -0.02301541594740
C            0.18644431489287       -0.69260670318681       -0.01275647465824
C           -0.03448654854290        0.71320739131437       -0.02690721796634
C            0.72193846817603        1.84260401575966       -0.07358333102344
O            0.83669205123849        3.00920968591631       -0.00629540994257
N           -1.44750938989500        0.87414176379347       -0.00840242092523
C           -2.22540095681680        2.09018497258538       -0.00663583577798
C           -2.06618589698292       -0.34181948850289        0.00381564254667
O           -3.23718954320243       -0.58721448818337        0.01617206651492
N           -1.02577000446186       -1.29288648466694       -0.00131853156433
C           -1.31003424182856       -2.70565030629652        0.00393599634220
H            3.69853141177001        1.37443006332086        0.95633264206420
H            3.76511075737408        1.41216254119625       -0.81236004771556
H            2.16316952186145        1.27438685007113        0.01222428094074
H            3.12716493636923       -2.36469335721819       -0.01475928445998
H           -1.58525127228812        2.96618546814375        0.01152837670121
H           -2.85845699519811        2.11715788059332       -0.89645992451225
H           -2.88080057846171        2.09672553077440        0.86726063667401
H           -0.90996595414462       -3.18807944165542        0.89804059434046
H           -0.92984362747955       -3.19150308648993       -0.89718618430495
H           -2.39769056872000       -2.79882727355203        0.01531991277282
H            0.98080668319001       -2.47760772587425       -0.03385278517379
25
 energy: -42.150197254103 gnorm: 0.017199675035 xtb: 6.6.1 (8d0f1dd)
C            3.26135287390477        0.96668616707968        0.04346976856024
N            3.43220395056589       -0.40420131069991        0.02112804128740
C            2.66115387104216       -1.38285011427131       -0.00346551463230
N            1.27131599838349       -1.49690305957152       -0.02176848146176
C            0.18450749373139       -0.68924260337048       -0.01081017016181
C           -0.04665875565038        0.71499245570872       -0.01539563162521
C            0.71467742625382        1.84219001798543       -0.03731282195072
O            0.82389270518636        3.00602159930040       -0.04375954790605
N           -1.45611714359875        0.87379143208304       -0.00537315277798
C           -2.22933383733472        2.09174007175623       -0.00478148244137
C           -2.07030591685259       -0.34380331475890        0.00217991708840
O           -3.24008964845341       -0.59256534159060        0.01133675943740
N           -1.02710567142722       -1.29242567181965       -0.00239064792306
C           -1.31109606217820       -2.70500366728107        0.00202657745883
H            3.70267810851285        1.37315370420426        0.95643911420738
H            3.77479525608846        1.40933686951754       -0.81334447967854
H            2.17255839118058        1.27312282498503        0.00586812312412
H            3.12684570060909       -2.36328803985582       -0.01451761264100
H           -1.58455480414283        2.96463584055436        0.01585181789934
H           -2.85819551617212        2.12232554103223       -0.89703060499037
H           -2.88569603248841        2.10011747282307        0.86775426161409
H           -0.91244022293861       -3.18798964033484        0.89640800182480
H           -0.93079976123625       -3.19081607654403       -0.89891202105582
H           -2.39848807733719       -2.79889249441524        0.01276454229069
H            0.98533118845141       -2.47189412091693       -0.03519313764701
25
 energy: -42.150741717366 gnorm: 0.014179192042 xtb: 6.6.1 (8d0f1dd)
C            3.25796077180647        0.97025162044895        0.04276362443912
N            3.42825492328163       -0.39634002091373        0.02083200924425
C            2.66478169348916       -1.38048656345322       -0.00356157519083
N            1.27560540662153       -1.50609591677877       -0.02075481408423
C            0.18546791983315       -0.69730172473241       -0.00959196860586
C           -0.04551728159558        0.70532829685770       -0.01048238998904
C            0.72247885018677        1.83151620930984       -0.02097862163876
O            0.79660875702203        3.00153094282140       -0.05679269999447
N           -1.45173063031288        0.87067180444442       -0.00432660157421
C           -2.21512855681890        2.09407834898337       -0.00462492550222
C           -2.06901024266195       -0.34478669641786        0.00111888333760
O           -3.23941342929151       -0.59014005277850        0.00883914143514
N           -1.02836334279973       -1.29715011444811       -0.00264423095774
C           -1.31943944621332       -2.70806195697807        0.00158208846249
H            3.69250453304418        1.38331631871300        0.95609416365158
H            3.76106126973611        1.41920198143878       -0.81699590318389
H            2.16012993832171        1.28541581041027        0.00645438357838
H            3.13927132387622       -2.35496293443220       -0.01523099512935
H           -1.56286699322190        2.96165956105352        0.01885163020266
H           -2.83972043777512        2.13136959328433       -0.89921147431869
H           -2.87260782757581        2.10707850085938        0.86645041870196
H           -0.92383672348091       -3.19344564110220        0.89588421596776
H           -0.94184273011452       -3.19575475777420       -0.89929025863183
H           -2.40721523832876       -2.79670345391586        0.01215764537026
H            0.99299900707150       -2.48195061330009       -0.03537012769038
25
 energy: -42.151499818332 gnorm: 0.014178007706 xtb: 6.6.1 (8d0f1dd)
C            3.24558104891805        0.98329558616114        0.04223711760597
N            3.41168897395477       -0.37306052823094        0.01866033703842
C            2.66744464671815       -1.37319935536316       -0.00465591029511
N            1.28202564160318       -1.52612592493595       -0.01817869534674
C            0.18592270244791       -0.71580511215650       -0.00702524450936
C           -0.04049265179409        0.68336646139636       -0.00644660997859
C            0.75498323237875        1.79973008754427       -0.00744984024749
O            0.75201916374883        2.97913851987831       -0.06483707921897
N           -1.43964284370741        0.86448950149682       -0.00353973536275
C           -2.18286481471331        2.09892738866769       -0.00539379342604
C           -2.06552065288818       -0.34658832243626        0.00032713542989
O           -3.23766277038857       -0.58407255068280        0.00641037305167
N           -1.03182981369916       -1.30841992106885       -0.00222743327650
C           -1.33764110459816       -2.71582105871100        0.00131809385381
H            3.67022498535016        1.40803314687529        0.95530438065291
H            3.72497839809995        1.44493080598993       -0.82516247869030
H            2.12554338531404        1.31808095140390        0.01399545360060
H            3.16454652336696       -2.33468159445952       -0.01759203591018
H           -1.51480989144821        2.95511263833772        0.02364845032234
H           -2.79972622134924        2.15014438783025       -0.90421074805731
H           -2.84298644181691        2.12178855071737        0.86279609919480
H           -0.94733875783875       -3.20632177441985        0.89490117697900
H           -0.96546923306687       -3.20725246575195       -0.89949961007859
H           -2.42614621439755       -2.79351819322706        0.01188934885392
H            1.00760422390520       -2.50393268325547       -0.03409713428570
25
 energy: -42.151806030085 gnorm: 0.008775407411 xtb: 6.6.1 (8d0f1dd)
C            3.24541766779209        0.98645262712034        0.04207066476390
N            3.40511855742448       -0.36474556241565        0.01637443427031
C            2.66567413348884       -1.36948929251888       -0.00564989628862
N            1.28367160105506       -1.52843201326243       -0.01691423775949
C            0.18465482370896       -0.71949346380217       -0.00676293990178
C           -0.04153802591278        0.67845714146025       -0.00887478477953
C            0.77555948527214        1.78619304273871       -0.01437786565751
O            0.73649547178974        2.96685194343556       -0.05165742033843
N           -1.43643949409476        0.86284015615609       -0.00494029213614
C           -2.17284798618760        2.10042792714704       -0.00711811554317
C           -2.06453328253410       -0.34803155836290        0.00030333782373
O           -3.23705422191518       -0.58456239898691        0.00710202664095
N           -1.03292619452651       -1.31236832266139       -0.00156954919106
C           -1.34286104774155       -2.71872813798103        0.00221458827503
H            3.66631232229778        1.41593711849788        0.95473836574350
H            3.71061672563539        1.45420987445152       -0.83005936859535
H            2.10990182687589        1.32604424267804        0.02121740138885
H            3.16961316735194       -2.32716199655780       -0.01953160924414
H           -1.49785294346166        2.95125487662925        0.02461909167521
H           -2.78668395766642        2.15776650168371       -0.90754229334173
H           -2.83465491014875        2.12732526175771        0.85965564291948
H           -0.95357802277931       -3.21079105708035        0.89529324463885
H           -0.97245115256652       -3.21144958632767       -0.89860193798148
H           -2.43150229523777       -2.79340298885146        0.01317099062409
H            1.01231926618014       -2.50686579334774       -0.03198786010580
