25
 energy: 22.397080365397 xtb: 6.6.1 (8d0f1dd)
C            3.45244054860474        1.08674423779349        0.15673397538895
N            2.38419091107932        0.12793778612751        0.04047653171416
C            2.61085249648423       -1.23271294058402       -0.05481922672609
N            1.40672236586079       -1.86942583127525       -0.14311939334865
C            0.41106086816785       -0.96278212682331       -0.05507953558945
C            0.94588984238575        0.32648762854021        0.04754774184874
C            0.05247993153222        1.43826840824582        0.12111239541994
O            0.26026372662420        2.63922931522763        0.18929092826484
N           -1.57971742701291        1.13359819379428       -0.01910416690133
C           -2.59458261350679        2.19489195344756       -0.26304861459583
C           -1.97800867805874       -0.12378798480693        0.19337066323248
O           -3.10237256582860       -0.52061909646261        0.37134019115528
N           -0.92735291841878       -1.18581751003723        0.00494627070680
C           -1.33402955448487       -2.57462396004259       -0.10752703898004
H            3.64328950059873        1.36104169823595        1.21105781979368
H            4.37041219837130        0.70546752312237       -0.32600332171755
H            3.19914416300793        2.01710487018230       -0.34195021249650
H            3.54258297272307       -1.74104140818175       -0.15955376636804
H           -1.98897967047003        3.09413221274103       -0.42590851585913
H           -3.27820029231280        1.96647850260480       -1.10737852559276
H           -3.24675892444963        2.41459631526743        0.58872337439602
H           -0.78398709214682       -3.25051776443115        0.57542751037579
H           -1.21730535645634       -2.90481227037609       -1.14932067940460
H           -2.38741264668896       -2.64401027594607        0.18217204009629
H            1.30560878770220       -2.86781881908389       -0.19922387255469
