      -----------------------------------------------------------      
     |                   =====================                   |     
     |                           x T B                           |     
     |                   =====================                   |     
     |                         S. Grimme                         |     
     |          Mulliken Center for Theoretical Chemistry        |     
     |                    University of Bonn                     |     
      -----------------------------------------------------------      

   * xtb version 6.6.1 (8d0f1dd) compiled by 'conda@1efc2f54142f' on 2023-08-01

   xtb is free software: you can redistribute it and/or modify it under
   the terms of the GNU Lesser General Public License as published by
   the Free Software Foundation, either version 3 of the License, or
   (at your option) any later version.
   
   xtb is distributed in the hope that it will be useful,
   but WITHOUT ANY WARRANTY; without even the implied warranty of
   MERCHANTABILITY or FITNESS FOR A PARTICULAR PURPOSE.  See the
   GNU Lesser General Public License for more details.
   
   Cite this work as:
   * C. Bannwarth, E. Caldeweyher, S. Ehlert, A. Hansen, P. Pracht,
     J. Seibert, S. Spicher, S. Grimme, WIREs Comput. Mol. Sci., 2020, 11,
     e01493. DOI: 10.1002/wcms.1493
   
   for GFN2-xTB:
   * C. Bannwarth, S. Ehlert and S. Grimme., J. Chem. Theory Comput., 2019,
     15, 1652-1671. DOI: 10.1021/acs.jctc.8b01176
   for GFN1-xTB:
   * S. Grimme, C. Bannwarth, P. Shushkov, J. Chem. Theory Comput., 2017,
     13, 1989-2009. DOI: 10.1021/acs.jctc.7b00118
   for GFN0-xTB:
   * P. Pracht, E. Caldeweyher, S. Ehlert, S. Grimme, ChemRxiv, 2019, preprint.
     DOI: 10.26434/chemrxiv.8326202.v1
   for GFN-FF:
   * S. Spicher and S. Grimme, Angew. Chem. Int. Ed., 2020, 59, 15665-15673.
     DOI: 10.1002/anie.202004239
   
   for ALPB and GBSA implicit solvation:
   * S. Ehlert, M. Stahn, S. Spicher, S. Grimme, J. Chem. Theory Comput.,
     2021, 17, 4250-4261. DOI: 10.1021/acs.jctc.1c00471
   
   for DFT-D4:
   * E. Caldeweyher, C. Bannwarth and S. Grimme, J. Chem. Phys., 2017,
     147, 034112. DOI: 10.1063/1.4993215
   * E. Caldeweyher, S. Ehlert, A. Hansen, H. Neugebauer, S. Spicher,
     C. Bannwarth and S. Grimme, J. Chem. Phys., 2019, 150, 154122.
     DOI: 10.1063/1.5090222
   * E. Caldeweyher, J.-M. Mewes, S. Ehlert and S. Grimme, Phys. Chem. Chem. Phys.
     2020, 22, 8499-8512. DOI: 10.1039/D0CP00502A
   
   for sTDA-xTB:
   * S. Grimme and C. Bannwarth, J. Chem. Phys., 2016, 145, 054103.
     DOI: 10.1063/1.4959605
   
   in the mass-spec context:
   * V. Asgeirsson, C. Bauer and S. Grimme, Chem. Sci., 2017, 8, 4879.
     DOI: 10.1039/c7sc00601b
   * J. Koopman and S. Grimme, ACS Omega 2019, 4, 12, 15120-15133.
     DOI: 10.1021/acsomega.9b02011
   
   for metadynamics refer to:
   * S. Grimme, J. Chem. Theory Comput., 2019, 155, 2847-2862
     DOI: 10.1021/acs.jctc.9b00143
   
   for SPH calculations refer to:
   * S. Spicher and S. Grimme, J. Chem. Theory Comput., 2021, 17, 1701-1714
     DOI: 10.1021/acs.jctc.0c01306
   
   with help from (in alphabetical order)
   P. Atkinson, C. Bannwarth, F. Bohle, G. Brandenburg, E. Caldeweyher
   M. Checinski, S. Dohm, S. Ehlert, S. Ehrlich, I. Gerasimov, C. Hölzer
   A. Katbashev, J. Koopman, C. Lavigne, S. Lehtola, F. März, M. Müller,
   F. Musil, H. Neugebauer, J. Pisarek, C. Plett, P. Pracht, F. Pultar,
   J. Seibert, P. Shushkov, S. Spicher, M. Stahn, M. Steiner, T. Strunk,
   J. Stückrath, T. Rose, and J. Unsleber
   
 * started run on 2024/04/06 at 11:15:07.398     

           -------------------------------------------------
          |                Calculation Setup                |
           -------------------------------------------------

          program call               : xtb struc.xyz --opt loose --input .xc1 --gfn2
          hostname                   : n-62-30-23
          coordinate file            : struc.xyz
          omp threads                :                     1

   ID    Z sym.   atoms
    1    7 N      1, 17
    2    6 C      2-6, 8, 9, 11-16, 18-23, 25, 26, 28-33
    3    8 O      7, 10, 24, 27
    4    1 H      34-72
constraining bond 55 56 to    3.2800000 Å, actual value:    1.7879354 Å

           -------------------------------------------------
          |                 G F N 2 - x T B                 |
           -------------------------------------------------

        Reference                      10.1021/acs.jctc.8b01176
      * Hamiltonian:
        H0-scaling (s, p, d)           1.850000    2.230000    2.230000
        zeta-weighting                 0.500000
      * Dispersion:
        s8                             2.700000
        a1                             0.520000
        a2                             5.000000
        s9                             5.000000
      * Repulsion:
        kExp                           1.500000    1.000000
        rExp                           1.000000
      * Coulomb:
        alpha                          2.000000
        third order                    shell-resolved
        anisotropic                    true
        a3                             3.000000
        a5                             4.000000
        cn-shift                       1.200000
        cn-exp                         4.000000
        max-rad                        5.000000


          ...................................................
          :                      SETUP                      :
          :.................................................:
          :  # basis functions                 171          :
          :  # atomic orbitals                 171          :
          :  # shells                          105          :
          :  # electrons                       180          :
          :  max. iterations                   250          :
          :  Hamiltonian                  GFN2-xTB          :
          :  restarted?                      false          :
          :  GBSA solvation                  false          :
          :  PC potential                    false          :
          :  electronic temp.         5000.0000000     K    :
          :  accuracy                    1.0000000          :
          :  -> integral cutoff          0.2500000E+02      :
          :  -> integral neglect         0.1000000E-07      :
          :  -> SCF convergence          0.1000000E-05 Eh   :
          :  -> wf. convergence          0.1000000E-03 e    :
          :  Broyden damping             0.4000000          :
          ...................................................

 iter      E             dE          RMSdq      gap      omega  full diag
   1   -100.5973919 -0.100597E+03  0.374E+00    3.20       0.0  T
   2   -100.7362642 -0.138872E+00  0.221E+00    1.08       1.0  T
   3   -100.7049001  0.313641E-01  0.141E+00    3.29       1.0  T
   4   -100.7721690 -0.672689E-01  0.526E-01    1.50       1.0  T
   5   -100.7894292 -0.172602E-01  0.190E-01    1.98       1.0  T
   6   -100.7911978 -0.176856E-02  0.792E-02    1.77       1.0  T
   7   -100.7914750 -0.277198E-03  0.375E-02    1.83       1.0  T
   8   -100.7914914 -0.164582E-04  0.140E-02    1.83       1.0  T
   9   -100.7914976 -0.616739E-05  0.474E-03    1.82       2.5  T
  10   -100.7914988 -0.118227E-05  0.172E-03    1.82       6.8  T
  11   -100.7914989 -0.139928E-06  0.766E-04    1.82      15.4  T
  12   -100.7914989 -0.773143E-08  0.318E-04    1.82      37.0  T

   *** convergence criteria satisfied after 12 iterations ***

         #    Occupation            Energy/Eh            Energy/eV
      -------------------------------------------------------------
         1        2.0000           -0.8078051             -21.9815
       ...           ...                  ...                  ...
        84        1.9966           -0.5157491             -14.0342
        85        1.9959           -0.5128261             -13.9547
        86        1.9840           -0.4911498             -13.3649
        87        1.9795           -0.4872543             -13.2589
        88        1.9640           -0.4782114             -13.0128
        89        1.8920           -0.4602041             -12.5228
        90        1.8557           -0.4553147             -12.3897 (HOMO)
        91        0.3166           -0.3884132             -10.5693 (LUMO)
        92        0.0218           -0.3434697              -9.3463
        93        0.0041           -0.3169887              -8.6257
        94        0.0034           -0.3139726              -8.5436
        95        0.0029           -0.3112618              -8.4699
       ...           ...                  ...                  ...
       171                          0.5822580              15.8440
      -------------------------------------------------------------
                  HL-Gap            0.0669015 Eh            1.8205 eV
             Fermi-level           -0.4148687 Eh          -11.2892 eV

 SCC (total)                   0 d,  0 h,  0 min,  0.189 sec
 SCC setup                      ...        0 min,  0.001 sec (  0.637%)
 Dispersion                     ...        0 min,  0.002 sec (  1.089%)
 classical contributions        ...        0 min,  0.001 sec (  0.290%)
 integral evaluation            ...        0 min,  0.018 sec (  9.624%)
 iterations                     ...        0 min,  0.098 sec ( 51.537%)
 molecular gradient             ...        0 min,  0.069 sec ( 36.477%)
 printout                       ...        0 min,  0.001 sec (  0.337%)

         :::::::::::::::::::::::::::::::::::::::::::::::::::::
         ::                     SUMMARY                     ::
         :::::::::::::::::::::::::::::::::::::::::::::::::::::
         :: total energy             -99.006625610216 Eh    ::
         :: gradient norm              0.400565383503 Eh/a0 ::
         :: HOMO-LUMO gap              1.820481192090 eV    ::
         ::.................................................::
         :: SCC energy              -100.791498925389 Eh    ::
         :: -> isotropic ES            0.109302908418 Eh    ::
         :: -> anisotropic ES          0.005415138735 Eh    ::
         :: -> anisotropic XC          0.042392697176 Eh    ::
         :: -> dispersion             -0.075527661009 Eh    ::
         :: repulsion energy           1.386151658689 Eh    ::
         :: add. restraining           0.397505303978 Eh    ::
         :: total charge               1.000000000108 e     ::
         :::::::::::::::::::::::::::::::::::::::::::::::::::::

      ----------------------------------------------------------- 
     |                   =====================                   |
     |                        A N C O P T                        |
     |                   =====================                   |
     |               Approximate Normal Coordinate               |
     |                Rational Function Optimizer                |
      ----------------------------------------------------------- 

          ...................................................
          :                      SETUP                      :
          :.................................................:
          :   optimization level             loose          :
          :   max. optcycles                   200          :
          :   ANC micro-cycles                  20          :
          :   degrees of freedom               210          :
          :.................................................:
          :   RF solver                   davidson          :
          :   write xtbopt.log                true          :
          :   linear?                        false          :
          :   energy convergence         0.5000000E-04 Eh   :
          :   grad. convergence          0.4000000E-02 Eh/α :
          :   maxmium RF displ.          1.0000000          :
          :   Hlow (freq-cutoff)         0.1000000E-01      :
          :   Hmax (freq-cutoff)         5.0000000          :
          :   S6 in model hess.         20.0000000          :
          ...................................................

generating ANC from model Hessian ...
Using Lindh-Hessian (1995)
 Shifting diagonal of input Hessian by   0.12836276220374937     
 Lowest  eigenvalues of input Hessian
    0.010000    0.022705    0.000000    0.000000    0.000000    0.000000
    0.000000    0.000000    0.128419    0.128463    0.128591    0.128663
    0.128703    0.129012    0.129345    0.129486    0.129744    0.130120
 Highest eigenvalues
    2.154326    2.164321    2.169964    2.297806    2.302862    2.305418


........................................................................
.............................. CYCLE    1 ..............................
........................................................................

 iter      E             dE          RMSdq      gap      omega  full diag
   1   -100.7914989 -0.100791E+03  0.114E-04    1.82       0.0  T
   2   -100.7914989 -0.678995E-10  0.713E-05    1.82     165.2  T
   3   -100.7914989  0.665210E-10  0.496E-05    1.82     237.5  T
     SCC iter.                  ...        0 min,  0.026 sec
     gradient                   ...        0 min,  0.069 sec
 * total energy  :   -99.0066256 Eh     change       -0.4035485E-08 Eh
   gradient norm :     0.4005655 Eh/α   predicted     0.0000000E+00 (-100.00%)
   displ. norm   :     0.5389217 α      lambda       -0.2074134E+00
   maximum displ.:     0.2913071 α      in ANC's #129, #149, #148, ...

........................................................................
.............................. CYCLE    2 ..............................
........................................................................

 iter      E             dE          RMSdq      gap      omega  full diag
   1   -100.7433939 -0.100743E+03  0.351E-01    1.75       0.0  T
   2   -100.7434039 -0.100150E-04  0.209E-01    1.84       1.0  T
   3   -100.7411393  0.226460E-02  0.150E-01    1.61       1.0  T
   4   -100.7435529 -0.241358E-02  0.160E-02    1.80       1.0  T
   5   -100.7435690 -0.161493E-04  0.571E-03    1.79       2.1  T
   6   -100.7435695 -0.410446E-06  0.326E-03    1.79       3.6  T
   7   -100.7435697 -0.280178E-06  0.760E-04    1.79      15.5  T
   8   -100.7435698 -0.328256E-07  0.269E-04    1.79      43.9  T
     SCC iter.                  ...        0 min,  0.065 sec
     gradient                   ...        0 min,  0.069 sec
 * total energy  :   -99.1655050 Eh     change       -0.1588794E+00 Eh
   gradient norm :     0.2172357 Eh/α   predicted    -0.1338270E+00 ( -15.77%)
   displ. norm   :     0.5013476 α      lambda       -0.1050279E+00
   maximum displ.:     0.2785929 α      in ANC's #129, #149, #148, ...

........................................................................
.............................. CYCLE    3 ..............................
........................................................................

 iter      E             dE          RMSdq      gap      omega  full diag
   1   -100.6860447 -0.100686E+03  0.275E-01    1.71       0.0  T
   2   -100.6859952  0.495406E-04  0.166E-01    1.81       1.0  T
   3   -100.6837733  0.222192E-02  0.149E-01    1.57       1.0  T
   4   -100.6861832 -0.240988E-02  0.137E-02    1.76       1.0  T
   5   -100.6861942 -0.110068E-04  0.344E-03    1.76       3.4  T
   6   -100.6861943 -0.101520E-06  0.183E-03    1.75       6.5  T
   7   -100.6861944 -0.800731E-07  0.578E-04    1.75      20.4  T
   8   -100.6861944 -0.161941E-07  0.169E-04    1.75      69.8  T
     SCC iter.                  ...        0 min,  0.065 sec
     gradient                   ...        0 min,  0.069 sec
 * total energy  :   -99.2381019 Eh     change       -0.7259694E-01 Eh
   gradient norm :     0.0926059 Eh/α   predicted    -0.6571334E-01 (  -9.48%)
   displ. norm   :     0.3119640 α      lambda       -0.2697098E-01
   maximum displ.:     0.1645489 α      in ANC's #129, #149, #148, ...

........................................................................
.............................. CYCLE    4 ..............................
........................................................................

 iter      E             dE          RMSdq      gap      omega  full diag
   1   -100.6510391 -0.100651E+03  0.132E-01    1.70       0.0  T
   2   -100.6510718 -0.326680E-04  0.749E-02    1.78       1.0  T
   3   -100.6508006  0.271137E-03  0.681E-02    1.66       1.0  T
   4   -100.6511441 -0.343496E-03  0.247E-02    1.76       1.0  T
   5   -100.6511883 -0.442261E-04  0.362E-03    1.74       3.3  T
   6   -100.6511887 -0.395088E-06  0.153E-03    1.74       7.7  T
   7   -100.6511889 -0.119354E-06  0.583E-04    1.74      20.2  T
   8   -100.6511889 -0.107134E-07  0.188E-04    1.74      62.8  T
     SCC iter.                  ...        0 min,  0.065 sec
     gradient                   ...        0 min,  0.069 sec
 * total energy  :   -99.2553133 Eh     change       -0.1721135E-01 Eh
   gradient norm :     0.0393594 Eh/α   predicted    -0.1479797E-01 ( -14.02%)
   displ. norm   :     0.1385314 α      lambda       -0.4146117E-02
   maximum displ.:     0.0574205 α      in ANC's #129, #149, #148, ...

........................................................................
.............................. CYCLE    5 ..............................
........................................................................

 iter      E             dE          RMSdq      gap      omega  full diag
   1   -100.6386924 -0.100639E+03  0.715E-02    1.72       0.0  T
   2   -100.6387513 -0.588346E-04  0.331E-02    1.75       1.0  T
   3   -100.6387670 -0.157165E-04  0.259E-02    1.71       1.0  T
   4   -100.6387790 -0.120479E-04  0.148E-02    1.75       1.0  T
   5   -100.6387971 -0.180513E-04  0.387E-03    1.73       3.0  T
   6   -100.6387977 -0.630773E-06  0.131E-03    1.73       9.0  T
   7   -100.6387978 -0.811579E-07  0.515E-04    1.73      22.9  T
   8   -100.6387978 -0.121586E-07  0.130E-04    1.73      90.4  T
     SCC iter.                  ...        0 min,  0.065 sec
     gradient                   ...        0 min,  0.072 sec
 * total energy  :   -99.2578507 Eh     change       -0.2537403E-02 Eh
   gradient norm :     0.0231508 Eh/α   predicted    -0.2113846E-02 ( -16.69%)
   displ. norm   :     0.0603769 α      lambda       -0.8492529E-03
   maximum displ.:     0.0145716 α      in ANC's #149, #189, #148, ...

........................................................................
.............................. CYCLE    6 ..............................
........................................................................

 iter      E             dE          RMSdq      gap      omega  full diag
   1   -100.6364895 -0.100636E+03  0.489E-02    1.73       0.0  T
   2   -100.6365247 -0.351409E-04  0.246E-02    1.74       1.0  T
   3   -100.6365415 -0.168409E-04  0.159E-02    1.73       1.0  T
   4   -100.6365462 -0.467302E-05  0.493E-03    1.74       2.4  T
   5   -100.6365465 -0.340752E-06  0.334E-03    1.73       3.5  T
   6   -100.6365475 -0.956262E-06  0.123E-03    1.73       9.5  T
   7   -100.6365476 -0.109003E-06  0.416E-04    1.73      28.3  T
   8   -100.6365476 -0.697234E-08  0.140E-04    1.73      84.4  T
     SCC iter.                  ...        0 min,  0.066 sec
     gradient                   ...        0 min,  0.069 sec
 * total energy  :   -99.2584895 Eh     change       -0.6388117E-03 Eh
   gradient norm :     0.0157128 Eh/α   predicted    -0.4261811E-03 ( -33.29%)
   displ. norm   :     0.0815736 α      lambda       -0.8218718E-03
   maximum displ.:     0.0185129 α      in ANC's #189, #43, #129, ...

........................................................................
.............................. CYCLE    7 ..............................
........................................................................

 iter      E             dE          RMSdq      gap      omega  full diag
   1   -100.6362406 -0.100636E+03  0.693E-02    1.73       0.0  T
   2   -100.6363111 -0.704659E-04  0.371E-02    1.74       1.0  T
   3   -100.6363493 -0.382335E-04  0.230E-02    1.74       1.0  T
   4   -100.6363585 -0.913958E-05  0.608E-03    1.74       1.9  T
   5   -100.6363596 -0.112920E-05  0.284E-03    1.74       4.1  T
   6   -100.6363599 -0.300843E-06  0.146E-03    1.73       8.0  T
   7   -100.6363600 -0.150209E-06  0.640E-04    1.74      18.4  T
   8   -100.6363601 -0.256011E-07  0.249E-04    1.74      47.3  T
     SCC iter.                  ...        0 min,  0.065 sec
     gradient                   ...        0 min,  0.069 sec
 * total energy  :   -99.2590164 Eh     change       -0.5269249E-03 Eh
   gradient norm :     0.0069319 Eh/α   predicted    -0.4137719E-03 ( -21.47%)
   displ. norm   :     0.0500465 α      lambda       -0.2494444E-03
   maximum displ.:     0.0178423 α      in ANC's #129, #35, #25, ...

........................................................................
.............................. CYCLE    8 ..............................
........................................................................

 iter      E             dE          RMSdq      gap      omega  full diag
   1   -100.6376245 -0.100638E+03  0.310E-02    1.74       0.0  T
   2   -100.6376368 -0.123658E-04  0.172E-02    1.74       1.0  T
   3   -100.6376422 -0.541321E-05  0.114E-02    1.74       1.0  T
   4   -100.6376418  0.440967E-06  0.579E-03    1.73       2.0  T
   5   -100.6376450 -0.325089E-05  0.185E-03    1.74       6.4  T
   6   -100.6376453 -0.224167E-06  0.565E-04    1.74      20.9  T
   7   -100.6376453 -0.154138E-07  0.221E-04    1.74      53.3  T
     SCC iter.                  ...        0 min,  0.057 sec
     gradient                   ...        0 min,  0.070 sec
 * total energy  :   -99.2591918 Eh     change       -0.1753476E-03 Eh
   gradient norm :     0.0055538 Eh/α   predicted    -0.1251135E-03 ( -28.65%)
   displ. norm   :     0.0527967 α      lambda       -0.1669788E-03
   maximum displ.:     0.0158006 α      in ANC's #129, #35, #25, ...

........................................................................
.............................. CYCLE    9 ..............................
........................................................................

 iter      E             dE          RMSdq      gap      omega  full diag
   1   -100.6390051 -0.100639E+03  0.229E-02    1.74       0.0  T
   2   -100.6390098 -0.468018E-05  0.125E-02    1.73       1.0  T
   3   -100.6390086  0.115371E-05  0.107E-02    1.74       1.1  T
   4   -100.6390105 -0.192495E-05  0.547E-03    1.73       2.2  T
   5   -100.6390139 -0.333031E-05  0.843E-04    1.74      14.0  T
   6   -100.6390139 -0.379218E-07  0.314E-04    1.74      37.6  T
   7   -100.6390139 -0.208757E-08  0.117E-04    1.74     100.7  T
     SCC iter.                  ...        0 min,  0.057 sec
     gradient                   ...        0 min,  0.071 sec
 * total energy  :   -99.2593115 Eh     change       -0.1197541E-03 Eh
   gradient norm :     0.0056753 Eh/α   predicted    -0.8384173E-04 ( -29.99%)
   displ. norm   :     0.0636740 α      lambda       -0.1427221E-03
   maximum displ.:     0.0178014 α      in ANC's #35, #25, #37, ...

........................................................................
.............................. CYCLE   10 ..............................
........................................................................

 iter      E             dE          RMSdq      gap      omega  full diag
   1   -100.6398138 -0.100640E+03  0.243E-02    1.73       0.0  T
   2   -100.6398183 -0.451170E-05  0.128E-02    1.73       1.0  T
   3   -100.6398142  0.413834E-05  0.125E-02    1.74       1.0  T
   4   -100.6398206 -0.637996E-05  0.490E-03    1.73       2.4  T
   5   -100.6398231 -0.252883E-05  0.788E-04    1.73      15.0  T
   6   -100.6398231 -0.340404E-07  0.374E-04    1.73      31.5  T
   7   -100.6398231 -0.632093E-08  0.136E-04    1.73      86.5  T
     SCC iter.                  ...        0 min,  0.057 sec
     gradient                   ...        0 min,  0.069 sec
 * total energy  :   -99.2594176 Eh     change       -0.1061204E-03 Eh
   gradient norm :     0.0054741 Eh/α   predicted    -0.7166203E-04 ( -32.47%)
   displ. norm   :     0.0868837 α      lambda       -0.1576522E-03
   maximum displ.:     0.0261851 α      in ANC's #35, #25, #37, ...

........................................................................
.............................. CYCLE   11 ..............................
........................................................................

 iter      E             dE          RMSdq      gap      omega  full diag
   1   -100.6399712 -0.100640E+03  0.300E-02    1.73       0.0  T
   2   -100.6399783 -0.706480E-05  0.156E-02    1.72       1.0  T
   3   -100.6399714  0.694319E-05  0.156E-02    1.74       1.0  T
   4   -100.6399815 -0.101379E-04  0.595E-03    1.72       2.0  T
   5   -100.6399852 -0.373205E-05  0.102E-03    1.73      11.6  T
   6   -100.6399853 -0.557876E-07  0.485E-04    1.72      24.3  T
   7   -100.6399853 -0.991466E-08  0.181E-04    1.72      65.2  T
     SCC iter.                  ...        0 min,  0.057 sec
     gradient                   ...        0 min,  0.069 sec
 * total energy  :   -99.2595324 Eh     change       -0.1147565E-03 Eh
   gradient norm :     0.0051665 Eh/α   predicted    -0.7943181E-04 ( -30.78%)
   displ. norm   :     0.0978415 α      lambda       -0.1481859E-03
   maximum displ.:     0.0311705 α      in ANC's #35, #25, #37, ...

........................................................................
.............................. CYCLE   12 ..............................
........................................................................

 iter      E             dE          RMSdq      gap      omega  full diag
   1   -100.6395763 -0.100640E+03  0.295E-02    1.72       0.0  T
   2   -100.6395837 -0.744436E-05  0.152E-02    1.71       1.0  T
   3   -100.6395777  0.600174E-05  0.148E-02    1.73       1.0  T
   4   -100.6395856 -0.784889E-05  0.614E-03    1.71       1.9  T
   5   -100.6395897 -0.413452E-05  0.107E-03    1.72      11.0  T
   6   -100.6395898 -0.655842E-07  0.489E-04    1.72      24.1  T
   7   -100.6395898 -0.809885E-08  0.168E-04    1.72      70.2  T
     SCC iter.                  ...        0 min,  0.058 sec
     gradient                   ...        0 min,  0.069 sec
 * total energy  :   -99.2596413 Eh     change       -0.1089277E-03 Eh
   gradient norm :     0.0050357 Eh/α   predicted    -0.7480739E-04 ( -31.32%)
   displ. norm   :     0.1095761 α      lambda       -0.1485613E-03
   maximum displ.:     0.0361143 α      in ANC's #35, #25, #37, ...

........................................................................
.............................. CYCLE   13 ..............................
........................................................................

 iter      E             dE          RMSdq      gap      omega  full diag
   1   -100.6391052 -0.100639E+03  0.290E-02    1.71       0.0  T
   2   -100.6391127 -0.753513E-05  0.152E-02    1.70       1.0  T
   3   -100.6391080  0.470431E-05  0.137E-02    1.72       1.0  T
   4   -100.6391129 -0.493806E-05  0.649E-03    1.70       1.8  T
   5   -100.6391176 -0.465704E-05  0.117E-03    1.71      10.1  T
   6   -100.6391177 -0.859554E-07  0.504E-04    1.71      23.4  T
   7   -100.6391177 -0.863430E-08  0.161E-04    1.71      73.3  T
     SCC iter.                  ...        0 min,  0.058 sec
     gradient                   ...        0 min,  0.069 sec
 * total energy  :   -99.2597504 Eh     change       -0.1090358E-03 Eh
   gradient norm :     0.0048571 Eh/α   predicted    -0.7517903E-04 ( -31.05%)
   displ. norm   :     0.1133723 α      lambda       -0.1428779E-03
   maximum displ.:     0.0376613 α      in ANC's #35, #25, #23, ...

........................................................................
.............................. CYCLE   14 ..............................
........................................................................

 iter      E             dE          RMSdq      gap      omega  full diag
   1   -100.6389728 -0.100639E+03  0.279E-02    1.70       0.0  T
   2   -100.6389788 -0.601343E-05  0.151E-02    1.70       1.0  T
   3   -100.6389747  0.409075E-05  0.119E-02    1.71       1.0  T
   4   -100.6389779 -0.311904E-05  0.618E-03    1.69       1.9  T
   5   -100.6389819 -0.407015E-05  0.119E-03    1.70       9.9  T
   6   -100.6389820 -0.866215E-07  0.513E-04    1.70      23.0  T
   7   -100.6389820 -0.116259E-07  0.157E-04    1.70      75.0  T
     SCC iter.                  ...        0 min,  0.058 sec
     gradient                   ...        0 min,  0.069 sec
 * total energy  :   -99.2598536 Eh     change       -0.1032154E-03 Eh
   gradient norm :     0.0045267 Eh/α   predicted    -0.7237055E-04 ( -29.88%)
   displ. norm   :     0.0999246 α      lambda       -0.1160311E-03
   maximum displ.:     0.0323413 α      in ANC's #35, #25, #23, ...

........................................................................
.............................. CYCLE   15 ..............................
........................................................................

 iter      E             dE          RMSdq      gap      omega  full diag
   1   -100.6392963 -0.100639E+03  0.246E-02    1.70       0.0  T
   2   -100.6392992 -0.284039E-05  0.137E-02    1.70       1.0  T
   3   -100.6392958  0.340393E-05  0.874E-03    1.70       1.3  T
   4   -100.6392983 -0.253873E-05  0.445E-03    1.69       2.6  T
   5   -100.6393003 -0.201647E-05  0.918E-04    1.70      12.8  T
   6   -100.6393004 -0.397035E-07  0.441E-04    1.70      26.7  T
   7   -100.6393004 -0.102897E-07  0.141E-04    1.70      83.7  T
     SCC iter.                  ...        0 min,  0.058 sec
     gradient                   ...        0 min,  0.069 sec
 * total energy  :   -99.2599346 Eh     change       -0.8098255E-04 Eh
   gradient norm :     0.0039854 Eh/α   predicted    -0.5860269E-04 ( -27.64%)
   displ. norm   :     0.0675210 α      lambda       -0.7003501E-04
   maximum displ.:     0.0200903 α      in ANC's #35, #23, #25, ...

........................................................................
.............................. CYCLE   16 ..............................
........................................................................

 iter      E             dE          RMSdq      gap      omega  full diag
   1   -100.6397552 -0.100640E+03  0.172E-02    1.70       0.0  T
   2   -100.6397559 -0.706278E-06  0.985E-03    1.69       1.2  T
   3   -100.6397543  0.153973E-05  0.481E-03    1.70       2.4  T
   4   -100.6397557 -0.135987E-05  0.228E-03    1.69       5.2  T
   5   -100.6397562 -0.505513E-06  0.640E-04    1.70      18.4  T
   6   -100.6397562 -0.169552E-07  0.295E-04    1.69      40.0  T
     SCC iter.                  ...        0 min,  0.050 sec
     gradient                   ...        0 min,  0.069 sec
 * total energy  :   -99.2599831 Eh     change       -0.4855201E-04 Eh
   gradient norm :     0.0031943 Eh/α   predicted    -0.3520274E-04 ( -27.49%)
   displ. norm   :     0.0453221 α      lambda       -0.4200415E-04
   maximum displ.:     0.0135329 α      in ANC's #11, #23, #26, ...

   *** GEOMETRY OPTIMIZATION CONVERGED AFTER 16 ITERATIONS ***

------------------------------------------------------------------------
 total energy gain   :        -0.2533575 Eh     -158.9842 kcal/mol
 total RMSD          :         0.2022851 a0        0.1070 Å
 total power (kW/mol):       -41.5743755 (step) -269.3899 (real)
------------------------------------------------------------------------

 ANCopt (total)                0 d,  0 h,  0 min,  2.469 sec
 optimizer setup                ...        0 min,  0.000 sec (  0.012%)
 model hessian                  ...        0 min,  0.054 sec (  2.187%)
 ANC generation                 ...        0 min,  0.006 sec (  0.263%)
 coordinate transformation      ...        0 min,  0.001 sec (  0.046%)
 single point calculation       ...        0 min,  2.389 sec ( 96.743%)
 optimization log               ...        0 min,  0.004 sec (  0.166%)
 hessian update                 ...        0 min,  0.001 sec (  0.042%)
 rational function              ...        0 min,  0.006 sec (  0.248%)

================
 final structure:
================
72
 xtb: 6.6.1 (8d0f1dd)
N           -1.86965960844761        2.77166317636406        2.21690409641890
C           -1.82544365739338        2.11107664586673        1.15820919216408
C           -2.98461381171167        1.90837580687528        0.22152245063930
C           -3.47126904403359        0.46858425558747        0.30607480705391
C           -4.43421776398557        0.00518790379232       -0.59340115844651
C           -4.90852210725582       -1.29509852147860       -0.53947133511881
O           -5.84184912331557       -1.82199509996451       -1.35842157672355
C           -6.48150597271313       -0.99792888646195       -2.30444499555122
C           -4.39771879407271       -2.18642795267899        0.44292087497718
O           -4.90649232961806       -3.43441549047757        0.41568701112965
C           -4.51451944707807       -4.35403123341952        1.40793044795504
C           -3.44602651535476       -1.71904067443282        1.33443017712487
C           -2.99247773446521       -0.40738877689743        1.26740348232982
C           -2.44336525084625        2.18529195181356       -1.20504411320731
C           -1.48762681938421        1.10421997360036       -1.74804637694095
C           -0.15583150922986        1.10063718363152       -1.10066639077195
N            0.49509668828891        0.02407512378030       -0.67547164216185
C            1.87131423423950        0.12174330441684       -0.24851904990958
C            2.84140200606886       -0.33192441936777       -1.35603326889982
C            4.26167729114722       -0.12514763520117       -0.91147832430572
C            4.89785756965834        1.08645573906395       -1.13109776413276
C            6.19855218671578        1.28694700907201       -0.70056437956620
C            6.88328070526965        0.27822106000894       -0.03893672208086
O            8.15191825155684        0.38760237297556        0.40717085401240
C            8.84672745352077        1.56516121566069        0.18638838673362
C            6.24150461732531       -0.96542020311731        0.19776566179909
O            6.98338785487217       -1.88666094335964        0.84549168268377
C            6.43588964309381       -3.16028028014472        1.09205580193481
C            4.93782713190920       -1.14153643972140       -0.24101476389657
C           -0.10317398551164       -1.28926080819264       -0.68412315426091
C           -4.18236514755694        2.85337162443794        0.53933647629773
C           -4.79941670406555        2.52453024597929        1.89719431755532
C           -3.80946819694240        4.33250231037894        0.48824117278133
H           -4.83257254175719        0.67561242690155       -1.33680014319434
H           -6.99184977840130       -0.15723424102114       -1.82503072001572
H           -7.21758268503119       -1.63357288293328       -2.79304759625590
H           -5.77734581439961       -0.62191165344705       -3.05372326544157
H           -4.75190866791246       -3.98658709787653        2.41063527555592
H           -5.08615179838208       -5.25856459652560        1.21030990857778
H           -3.44529277165624       -4.58091225278335        1.34518314773774
H           -3.05395475242207       -2.36662435652352        2.10166440153877
H           -2.27546112246488       -0.07016826231045        1.99988464119488
H           -3.28751687889204        2.25605709782760       -1.89027439323298
H           -1.93209930163223        3.14837932714338       -1.21033674751459
H           -1.96708430654456        0.12878940341636       -1.68692012276419
H           -1.33214953376310        1.33460267854285       -2.81011229339589
H           -0.90235268324196        1.63633371838869        0.77156329954849
H            0.39983397894115        2.02741001082476       -1.10393505719819
H            2.01680751528249       -0.49864648528173        0.63981174448906
H            2.09681590493766        1.15635156324077        0.01854876496460
H            2.64455288696628        0.25522415481623       -2.25451826544733
H            2.66867963799414       -1.38411860564028       -1.58443577099856
H            4.38934650370854        1.88242924005112       -1.65328818953587
H            6.69393866010584        2.22733792035852       -0.87870197865748
H            8.25572350020664        2.47583848712111        1.26537538363532
H            9.15959945000252        1.47748552182532       -1.26479615520869
H            9.83766581069138        1.42199991862011        0.60740447097759
H            7.21900869414529       -3.72329093180036        1.59603309765705
H            5.55834321097878       -3.10007465235255        1.74374193556559
H            6.16755513444044       -3.66810038996712        0.16056297585007
H            4.43584921872156       -2.08259060176673       -0.07840537760655
H           -0.25478424952383       -1.64831743503928       -1.70413855981656
H           -1.06748589881779       -1.27239583934958       -0.16985037636572
H            0.55266779046846       -1.98456856535733       -0.16649946706615
H           -4.94028139329465        2.66942645041665       -0.23019898492811
H           -4.07603382557612        2.70480942379051        2.68571035132757
H           -5.11998553661958        1.48669964672411        1.94316707046474
H           -5.66443460188597        3.15927296742028        2.06927352628965
H           -3.02900337754269        4.55157352752541        1.21048874987999
H           -3.47862352997381        4.63496986106525       -0.50186598142403
H           -4.68155111947898        4.92853467464454        0.74370912791706
H           -1.01523824206143        2.86359081342075        2.75708453788040

 Bond Distances (Angstroems)
 ---------------------------
N1-C2=1.2487         N1-H72=1.0150        C2-N1=1.2487         C2-C3=1.5040         C2-H47=1.1077        C3-C2=1.5040         
C3-C4=1.5222         C3-C14=1.5507        C3-C31=1.5584        C4-C3=1.5222         C4-C5=1.3968         C4-C13=1.3859        
C5-C4=1.3968         C5-C6=1.3851         C5-H34=1.0774        C6-C5=1.3851         C6-O7=1.3489         C6-C9=1.4214         
O7-C6=1.3489         O7-C8=1.4083         C8-O7=1.4083         C8-H35=1.0941        C8-H36=1.0884        C8-H37=1.0948        
C9-C6=1.4214         C9-O10=1.3480        C9-C12=1.3853        O10-C9=1.3480        O10-C11=1.4085       C11-O10=1.4085       
C11-H38=1.0940       C11-H39=1.0881       C11-H40=1.0948       C12-C9=1.3853        C12-C13=1.3895       C12-H41=1.0778       
C13-C4=1.3859        C13-C12=1.3895       C13-H42=1.0791       C14-C3=1.5507        C14-C15=1.5418       C14-H43=1.0896       
C14-H44=1.0904       C15-C14=1.5418       C15-C16=1.4808       C15-H45=1.0886       C15-H46=1.0978       C16-C15=1.4808       
C16-N17=1.3280       C16-H48=1.0806       N17-C16=1.3280       N17-C18=1.4442       N17-C30=1.4432       C18-N17=1.4442       
C18-C19=1.5406       C18-H49=1.0932       C18-H50=1.0921       C19-C18=1.5406       C19-C20=1.5025       C19-H51=1.0912       
C19-H52=1.0905       C20-C19=1.5025       C20-C21=1.3860       C20-C29=1.3927       C21-C20=1.3860       C21-C22=1.3847       
C21-H53=1.0793       C22-C21=1.3847       C22-C23=1.3871       C22-H54=1.0777       C23-C22=1.3871       C23-O24=1.3492       
C23-C26=1.4193       O24-C23=1.3492       O24-C25=1.3850       C25-O24=1.3850       C25-H57=1.0861       C26-C23=1.4193       
C26-O27=1.3486       C26-C29=1.3868       O27-C26=1.3486       O27-C28=1.4081       C28-O27=1.4081       C28-H58=1.0882       
C28-H59=1.0947       C28-H60=1.0943       C29-C20=1.3927       C29-C26=1.3868       C29-H61=1.0789       C30-N17=1.4432       
C30-H62=1.0919       C30-H63=1.0930       C30-H64=1.0870       C31-C3=1.5584        C31-C32=1.5273       C31-C33=1.5263       
C31-H65=1.0957       C32-C31=1.5273       C32-H66=1.0851       C32-H67=1.0872       C32-H68=1.0866       C33-C31=1.5263       
C33-H69=1.0857       C33-H70=1.0869       C33-H71=1.0868       H34-C5=1.0774        H35-C8=1.0941        H36-C8=1.0884        
H37-C8=1.0948        H38-C11=1.0940       H39-C11=1.0881       H40-C11=1.0948       H41-C12=1.0778       H42-C13=1.0791       
H43-C14=1.0896       H44-C14=1.0904       H45-C15=1.0886       H46-C15=1.0978       H47-C2=1.1077        H48-C16=1.0806       
H49-C18=1.0932       H50-C18=1.0921       H51-C19=1.0912       H52-C19=1.0905       H53-C21=1.0793       H54-C22=1.0777       
H57-C25=1.0861       H58-C28=1.0882       H59-C28=1.0947       H60-C28=1.0943       H61-C29=1.0789       H62-C30=1.0919       
H63-C30=1.0930       H64-C30=1.0870       H65-C31=1.0957       H66-C32=1.0851       H67-C32=1.0872       H68-C32=1.0866       
H69-C33=1.0857       H70-C33=1.0869       H71-C33=1.0868       H72-N1=1.0150        
 C  H  Rav=1.0888 sigma=0.0065  Rmin=1.0774  Rmax=1.1077    36
 C  C  Rav=1.4534 sigma=0.0682  Rmin=1.3847  Rmax=1.5584    22
 N  H  Rav=1.0150 sigma=0.0000  Rmin=1.0150  Rmax=1.0150     1
 N  C  Rav=1.3660 sigma=0.0826  Rmin=1.2487  Rmax=1.4442     4
 O  C  Rav=1.3756 sigma=0.0278  Rmin=1.3480  Rmax=1.4085     8

 selected bond angles (degree)
 --------------------
H72-N1-C2=117.99               C3-C2-N1=124.89                H47-C2-N1=123.52               H47-C2-C3=111.54               
C4-C3-C2=109.83                C14-C3-C2=106.25               C14-C3-C4=109.37               C31-C3-C2=112.56               
C31-C3-C4=108.45               C31-C3-C14=110.34              C5-C4-C3=119.90                C13-C4-C3=121.73               
C13-C4-C5=118.37               C6-C5-C4=121.49                H34-C5-C4=119.52               H34-C5-C6=118.97               
O7-C6-C5=125.45                C9-C6-C5=119.51                C9-C6-O7=115.04                C8-O7-C6=119.58                
H35-C8-O7=111.54               H36-C8-O7=105.49               H36-C8-H35=109.27              H37-C8-O7=111.63               
H37-C8-H35=109.63              H37-C8-H36=109.17              O10-C9-C6=115.53               C12-C9-C6=118.69               
C12-C9-O10=125.78              C11-O10-C9=119.03              

 selected dihedral angles (degree)
 ---------------------------------
C3-C2-N1-H72=181.80           H47-C2-N1-H72=358.97          C4-C3-C2-N1=251.26            C4-C3-C2-H47= 73.80           
C14-C3-C2-N1=133.07           C14-C3-C2-H47=315.61          C31-C3-C2-N1= 12.20           C31-C3-C2-H47=194.74          
C5-C4-C3-C2=187.80            C5-C4-C3-C14=304.04           C5-C4-C3-C31= 64.42           C13-C4-C3-C2=  8.39           
C13-C4-C3-C14=124.63          C13-C4-C3-C31=245.01          C6-C5-C4-C3=180.54            C6-C5-C4-C13=359.96           
H34-C5-C4-C3=359.45           H34-C5-C4-C13=178.88          O7-C6-C5-C4=179.45            O7-C6-C5-H34=  0.53           
C9-C6-C5-C4=359.37            C9-C6-C5-H34=180.44           C8-O7-C6-C5=355.41            C8-O7-C6-C9=175.49            
H35-C8-O7-C6=301.66           H36-C8-O7-C6=183.14           H37-C8-O7-C6= 64.69           O10-C9-C6-C5=180.55           
O10-C9-C6-O7=  0.47           C12-C9-C6-C5=  0.82           C12-C9-C6-O7=180.74           C11-O10-C9-C6=183.92          
C11-O10-C9-C12=  3.63         
           -------------------------------------------------
          |                Final Singlepoint                |
           -------------------------------------------------

          ...................................................
          :                      SETUP                      :
          :.................................................:
          :  # basis functions                 171          :
          :  # atomic orbitals                 171          :
          :  # shells                          105          :
          :  # electrons                       180          :
          :  max. iterations                   250          :
          :  Hamiltonian                  GFN2-xTB          :
          :  restarted?                      false          :
          :  GBSA solvation                  false          :
          :  PC potential                    false          :
          :  electronic temp.         5000.0000000     K    :
          :  accuracy                    1.0000000          :
          :  -> integral cutoff          0.2500000E+02      :
          :  -> integral neglect         0.1000000E-07      :
          :  -> SCF convergence          0.1000000E-05 Eh   :
          :  -> wf. convergence          0.1000000E-03 e    :
          :  Broyden damping             0.4000000          :
          ...................................................

 iter      E             dE          RMSdq      gap      omega  full diag
   1   -100.6397562 -0.100640E+03  0.102E-04    1.70       0.0  T
   2   -100.6397562 -0.983817E-10  0.665E-05    1.70     177.2  T
   3   -100.6397562 -0.188578E-10  0.473E-05    1.70     249.2  T

   *** convergence criteria satisfied after 3 iterations ***

         #    Occupation            Energy/Eh            Energy/eV
      -------------------------------------------------------------
         1        2.0000           -0.8090355             -22.0150
       ...           ...                  ...                  ...
        84        1.9943           -0.5099088             -13.8753
        85        1.9876           -0.4975531             -13.5391
        86        1.9811           -0.4907926             -13.3551
        87        1.9782           -0.4885458             -13.2940
        88        1.9391           -0.4719435             -12.8422
        89        1.8726           -0.4597075             -12.5093
        90        1.8504           -0.4569819             -12.4351 (HOMO)
        91        0.3897           -0.3946914             -10.7401 (LUMO)
        92        0.0158           -0.3406588              -9.2698
        93        0.0064           -0.3263076              -8.8793
        94        0.0035           -0.3168817              -8.6228
        95        0.0031           -0.3148900              -8.5686
       ...           ...                  ...                  ...
       171                          0.5720666              15.5667
      -------------------------------------------------------------
                  HL-Gap            0.0622905 Eh            1.6950 eV
             Fermi-level           -0.4171559 Eh          -11.3514 eV

 SCC (total)                   0 d,  0 h,  0 min,  0.117 sec
 SCC setup                      ...        0 min,  0.001 sec (  0.745%)
 Dispersion                     ...        0 min,  0.002 sec (  1.352%)
 classical contributions        ...        0 min,  0.000 sec (  0.366%)
 integral evaluation            ...        0 min,  0.018 sec ( 15.310%)
 iterations                     ...        0 min,  0.027 sec ( 22.651%)
 molecular gradient             ...        0 min,  0.069 sec ( 59.020%)
 printout                       ...        0 min,  0.001 sec (  0.542%)

         :::::::::::::::::::::::::::::::::::::::::::::::::::::
         ::                     SUMMARY                     ::
         :::::::::::::::::::::::::::::::::::::::::::::::::::::
         :: total energy             -99.259983108600 Eh    ::
         :: gradient norm              0.003189220117 Eh/a0 ::
         :: HOMO-LUMO gap              1.695010711869 eV    ::
         ::.................................................::
         :: SCC energy              -100.639756206848 Eh    ::
         :: -> isotropic ES            0.108276454914 Eh    ::
         :: -> anisotropic ES          0.002832944672 Eh    ::
         :: -> anisotropic XC          0.048182288829 Eh    ::
         :: -> dispersion             -0.076102179522 Eh    ::
         :: repulsion energy           1.347960764771 Eh    ::
         :: add. restraining           0.030564272381 Eh    ::
         :: total charge               1.000000000000 e     ::
         :::::::::::::::::::::::::::::::::::::::::::::::::::::

           -------------------------------------------------
          |                Property Printout                |
           -------------------------------------------------

    * Orbital Energies and Occupations

         #    Occupation            Energy/Eh            Energy/eV
      -------------------------------------------------------------
         1        2.0000           -0.8090355             -22.0150
       ...           ...                  ...                  ...
        78        1.9982           -0.5283488             -14.3771
        79        1.9978           -0.5251764             -14.2908
        80        1.9975           -0.5231628             -14.2360
        81        1.9973           -0.5214786             -14.1902
        82        1.9960           -0.5156627             -14.0319
        83        1.9953           -0.5130614             -13.9611
        84        1.9943           -0.5099088             -13.8753
        85        1.9876           -0.4975531             -13.5391
        86        1.9811           -0.4907926             -13.3551
        87        1.9782           -0.4885458             -13.2940
        88        1.9391           -0.4719435             -12.8422
        89        1.8726           -0.4597075             -12.5093
        90        1.8504           -0.4569819             -12.4351 (HOMO)
        91        0.3897           -0.3946914             -10.7401 (LUMO)
        92        0.0158           -0.3406588              -9.2698
        93        0.0064           -0.3263076              -8.8793
        94        0.0035           -0.3168817              -8.6228
        95        0.0031           -0.3148900              -8.5686
        96        0.0029           -0.3138813              -8.5411
        97        0.0025           -0.3111646              -8.4672
        98        0.0000           -0.1973014              -5.3688
        99        0.0000           -0.1911878              -5.2025
       100        0.0000           -0.1726905              -4.6991
       101                         -0.1371466              -3.7319
       ...                                ...                  ...
       171                          0.5720666              15.5667
      -------------------------------------------------------------
                  HL-Gap            0.0622905 Eh            1.6950 eV
             Fermi-level           -0.4171559 Eh          -11.3514 eV

     #   Z          covCN         q      C6AA      α(0)
     1   7 N        1.773    -0.267    27.753     7.801
     2   6 C        2.826     0.100    25.767     8.318
     3   6 C        3.907     0.007    20.411     6.422
     4   6 C        2.974     0.003    27.953     8.672
     5   6 C        2.920    -0.079    29.982     8.979
     6   6 C        2.861     0.130    25.151     8.220
     7   8 O        1.706    -0.229    17.803     5.697
     8   6 C        3.644     0.027    20.454     6.501
     9   6 C        2.864     0.129    25.179     8.225
    10   8 O        1.706    -0.228    17.786     5.694
    11   6 C        3.646     0.027    20.455     6.500
    12   6 C        2.914    -0.075    29.871     8.962
    13   6 C        2.921    -0.054    29.338     8.882
    14   6 C        3.812    -0.065    21.740     6.637
    15   6 C        3.802    -0.069    21.817     6.650
    16   6 C        2.843     0.008    27.832     8.646
    17   7 N        2.729     0.010    21.084     6.820
    18   6 C        3.756    -0.016    20.920     6.521
    19   6 C        3.808    -0.071    21.848     6.654
    20   6 C        2.970     0.001    28.008     8.681
    21   6 C        2.922    -0.048    29.202     8.862
    22   6 C        2.914    -0.065    29.609     8.923
    23   6 C        2.872     0.131    25.136     8.219
    24   8 O        1.707    -0.214    17.550     5.656
    25   6 C        2.313     0.054    28.187     8.623
    26   6 C        2.862     0.133    25.079     8.209
    27   8 O        1.706    -0.227    17.760     5.690
    28   6 C        3.645     0.027    20.452     6.500
    29   6 C        2.920    -0.080    29.990     8.980
    30   6 C        3.699    -0.071    22.028     6.712
    31   6 C        3.853    -0.007    20.672     6.467
    32   6 C        3.756    -0.120    22.853     6.816
    33   6 C        3.755    -0.118    22.814     6.811
    34   1 H        0.926     0.052     2.293     2.368
    35   1 H        0.924     0.054     2.270     2.356
    36   1 H        0.925     0.081     1.964     2.192
    37   1 H        0.924     0.048     2.348     2.396
    38   1 H        0.924     0.055     2.258     2.350
    39   1 H        0.925     0.081     1.965     2.192
    40   1 H        0.924     0.048     2.348     2.396
    41   1 H        0.926     0.052     2.300     2.372
    42   1 H        0.926     0.038     2.478     2.462
    43   1 H        0.925     0.060     2.196     2.317
    44   1 H        0.924     0.054     2.273     2.358
    45   1 H        0.925     0.065     2.139     2.287
    46   1 H        0.924     0.080     1.981     2.201
    47   1 H        0.922     0.009     2.915     2.670
    48   1 H        0.926     0.070     2.088     2.260
    49   1 H        0.924     0.067     2.114     2.274
    50   1 H        0.924     0.067     2.117     2.275
    51   1 H        0.924     0.056     2.250     2.346
    52   1 H        0.924     0.056     2.245     2.343
    53   1 H        0.926     0.047     2.361     2.403
    54   1 H        0.926     0.067     2.124     2.279
    55   1 H        0.204     0.026     6.453     4.634
    56   1 H        0.304     0.037     5.737     4.341
    57   1 H        0.925     0.078     1.995     2.209
    58   1 H        0.925     0.082     1.960     2.189
    59   1 H        0.924     0.049     2.336     2.390
    60   1 H        0.924     0.053     2.288     2.366
    61   1 H        0.926     0.048     2.345     2.395
    62   1 H        0.924     0.076     2.020     2.223
    63   1 H        0.924     0.080     1.976     2.198
    64   1 H        0.925     0.079     1.986     2.204
    65   1 H        0.924     0.038     2.480     2.463
    66   1 H        0.925     0.071     2.072     2.251
    67   1 H        0.925     0.036     2.506     2.476
    68   1 H        0.925     0.051     2.303     2.373
    69   1 H        0.925     0.058     2.219     2.329
    70   1 H        0.925     0.034     2.525     2.485
    71   1 H        0.925     0.055     2.259     2.350
    72   1 H        0.860     0.157     1.353     1.822

 Mol. C6AA /au·bohr⁶  :      48588.484248
 Mol. C8AA /au·bohr⁸  :    1103746.376839
 Mol. α(0) /au        :        340.743686


Wiberg/Mayer (AO) data.
largest (>0.10) Wiberg bond orders for each atom

 ---------------------------------------------------------------------------
     #   Z sym  total        # sym  WBO       # sym  WBO       # sym  WBO
 ---------------------------------------------------------------------------
     1   7 N    3.045 --     2 C    1.956    72 H    0.941
     2   6 C    3.925 --     1 N    1.956     3 C    0.995    47 H    0.893
     3   6 C    3.976 --     2 C    0.995     4 C    0.968    14 C    0.959
                            31 C    0.941
     4   6 C    3.950 --    13 C    1.414     5 C    1.369     3 C    0.968
     5   6 C    3.962 --     6 C    1.401     4 C    1.369    34 H    0.958
     6   6 C    3.906 --     5 C    1.401     9 C    1.221     7 O    1.100
     7   8 O    2.255 --     6 C    1.100     8 C    0.978
     8   6 C    3.932 --     7 O    0.978    36 H    0.977    35 H    0.974
                            37 H    0.973
     9   6 C    3.902 --    12 C    1.393     6 C    1.221    10 O    1.102
    10   8 O    2.253 --     9 C    1.102    11 C    0.978
    11   6 C    3.931 --    10 O    0.978    39 H    0.977    40 H    0.974
                            38 H    0.973
    12   6 C    3.963 --    13 C    1.401     9 C    1.393    41 H    0.964
    13   6 C    3.955 --     4 C    1.414    12 C    1.401    42 H    0.962
    14   6 C    3.971 --    15 C    0.979    44 H    0.972    43 H    0.969
                             3 C    0.959
    15   6 C    3.987 --    16 C    1.059    14 C    0.979    45 H    0.963
                            46 H    0.929
    16   6 C    3.600 --    17 N    1.398    15 C    1.059    48 H    0.957
    17   7 N    3.479 --    16 C    1.398    30 C    0.998    18 C    0.988
    18   6 C    3.956 --    17 N    0.988    50 H    0.968    19 C    0.967
                            49 H    0.964
    19   6 C    3.976 --    20 C    1.008    52 H    0.972    51 H    0.972
                            18 C    0.967
    20   6 C    3.947 --    21 C    1.407    29 C    1.384    19 C    1.008
    21   6 C    3.952 --    22 C    1.421    20 C    1.407    53 H    0.968
    22   6 C    3.960 --    21 C    1.421    23 C    1.383    54 H    0.961
    23   6 C    3.893 --    22 C    1.383    26 C    1.231    24 O    1.087
    24   8 O    2.300 --    23 C    1.087    25 C    1.022
    25   6 C    3.847 --    24 O    1.022    57 H    0.974    56 H    0.914
                            55 H    0.904
    26   6 C    3.903 --    29 C    1.390    23 C    1.231    27 O    1.103
    27   8 O    2.254 --    26 C    1.103    28 C    0.978
    28   6 C    3.932 --    27 O    0.978    58 H    0.977    59 H    0.974
                            60 H    0.973
    29   6 C    3.960 --    26 C    1.390    20 C    1.384    61 H    0.963
    30   6 C    3.957 --    17 N    0.998    64 H    0.978    62 H    0.966
                            63 H    0.959
    31   6 C    3.972 --    33 C    1.009    32 C    1.008    65 H    0.960
                             3 C    0.941
    32   6 C    3.977 --    31 C    1.008    67 H    0.982    68 H    0.981
                            66 H    0.972
    33   6 C    3.984 --    31 C    1.009    70 H    0.983    71 H    0.980
                            69 H    0.977
    34   1 H    0.996 --     5 C    0.958
    35   1 H    0.993 --     8 C    0.974
    36   1 H    0.993 --     8 C    0.977
    37   1 H    0.994 --     8 C    0.973
    38   1 H    0.993 --    11 C    0.973
    39   1 H    0.993 --    11 C    0.977
    40   1 H    0.993 --    11 C    0.974
    41   1 H    0.996 --    12 C    0.964
    42   1 H    0.998 --    13 C    0.962
    43   1 H    0.995 --    14 C    0.969
    44   1 H    0.996 --    14 C    0.972
    45   1 H    0.995 --    15 C    0.963
    46   1 H    0.971 --    15 C    0.929
    47   1 H    0.987 --     2 C    0.893
    48   1 H    0.995 --    16 C    0.957
    49   1 H    0.991 --    18 C    0.964
    50   1 H    0.994 --    18 C    0.968
    51   1 H    0.996 --    19 C    0.972
    52   1 H    0.996 --    19 C    0.972
    53   1 H    0.997 --    21 C    0.968
    54   1 H    0.994 --    22 C    0.961
    55   1 H    0.977 --    25 C    0.904
    56   1 H    0.981 --    25 C    0.914
    57   1 H    0.991 --    25 C    0.974
    58   1 H    0.993 --    28 C    0.977
    59   1 H    0.993 --    28 C    0.974
    60   1 H    0.993 --    28 C    0.973
    61   1 H    0.997 --    29 C    0.963
    62   1 H    0.985 --    30 C    0.966
    63   1 H    0.987 --    30 C    0.959
    64   1 H    0.993 --    30 C    0.978
    65   1 H    0.992 --    31 C    0.960
    66   1 H    0.990 --    32 C    0.972
    67   1 H    0.997 --    32 C    0.982
    68   1 H    0.994 --    32 C    0.981
    69   1 H    0.994 --    33 C    0.977
    70   1 H    0.997 --    33 C    0.983
    71   1 H    0.994 --    33 C    0.980
    72   1 H    0.970 --     1 N    0.941
 ---------------------------------------------------------------------------

Topologies differ in total number of bonds
Writing topology from bond orders to xtbtopo.mol

molecular dipole:
                 x           y           z       tot (Debye)
 q only:        0.536      -0.118      -0.834
   full:        0.895      -0.260      -0.958       3.398
molecular quadrupole (traceless):
                xx          xy          yy          xz          yz          zz
 q only:       48.889       1.642     -13.739       6.326     -10.731     -35.149
  q+dip:       44.747       3.196     -14.235       9.749     -13.371     -30.512
   full:       44.448       2.761     -14.367       7.627     -13.558     -30.081

           -------------------------------------------------
          |                Geometry Summary                 |
           -------------------------------------------------

      molecular mass/u    :      455.6105846
   center of mass at/Å    :        0.0009849       0.0039235      -0.0034233
  moments of inertia/u·Å² :        0.2433933E+04   0.1097061E+05   0.1224729E+05
rotational constants/cm⁻¹ :        0.6926086E-02   0.1536618E-02   0.1376438E-02

 * 61 selected distances

     #   Z          #   Z                                           value/Å
     1   7 N        2   6 C                                       1.2486652
     4   6 C        5   6 C                                       1.3968049
     5   6 C        6   6 C                                       1.3851419
     6   6 C        7   8 O                                       1.3488511
     7   8 O        8   6 C                                       1.4082637
     6   6 C        9   6 C                                       1.4214370
     9   6 C       10   8 O                                       1.3479857
    10   8 O       11   6 C                                       1.4085039
     9   6 C       12   6 C                                       1.3852647
     4   6 C       13   6 C                                       1.3859015
    12   6 C       13   6 C                                       1.3894712
    15   6 C       16   6 C                                       1.4808082
    16   6 C       17   7 N                                       1.3279625
    17   7 N       18   6 C                                       1.4442308
    18   6 C       19   6 C                                       1.5406080 (max)
    20   6 C       21   6 C                                       1.3859802
    21   6 C       22   6 C                                       1.3846886
    22   6 C       23   6 C                                       1.3871311
    23   6 C       24   8 O                                       1.3492286
    23   6 C       26   6 C                                       1.4193479
    26   6 C       27   8 O                                       1.3485639
    27   8 O       28   6 C                                       1.4080677
    20   6 C       29   6 C                                       1.3927478
    26   6 C       29   6 C                                       1.3867662
    17   7 N       30   6 C                                       1.4432097
    31   6 C       32   6 C                                       1.5273073
    31   6 C       33   6 C                                       1.5262670
     5   6 C       34   1 H                                       1.0774033 (min)
     8   6 C       35   1 H                                       1.0941008
     8   6 C       36   1 H                                       1.0883864
     8   6 C       37   1 H                                       1.0948281
    11   6 C       38   1 H                                       1.0939772
    11   6 C       39   1 H                                       1.0881168
    11   6 C       40   1 H                                       1.0948325
    12   6 C       41   1 H                                       1.0778374
    13   6 C       42   1 H                                       1.0790548
    14   6 C       43   1 H                                       1.0895597
    14   6 C       44   1 H                                       1.0903937
    15   6 C       45   1 H                                       1.0886142
    15   6 C       46   1 H                                       1.0978313
    16   6 C       48   1 H                                       1.0805938
    18   6 C       49   1 H                                       1.0932445
    18   6 C       50   1 H                                       1.0920580
    19   6 C       51   1 H                                       1.0912234
    19   6 C       52   1 H                                       1.0904648
    21   6 C       53   1 H                                       1.0792777
    22   6 C       54   1 H                                       1.0777180
    28   6 C       58   1 H                                       1.0882324
    28   6 C       59   1 H                                       1.0947180
    28   6 C       60   1 H                                       1.0943326
    29   6 C       61   1 H                                       1.0788915
    30   6 C       62   1 H                                       1.0919428
    30   6 C       63   1 H                                       1.0930044
    30   6 C       64   1 H                                       1.0869755
    31   6 C       65   1 H                                       1.0956541
    32   6 C       66   1 H                                       1.0851457
    32   6 C       67   1 H                                       1.0871846
    32   6 C       68   1 H                                       1.0866305
    33   6 C       69   1 H                                       1.0857068
    33   6 C       70   1 H                                       1.0868566
    33   6 C       71   1 H                                       1.0867600

 * 4 distinct bonds (by element types)

   Z      Z             #   av. dist./Å        max./Å        min./Å
   1 H    6 C          34     1.0882809     1.0978313     1.0774033
   6 C    6 C          16     1.4247296     1.5406080     1.3846886
   6 C    7 N           4     1.3660171     1.4442308     1.2486652
   6 C    8 O           7     1.3742092     1.4085039     1.3479857


optimized geometry written to: xtbopt.xyz


           -------------------------------------------------
          | TOTAL ENERGY              -99.259983108600 Eh   |
          | GRADIENT NORM               0.003189220117 Eh/α |
          | HOMO-LUMO GAP               1.695010711869 eV   |
           -------------------------------------------------

------------------------------------------------------------------------
 * finished run on 2024/04/06 at 11:15:10.221     
------------------------------------------------------------------------
 total:
 * wall-time:     0 d,  0 h,  0 min,  2.823 sec
 *  cpu-time:     0 d,  0 h,  0 min,  2.802 sec
 * ratio c/w:     0.992 speedup
 SCF:
 * wall-time:     0 d,  0 h,  0 min,  0.190 sec
 *  cpu-time:     0 d,  0 h,  0 min,  0.190 sec
 * ratio c/w:     1.000 speedup
 ANC optimizer:
 * wall-time:     0 d,  0 h,  0 min,  2.592 sec
 *  cpu-time:     0 d,  0 h,  0 min,  2.586 sec
 * ratio c/w:     0.998 speedup

