25
 energy: -39.317018390398 gnorm: 14.323447231967 xtb: 6.6.1 (8d0f1dd)
C            3.82996580949058        0.90293099820618        0.15512432927555
N            2.73803074580736       -0.02165759582404        0.01425589078146
C            2.80270648407505       -1.30695190262100       -0.31476794326649
N            1.57874098461006       -1.83347428604566       -0.35112965017760
C            0.66148832253376       -0.86212769809588       -0.00414639396539
C            1.38747214766042        0.35285030525779        0.23176983047857
C           -1.35699233903300        0.04140463240863        0.89145926110238
O            1.02138394778211        1.47457163688521        0.51230931597824
N           -2.52258183781793        0.62373456421668        0.15194549149801
C           -2.77192376014183        1.86211885164897       -0.52336616151979
C           -2.92141177921555       -0.20601097779369        1.05987372273462
O           -3.72846667581027       -0.85162732331795        1.62020371586413
N           -0.69142993981869       -1.02917417161764        0.04551600803030
C           -1.34598627878463       -2.01701818572260       -0.51263968965785
H            4.37340852066011        0.71667130075180        1.08284761020056
H            4.51463481499611        0.81771431821408       -0.68715044205066
H            3.40593880960180        1.90651597556740        0.19099292562208
H            3.70636759030833       -1.84719393835356       -0.52407023522279
H           -1.81610765636017        2.35160003828652       -0.70325172279553
H           -3.26958500034159        1.66403953521049       -1.47380294872635
H           -3.40359211583631        2.50911482840801        0.08663115107545
H           -1.15438099157287        0.21238845002415        1.12389135281211
H           -0.84291619473280       -2.74006112967527       -1.12653784640166
H           -2.40639065573493       -2.10005530910656       -0.36984617252491
H            1.37205856177634       -2.80206437531041       -0.54493978124404
25
 energy: -42.098226057354 gnorm: 0.165626774496 xtb: 6.6.1 (8d0f1dd)
C            3.82997739357410        0.90293837307677        0.15513241190787
N            2.73802095569340       -0.02166685962375        0.01424899454096
C            2.80270963387454       -1.30694698182155       -0.31476168135892
N            1.57875358414225       -1.83345156902613       -0.35110143054020
C            0.66133383189228       -0.86189892785682       -0.00387368276664
C            1.38747230154057        0.35288098802751        0.23176605289299
C           -1.53767049200990       -0.11191179242182        0.68190586640888
O            1.02138533098659        1.47457090555005        0.51230093823408
N           -2.52745801405809        0.62346435560444        0.14801872882859
C           -2.77177475612301        1.86235520906145       -0.52315456376651
C           -2.92544075524760       -0.20777766168693        1.05786134536015
O           -3.72850807154179       -0.85136606316440        1.62082481782934
N           -0.69336555052449       -1.03256714774849        0.04169886195653
C           -1.34561075876905       -2.01757027297838       -0.51301048061126
H            4.37340583972414        0.71667207040295        1.08283832807704
H            4.51462863150543        0.81772092628314       -0.68714417176431
H            3.40593476259245        1.90651421316344        0.19099728306828
H            3.70636909991700       -1.84719185990942       -0.52407272914992
H           -1.81609172652917        2.35157567475632       -0.70327522280135
H           -3.26960419069285        1.66406071795199       -1.47376628413210
H           -3.40355421219119        2.50912464646806        0.08664305544515
H           -0.96325684190336        0.37093415408087        1.34244862736977
H           -0.84289194902579       -2.74009919472938       -1.12653159371592
H           -2.40638563455932       -2.10005837827773       -0.36988425545721
H            1.37205310183429       -2.80206698358051       -0.54493759795490
25
 energy: -42.119210384687 gnorm: 0.082954248269 xtb: 6.6.1 (8d0f1dd)
C            3.82584057261536        0.90579876623597        0.15713478585403
N            2.73476183309351       -0.02108186534811        0.01552970853010
C            2.80367772561117       -1.30658118141751       -0.31191970282750
N            1.58159319414427       -1.83723555565261       -0.35268579159247
C            0.65973519957953       -0.86756748643923       -0.01929795352745
C            1.38167422943481        0.34917317580765        0.22810754025802
C           -1.48176612458183       -0.10439606937372        0.72622130437402
O            1.01186628440803        1.46991335371402        0.51001436335300
N           -2.55467018610186        0.65285196791670        0.15948953369105
C           -2.78303540276824        1.88193402253039       -0.53096104510954
C           -2.95009557566685       -0.19827152096382        1.07228057594887
O           -3.77360966690907       -0.82280193952844        1.64685091974406
N           -0.69119008477591       -1.05410673332131        0.01069902701365
C           -1.33464218401852       -2.05535416750674       -0.54602610656958
H            4.36995399878902        0.72097781318898        1.08448424535275
H            4.51151124860387        0.82134684853579       -0.68436866593247
H            3.40135776816950        1.90910787007376        0.19193377037251
H            3.70924413964345       -1.84446028318698       -0.51884057505715
H           -1.82112123455480        2.36192091217818       -0.70802519168838
H           -3.27740123234016        1.67895200592701       -1.48226104418698
H           -3.41396449037107        2.52694346127692        0.07691168578083
H           -0.90364552516938        0.38058356851831        1.38691170834203
H           -0.82861961971776       -2.78587770765705       -1.14416480782546
H           -2.39451166927966       -2.13672941959644       -0.39341894611458
H            1.37748831626405       -2.80680129431011       -0.54342772028297
25
 energy: -42.123832946015 gnorm: 0.080616602805 xtb: 6.6.1 (8d0f1dd)
C            3.81945294532078        0.90537225459915        0.15711568951571
N            2.72741855085249       -0.02049140247657        0.01387201368088
C            2.79635863478840       -1.30590810160612       -0.31331411583587
N            1.57318988633786       -1.83429162760278       -0.35735664384080
C            0.64982588733360       -0.86382783742414       -0.02398766299982
C            1.37430599300814        0.35142766565633        0.22205390490549
C           -1.45192818876455       -0.08264754043545        0.76753967929653
O            1.00672162980511        1.47161340047665        0.50902277491472
N           -2.55405686247907        0.64666979706383        0.16361955703574
C           -2.77572378184972        1.87535422322129       -0.53430733952311
C           -2.94742546365533       -0.21025841359816        1.06706678229249
O           -3.77934848507422       -0.81861893256074        1.64191192349465
N           -0.70155896154436       -1.05494315962991        0.00408856300213
C           -1.33349511283612       -2.06650564219670       -0.55514140873335
H            4.36408731442229        0.71867646857454        1.08362218977176
H            4.50444873111314        0.82190890671618       -0.68495267390253
H            3.39551376699530        1.90878558913306        0.19338857467063
H            3.70239400579339       -1.84443184624647       -0.51805989554417
H           -1.81618022748571        2.36283856573980       -0.70189752581998
H           -3.26150660775902        1.67692021084118       -1.49100693493003
H           -3.41559570227060        2.52414713552556        0.06268575510266
H           -0.87236156579381        0.40894094971853        1.43002669381699
H           -0.81953461531426       -2.79643994941326       -1.14972567912947
H           -2.39346047673969       -2.15172067187102       -0.40831195178354
H            1.36889021989742       -2.80433150060316       -0.54678065155729
25
 energy: -42.125332626444 gnorm: 0.078913023402 xtb: 6.6.1 (8d0f1dd)
C            3.81336096225269        0.90540096181148        0.15481559881038
N            2.72173288973850       -0.02036191198785        0.00998240569942
C            2.78982730447384       -1.30563984289416       -0.31795078938030
N            1.56579650678559       -1.83155659280330       -0.36254651169402
C            0.64308304887844       -0.86069454238615       -0.02284690882777
C            1.37012833838473        0.35293585884671        0.21894142277050
C           -1.43719627268054       -0.06802948477537        0.79886051341634
O            1.00541880259792        1.47340468726729        0.50979922525585
N           -2.54888028307894        0.63215594771222        0.15990611497279
C           -2.76372191678222        1.86383458850764       -0.53702880415381
C           -2.94480738161565       -0.22600449206206        1.05573539188539
O           -3.78422987712399       -0.82212594571819        1.62962296565401
N           -0.70987301927974       -1.04957338816928        0.01075417459180
C           -1.33632764605274       -2.06084184215231       -0.55078199764201
H            4.35882178188788        0.71517626051139        1.08001486629550
H            4.49669334197910        0.82526477533762       -0.68878005976881
H            3.38841962057149        1.90828063852885        0.19558523672103
H            3.69556291153776       -1.84479957057281       -0.52194492569495
H           -1.80396767574598        2.35541798735519       -0.68994006760322
H           -3.23544311560351        1.66734720899062       -1.50135002071163
H           -3.41495535108458        2.51482777547690        0.04846797540708
H           -0.85642778720838        0.43133626535700        1.46496247936326
H           -0.81646397372835       -2.78275798386358       -1.15098634297030
H           -2.39666508129581       -2.15313488045960       -0.41086237616546
H            1.36054538629400       -2.80162393625662       -0.55125794833063
25
 energy: -42.126164362047 gnorm: 0.071495130273 xtb: 6.6.1 (8d0f1dd)
C            3.80824653346512        0.90654162853154        0.15123216283409
N            2.71776425809173       -0.02006781733576        0.00573012286078
C            2.78480876197860       -1.30495516505513       -0.32435340456080
N            1.56055917224628       -1.83000491230628       -0.36581835355031
C            0.63953264201718       -0.85954141956534       -0.01793630134145
C            1.36798698192491        0.35293501550164        0.22048152327830
C           -1.43511116370368       -0.06162843837924        0.81866978429525
O            1.00512578902266        1.47377399934724        0.51378494356143
N           -2.54295043538046        0.61778299972631        0.15257479271477
C           -2.75023106831894        1.85357071847285       -0.53987220823451
C           -2.94529136981155       -0.23744204893464        1.04583827168840
O           -3.79049788795011       -0.82583792185445        1.61791012749634
N           -0.71491257391447       -1.04411913764485        0.02346613681289
C           -1.34014848746538       -2.05066981357487       -0.54177209183112
H            4.35626822711477        0.71231428345487        1.07407051065758
H            4.48886222661811        0.83190685551279       -0.69494869450756
H            3.38103165606283        1.90827679802660        0.19864917766431
H            3.68990433054224       -1.84396672075483       -0.53067175753502
H           -1.78835332547790        2.34595497557345       -0.67608543536988
H           -3.20597471433409        1.65876417698722       -1.51246323663922
H           -3.41186202416763        2.50401104628496        0.03581833933235
H           -0.85231027776293        0.44531723247328        1.48932250450317
H           -0.81618201448768       -2.76175561953958       -1.15199664580564
H           -2.40028625635656       -2.15297347509642       -0.40611675501511
H            1.35445253414847       -2.79994869824968       -0.55434189540858
25
 energy: -42.127183008037 gnorm: 0.054404460053 xtb: 6.6.1 (8d0f1dd)
C            3.80120845648183        0.90964557770248        0.14530954396330
N            2.71297113792534       -0.01922755064546        0.00003904787283
C            2.77892886347546       -1.30318312572094       -0.33457565736702
N            1.55508263854032       -1.82925689762403       -0.36818891298799
C            0.63661669889572       -0.86072459331318       -0.00797107618026
C            1.36541100554349        0.35105662463124        0.22709020433921
C           -1.44119048919129       -0.05951210310379        0.83690990235918
O            1.00342808956879        1.47184675564250        0.52363107479707
N           -2.53458935409562        0.59898328778101        0.13897136171367
C           -2.72995016684102        1.84208309052670       -0.54419589721736
C           -2.94911797546538       -0.24781150913792        1.03433620160910
O           -3.80138921881690       -0.82758761930978        1.60384322336707
N           -0.71932574830783       -1.03954228817692        0.04490317208117
C           -1.34551905943342       -2.03762513785178       -0.52757870345295
H            4.35567932208342        0.70925523963778        1.06304721667724
H            4.47631437516935        0.84525892448792       -0.70609474575929
H            3.36963043320480        1.90910869597784        0.20455344572538
H            3.68310020237268       -1.84066705384178       -0.54799595487954
H           -1.76411996478969        2.33365897883136       -0.65467838058013
H           -3.16136511317321        1.65170195981760       -1.52907406425017
H           -3.40531752149625        2.48904332190848        0.01910159270359
H           -0.85310211181506        0.45937177431471        1.51546390453171
H           -0.81693332544551       -2.73224031053231       -1.15393660986115
H           -2.40446875327137       -2.15634265915029       -0.39479389405848
H            1.34844909298299       -2.79905484124965       -0.55694437724565
25
 energy: -42.128016059938 gnorm: 0.034247117381 xtb: 6.6.1 (8d0f1dd)
C            3.79475947082608        0.91430345658162        0.13923674062828
N            2.70905439176255       -0.01774518552147       -0.00365623078038
C            2.77515600685171       -1.30036656244493       -0.34371012154985
N            1.55253527356744       -1.83006754616939       -0.36764047650818
C            0.63561895837124       -0.86528026377458        0.00371067468649
C            1.36259141608592        0.34742489616004        0.23740607948352
C           -1.45309645810695       -0.06522486804644        0.84338991506048
O            0.99923865879271        1.46697333574991        0.53796504732987
N           -2.52832686328755        0.58642492628106        0.12474119112324
C           -2.71137244445903        1.83727611215865       -0.54816934859135
C           -2.95639433529024       -0.24886406943179        1.02747763870514
O           -3.81480529035161       -0.82216199950526        1.59435926355328
N           -0.72029415217092       -1.04231151302650        0.06450736194942
C           -1.34862399367420       -2.03330097728159       -0.51641106923713
H            4.35875593679111        0.70813771043024        1.05000583669221
H            4.46236838853916        0.86115670787740       -0.71898807942172
H            3.35858669278683        1.91110195561219        0.21144829283591
H            3.67867904759472       -1.83464333637192       -0.56793856701975
H           -1.74204663322699        2.32731026381764       -0.63399808528503
H           -3.12029407206475        1.65424114933372       -1.54396917025790
H           -3.39793736263089        2.47847801909108        0.00604472993890
H           -0.85709262379313        0.46562055437219        1.53044274106873
H           -0.81760744277518       -2.71538013983277       -1.15478729685017
H           -2.40567049223736       -2.16508614607594       -0.38257188364673
H            1.34664943620104       -2.79977793838129       -0.55772356600671
25
 energy: -42.128623925234 gnorm: 0.016499674981 xtb: 6.6.1 (8d0f1dd)
C            3.78894893497442        0.92002065071933        0.13365153425709
N            2.70567031485562       -0.01566363359592       -0.00450726311817
C            2.77362553776393       -1.29671869951379       -0.34985401965109
N            1.55290518387909       -1.83181901312107       -0.36505475647840
C            0.63552771578331       -0.87216793899365        0.01464639129897
C            1.35905872618350        0.34299929184983        0.24876260334626
C           -1.46526208554735       -0.07704038593643        0.83987737232791
O            0.99280010374670        1.46007678549353        0.55476771180771
N           -2.52541177346571        0.58246153423322        0.11263152600380
C           -2.69651824340133        1.84051901643018       -0.55060093184852
C           -2.96586127785498       -0.24130542536803        1.02454059161266
O           -3.83024439697751       -0.80938291706005        1.58824262586822
N           -0.71874249458492       -1.05338988251578        0.07695491293278
C           -1.34826372685573       -2.04169812854567       -0.51041058597023
H            4.36460175166822        0.70924668897771        1.03613622150474
H            4.44735975305375        0.87718141649139       -0.73242822917223
H            3.34907725550367        1.91419477239079        0.21839082209130
H            3.67696758190275       -1.82648309559494       -0.58612967888104
H           -1.72532381003964        2.33024712699504       -0.61466919946383
H           -3.08684401100430        1.66718965277443       -1.55513533969976
H           -3.39229225183877        2.47450603492007       -0.00177173807533
H           -0.85968455105409        0.46441420046526        1.53485584102714
H           -0.81717603197278       -2.72010939954826       -1.15138670752086
H           -2.40368544707495       -2.17751165386903       -0.37276049703763
H            1.34919875645888       -2.80152845647625       -0.55757758926083
25
 energy: -42.128948243310 gnorm: 0.007334632592 xtb: 6.6.1 (8d0f1dd)
C            3.78408804955811        0.92509778692844        0.13005274181291
N            2.70264588640260       -0.01366295947023       -0.00306727369108
C            2.77372167083757       -1.29350303334226       -0.35172311943471
N            1.55488632683798       -1.83334543733756       -0.36310641704927
C            0.63496986556813       -0.87812938532875        0.02001096418286
C            1.35514999578007        0.33967497150819        0.25574424113105
C           -1.47124968719087       -0.08904106149645        0.83100372737966
O            0.98623001257470        1.45410483264972        0.56728335742987
N           -2.52547269730349        0.58602048078235        0.10612619044267
C           -2.68748770982819        1.84911923867241       -0.55009207867878
C           -2.97288406231966       -0.23113920023625        1.02341779357997
O           -3.84225053377659       -0.79511747255705        1.58409726289582
N           -0.71730093683274       -1.06720031427054        0.07794266221070
C           -1.34559267103350       -2.05914142610713       -0.50859068966203
H            4.36970233113395        0.71165978548015        1.02540007816793
H            4.43422696855579        0.88907384478869       -0.74262757461927
H            3.34229890407946        1.91741049598379        0.22394685710589
H            3.67751462148142       -1.81920448710837       -0.59535751690900
H           -1.71642996803156        2.34113905711559       -0.59797980708454
H           -3.06497673822522        1.68473141653937       -1.56081868446468
H           -3.39100780011145        2.47639508158452       -0.00375718297048
H           -0.85762278482045        0.45915333017306        1.53102071832750
H           -0.81575605466376       -2.74411397120917       -1.14235797523286
H           -2.40103358202809       -2.18851028289024       -0.36762799922154
H            1.35406210745763       -2.80323274925033       -0.55776865774794
