25
 energy: -42.145070133109 gnorm: 0.003965969218 xtb: 6.6.1 (8d0f1dd)
C            3.76164253436289        0.88691379045995        0.04425781093791
N            2.79125846643864       -0.16993711355811        0.00531187886385
C            3.02731238813920       -1.46511330886842       -0.07928550493939
N            1.88748525895085       -2.16431259822337       -0.06036071274001
C            0.77590659425631       -1.29353931385401        0.03940637188510
C            1.40416542471894        0.03308318558079        0.09459416450876
C            0.76568468555636        1.18735843827049        0.22469892339410
O            0.10367864278657        2.13301671085456        0.31876938509440
N           -3.26845271809583        1.52734548610117       -0.27645801953121
C           -3.36272035737361        2.92263979082796       -0.15358249723944
C           -3.49841903284487        0.41725392086059        0.06857534236880
O           -3.62555151733878       -0.72129016330083        0.24102060528628
N           -0.45322283704338       -1.53669038567690        0.06779060884436
C           -1.08027202989180       -2.81387738929567        0.01848964473876
H            3.84811253360591        1.29102548283663        1.05619513430358
H            4.73200432103015        0.50628490273308       -0.26765416969650
H            3.46048257952591        1.69434686227213       -0.62432368925646
H            4.00680706892216       -1.89983322866592       -0.15742342778047
H           -2.35396752887813        3.33223685276806       -0.07389158821814
H           -3.83708101120085        3.32603604686426       -1.05030161972146
H           -3.94368991614904        3.21170420917799        0.72440926565134
H           -0.62969073511813       -3.53636514030363        0.70575046512057
H           -1.04293195566141       -3.21882671777728       -0.99623700288138
H           -2.12517220998578       -2.66304700161963        0.28696025114099
H            1.81706286538501       -3.16817477683990       -0.12554000223749
