25
 energy: -41.970847173365 gnorm: 0.003230448524 xtb: 6.6.1 (8d0f1dd)
C            2.73949633426483        1.64597824371332        0.35754166957651
N            1.83888311691991        0.79847124829497        0.50501338381379
C            5.15366698756550       -1.58674036026737       -0.48752567540693
N            1.15506626049989       -1.80718364983109        0.12521008247728
C            0.23332498638675       -0.93156746113543        0.11407259766468
C            0.62663898109557        0.46027417923981        0.23778354557009
C           -0.37733851330833        1.55317877813408        0.17174022420708
O           -0.03798655182024        2.71400812896395        0.19062745379599
N           -1.67689408119525        1.13191736629540        0.06744037897800
C           -2.72804709160440        2.13494942620479        0.00766769675223
C           -2.10096403024999       -0.18951735111404       -0.01729690982004
O           -3.26928893188999       -0.45798964197520       -0.10672739495318
N           -1.12126762636041       -1.17506630245811       -0.00541254869104
C           -1.57212133934370       -2.55216714440088       -0.11675172973552
H            3.45959055317517        1.78997488260382        1.15374769182044
H            6.01189361527880       -0.94284232053888       -0.51631211231591
H            2.88411997850920        2.20113961454470       -0.56725794709485
H            5.09042089774023       -2.63804151459759       -0.68474438676263
H           -2.27289473979021        3.11666297030558        0.11557878497914
H           -3.25442186915005        2.06555278227593       -0.94509319488009
H           -3.44790774229695        1.95753622473549        0.80735221991677
H           -1.27925527870884       -3.11984319207034        0.76808328122148
H           -1.15371051973545       -3.01660009049483       -1.01121226736743
H           -2.65803004853372       -2.54726022118559       -0.19254010315637
H            0.91745816665190       -2.78658605364519        0.06018687730964
