25
 energy: -42.175632818667 gnorm: 0.005516258927 xtb: 6.6.1 (8d0f1dd)
C            3.23693822146622        1.20346015855246        0.07672804278770
N            2.32944762495196        0.08870910764615        0.05176702301037
C            2.65947576092474       -1.20969309009603        0.06053670734647
N            1.53587464260638       -1.96752534284076        0.03515546122001
C            0.46059876358670       -1.12199948448495        0.01046946337222
C            0.95578576439658        0.17863708365951        0.02042928750166
C            0.10811203579132        1.33442301492379       -0.03021148494876
O            0.44122841078335        2.50146195232125       -0.04663814984766
N           -1.25217974758430        0.94420426384760       -0.06173559972063
C           -2.24945748916677        2.00057167216134       -0.08738250937307
C           -1.69624106181602       -0.33053236750777       -0.03701441539948
O           -3.01204490394723       -0.50808364376338       -0.01723147345241
N           -0.87589924168719       -1.42567000879377       -0.02678156994942
C           -1.34740225608323       -2.70164892687737       -0.01081196247025
H            3.83485993663161        1.18576142225390        0.98832871996070
H            3.90632159716082        1.16668539322491       -0.78299586380401
H            2.65553461237317        2.12386065648430        0.04334513984502
H            3.65769554103999       -1.59507347006074        0.07962363160958
H           -1.71393577718984        2.94807321623646       -0.08643138118334
H           -2.86312486633607        1.91744394334185       -0.98284936816532
H           -2.89123792470536        1.93160484898441        0.78957967445186
H           -0.66738453961549       -3.49625399863010        0.17569065948430
H           -2.34276099511710       -2.93513121557579       -0.31724067964603
H           -3.22334784980853       -1.43957845470604        0.17028887561167
H            1.51357525544426       -2.97546818870134        0.01655338965874
