      -----------------------------------------------------------      
     |                   =====================                   |     
     |                           x T B                           |     
     |                   =====================                   |     
     |                         S. Grimme                         |     
     |          Mulliken Center for Theoretical Chemistry        |     
     |                    University of Bonn                     |     
      -----------------------------------------------------------      

   * xtb version 6.6.1 (8d0f1dd) compiled by 'conda@1efc2f54142f' on 2023-08-01

   xtb is free software: you can redistribute it and/or modify it under
   the terms of the GNU Lesser General Public License as published by
   the Free Software Foundation, either version 3 of the License, or
   (at your option) any later version.
   
   xtb is distributed in the hope that it will be useful,
   but WITHOUT ANY WARRANTY; without even the implied warranty of
   MERCHANTABILITY or FITNESS FOR A PARTICULAR PURPOSE.  See the
   GNU Lesser General Public License for more details.
   
   Cite this work as:
   * C. Bannwarth, E. Caldeweyher, S. Ehlert, A. Hansen, P. Pracht,
     J. Seibert, S. Spicher, S. Grimme, WIREs Comput. Mol. Sci., 2020, 11,
     e01493. DOI: 10.1002/wcms.1493
   
   for GFN2-xTB:
   * C. Bannwarth, S. Ehlert and S. Grimme., J. Chem. Theory Comput., 2019,
     15, 1652-1671. DOI: 10.1021/acs.jctc.8b01176
   for GFN1-xTB:
   * S. Grimme, C. Bannwarth, P. Shushkov, J. Chem. Theory Comput., 2017,
     13, 1989-2009. DOI: 10.1021/acs.jctc.7b00118
   for GFN0-xTB:
   * P. Pracht, E. Caldeweyher, S. Ehlert, S. Grimme, ChemRxiv, 2019, preprint.
     DOI: 10.26434/chemrxiv.8326202.v1
   for GFN-FF:
   * S. Spicher and S. Grimme, Angew. Chem. Int. Ed., 2020, 59, 15665-15673.
     DOI: 10.1002/anie.202004239
   
   for ALPB and GBSA implicit solvation:
   * S. Ehlert, M. Stahn, S. Spicher, S. Grimme, J. Chem. Theory Comput.,
     2021, 17, 4250-4261. DOI: 10.1021/acs.jctc.1c00471
   
   for DFT-D4:
   * E. Caldeweyher, C. Bannwarth and S. Grimme, J. Chem. Phys., 2017,
     147, 034112. DOI: 10.1063/1.4993215
   * E. Caldeweyher, S. Ehlert, A. Hansen, H. Neugebauer, S. Spicher,
     C. Bannwarth and S. Grimme, J. Chem. Phys., 2019, 150, 154122.
     DOI: 10.1063/1.5090222
   * E. Caldeweyher, J.-M. Mewes, S. Ehlert and S. Grimme, Phys. Chem. Chem. Phys.
     2020, 22, 8499-8512. DOI: 10.1039/D0CP00502A
   
   for sTDA-xTB:
   * S. Grimme and C. Bannwarth, J. Chem. Phys., 2016, 145, 054103.
     DOI: 10.1063/1.4959605
   
   in the mass-spec context:
   * V. Asgeirsson, C. Bauer and S. Grimme, Chem. Sci., 2017, 8, 4879.
     DOI: 10.1039/c7sc00601b
   * J. Koopman and S. Grimme, ACS Omega 2019, 4, 12, 15120-15133.
     DOI: 10.1021/acsomega.9b02011
   
   for metadynamics refer to:
   * S. Grimme, J. Chem. Theory Comput., 2019, 155, 2847-2862
     DOI: 10.1021/acs.jctc.9b00143
   
   for SPH calculations refer to:
   * S. Spicher and S. Grimme, J. Chem. Theory Comput., 2021, 17, 1701-1714
     DOI: 10.1021/acs.jctc.0c01306
   
   with help from (in alphabetical order)
   P. Atkinson, C. Bannwarth, F. Bohle, G. Brandenburg, E. Caldeweyher
   M. Checinski, S. Dohm, S. Ehlert, S. Ehrlich, I. Gerasimov, C. Hölzer
   A. Katbashev, J. Koopman, C. Lavigne, S. Lehtola, F. März, M. Müller,
   F. Musil, H. Neugebauer, J. Pisarek, C. Plett, P. Pracht, F. Pultar,
   J. Seibert, P. Shushkov, S. Spicher, M. Stahn, M. Steiner, T. Strunk,
   J. Stückrath, T. Rose, and J. Unsleber
   
 * started run on 2024/06/05 at 19:57:59.994     

           -------------------------------------------------
          |                Calculation Setup                |
           -------------------------------------------------

          program call               : xtb struc.xyz --opt loose --input .xc1 --gfn2
          hostname                   : n-62-21-70
          coordinate file            : struc.xyz
          omp threads                :                     1

   ID    Z sym.   atoms
    1    6 C      1, 3, 5-7, 10, 11, 14
    2    7 N      2, 4, 9, 13
    3    8 O      8, 12
    4    1 H      15-25
constraining bond 11 24 to    3.7133300 Å, actual value:    2.4695195 Å

           -------------------------------------------------
          |                 G F N 2 - x T B                 |
           -------------------------------------------------

        Reference                      10.1021/acs.jctc.8b01176
      * Hamiltonian:
        H0-scaling (s, p, d)           1.850000    2.230000    2.230000
        zeta-weighting                 0.500000
      * Dispersion:
        s8                             2.700000
        a1                             0.520000
        a2                             5.000000
        s9                             5.000000
      * Repulsion:
        kExp                           1.500000    1.000000
        rExp                           1.000000
      * Coulomb:
        alpha                          2.000000
        third order                    shell-resolved
        anisotropic                    true
        a3                             3.000000
        a5                             4.000000
        cn-shift                       1.200000
        cn-exp                         4.000000
        max-rad                        5.000000


          ...................................................
          :                      SETUP                      :
          :.................................................:
          :  # basis functions                  67          :
          :  # atomic orbitals                  67          :
          :  # shells                           39          :
          :  # electrons                        74          :
          :  max. iterations                   250          :
          :  Hamiltonian                  GFN2-xTB          :
          :  restarted?                      false          :
          :  GBSA solvation                  false          :
          :  PC potential                    false          :
          :  electronic temp.         5000.0000000     K    :
          :  accuracy                    1.0000000          :
          :  -> integral cutoff          0.2500000E+02      :
          :  -> integral neglect         0.1000000E-07      :
          :  -> SCF convergence          0.1000000E-05 Eh   :
          :  -> wf. convergence          0.1000000E-03 e    :
          :  Broyden damping             0.4000000          :
          ...................................................

 iter      E             dE          RMSdq      gap      omega  full diag
   1    -42.5894031 -0.425894E+02  0.445E+00    3.52       0.0  T
   2    -42.7683054 -0.178902E+00  0.251E+00    3.36       1.0  T
   3    -42.7759211 -0.761567E-02  0.147E+00    3.35       1.0  T
   4    -42.7728404  0.308066E-02  0.553E-01    3.33       1.0  T
   5    -42.7789548 -0.611444E-02  0.112E-01    3.35       1.0  T
   6    -42.7790473 -0.924914E-04  0.614E-02    3.33       1.0  T
   7    -42.7790721 -0.247928E-04  0.258E-02    3.34       1.0  T
   8    -42.7790772 -0.508996E-05  0.938E-03    3.34       2.1  T
   9    -42.7790779 -0.669422E-06  0.448E-03    3.34       4.5  T
  10    -42.7790780 -0.821511E-07  0.115E-03    3.34      17.4  T
  11    -42.7790780 -0.322662E-08  0.553E-04    3.34      36.2  T
  12    -42.7790780 -0.287052E-08  0.180E-04    3.34     111.1  T

   *** convergence criteria satisfied after 12 iterations ***

         #    Occupation            Energy/Eh            Energy/eV
      -------------------------------------------------------------
         1        2.0000           -0.9185990             -24.9964
       ...           ...                  ...                  ...
        31        1.9996           -0.6230278             -16.9534
        32        1.9995           -0.6194601             -16.8564
        33        1.9979           -0.5974976             -16.2587
        34        1.9932           -0.5789629             -15.7544
        35        1.9817           -0.5631863             -15.3251
        36        1.9779           -0.5602245             -15.2445
        37        1.9748           -0.5581234             -15.1873 (HOMO)
        38        0.0652           -0.4353579             -11.8467 (LUMO)
        39        0.0099           -0.4050467             -11.0219
        40        0.0013           -0.3732218             -10.1559
        41        0.0000           -0.2886859              -7.8555
        42                         -0.2065804              -5.6213
       ...                                ...                  ...
        67                          0.5625656              15.3082
      -------------------------------------------------------------
                  HL-Gap            0.1227656 Eh            3.3406 eV
             Fermi-level           -0.4890455 Eh          -13.3076 eV

 SCC (total)                   0 d,  0 h,  0 min,  0.063 sec
 SCC setup                      ...        0 min,  0.000 sec (  0.379%)
 Dispersion                     ...        0 min,  0.000 sec (  0.478%)
 classical contributions        ...        0 min,  0.000 sec (  0.121%)
 integral evaluation            ...        0 min,  0.005 sec (  8.360%)
 iterations                     ...        0 min,  0.031 sec ( 49.035%)
 molecular gradient             ...        0 min,  0.026 sec ( 41.356%)
 printout                       ...        0 min,  0.000 sec (  0.249%)

         :::::::::::::::::::::::::::::::::::::::::::::::::::::
         ::                     SUMMARY                     ::
         :::::::::::::::::::::::::::::::::::::::::::::::::::::
         :: total energy             -53.297191963666 Eh    ::
         :: gradient norm             13.296179667013 Eh/a0 ::
         :: HOMO-LUMO gap              3.340621582928 eV    ::
         ::.................................................::
         :: SCC energy               -42.779077977399 Eh    ::
         :: -> isotropic ES            0.141123876439 Eh    ::
         :: -> anisotropic ES         -0.005230418907 Eh    ::
         :: -> anisotropic XC          0.011966818540 Eh    ::
         :: -> dispersion             -0.022657731803 Eh    ::
         :: repulsion energy           0.531105277918 Eh    ::
         :: add. restraining         -11.049333423194 Eh    ::
         :: total charge               1.000000000002 e     ::
         :::::::::::::::::::::::::::::::::::::::::::::::::::::

      ----------------------------------------------------------- 
     |                   =====================                   |
     |                        A N C O P T                        |
     |                   =====================                   |
     |               Approximate Normal Coordinate               |
     |                Rational Function Optimizer                |
      ----------------------------------------------------------- 

          ...................................................
          :                      SETUP                      :
          :.................................................:
          :   optimization level             loose          :
          :   max. optcycles                   200          :
          :   ANC micro-cycles                  20          :
          :   degrees of freedom                69          :
          :.................................................:
          :   RF solver                   davidson          :
          :   write xtbopt.log                true          :
          :   linear?                        false          :
          :   energy convergence         0.5000000E-04 Eh   :
          :   grad. convergence          0.4000000E-02 Eh/α :
          :   maxmium RF displ.          1.0000000          :
          :   Hlow (freq-cutoff)         0.1000000E-01      :
          :   Hmax (freq-cutoff)         5.0000000          :
          :   S6 in model hess.         20.0000000          :
          ...................................................

generating ANC from model Hessian ...
Using Lindh-Hessian (1995)
 Shifting diagonal of input Hessian by    7.3839184333853849     
 Lowest  eigenvalues of input Hessian
    0.010000    0.000000    0.000000    0.000000    0.000000    0.000000
    0.000000    7.387023    7.388355    7.390476    7.392715    7.394760
    7.397022    7.402192    7.406279    7.408611    7.420374    7.424904
 Highest eigenvalues
    9.536926    9.601790    9.721632    9.823066   11.413974   12.605047


........................................................................
.............................. CYCLE    1 ..............................
........................................................................

 iter      E             dE          RMSdq      gap      omega  full diag
   1    -42.7790780 -0.427791E+02  0.626E-05    3.34       0.0  T
   2    -42.7790780 -0.124203E-10  0.329E-05    3.34     607.4  T
   3    -42.7790780  0.106581E-12  0.193E-05    3.34    1034.2  T
     SCC iter.                  ...        0 min,  0.005 sec
     gradient                   ...        0 min,  0.026 sec
 * total energy  :   -53.2971920 Eh     change       -0.6650680E-10 Eh
   gradient norm :    13.2961795 Eh/α   predicted     0.0000000E+00 (-100.00%)
   displ. norm   :     0.9986292 α      lambda       -0.1326854E+02
   maximum displ.:     0.9959780 α      in ANC's #1, #11, #10, ...

........................................................................
.............................. CYCLE    2 ..............................
........................................................................

 iter      E             dE          RMSdq      gap      omega  full diag
   1    -42.6993317 -0.426993E+02  0.164E+00    3.17       0.0  T
   2    -42.7325069 -0.331752E-01  0.952E-01    2.39       1.0  T
   3    -42.7375724 -0.506553E-02  0.475E-01    2.79       1.0  T
   4    -42.7373833  0.189137E-03  0.283E-01    2.48       1.0  T
   5    -42.7383160 -0.932737E-03  0.803E-02    2.67       1.0  T
   6    -42.7384444 -0.128378E-03  0.164E-02    2.64       1.2  T
   7    -42.7384454 -0.989534E-06  0.716E-03    2.64       2.8  T
   8    -42.7384456 -0.229497E-06  0.194E-03    2.64      10.3  T
   9    -42.7384457 -0.276289E-07  0.709E-04    2.64      28.2  T
  10    -42.7384457 -0.151739E-08  0.223E-04    2.64      89.9  T
     SCC iter.                  ...        0 min,  0.027 sec
     gradient                   ...        0 min,  0.026 sec
 * total energy  :   -70.4477000 Eh     change       -0.1715051E+02 Eh
   gradient norm :    21.0903585 Eh/α   predicted    -0.1325485E+02 ( -22.71%)
   displ. norm   :     0.9991043 α      lambda       -0.2106820E+02
   maximum displ.:     0.9963183 α      in ANC's #1, #11, #10, ...

........................................................................
.............................. CYCLE    3 ..............................
........................................................................

 iter      E             dE          RMSdq      gap      omega  full diag
   1    -42.5311588 -0.425312E+02  0.117E+00    2.41       0.0  T
   2    -42.5326806 -0.152179E-02  0.135E+00    1.32       1.0  T
   3    -42.5609925 -0.283119E-01  0.581E-01    1.90       1.0  T
   4    -42.5539059  0.708659E-02  0.568E-01    1.53       1.0  T
   5    -42.5616845 -0.777863E-02  0.168E-01    1.76       1.0  T
   6    -42.5622248 -0.540255E-03  0.385E-02    1.83       1.0  T
   7    -42.5622430 -0.182084E-04  0.183E-02    1.83       1.1  T
   8    -42.5622465 -0.351929E-05  0.560E-03    1.82       3.6  T
   9    -42.5622472 -0.700455E-06  0.191E-03    1.82      10.4  T
  10    -42.5622473 -0.584022E-07  0.873E-04    1.82      22.9  T
  11    -42.5622473 -0.409771E-08  0.372E-04    1.82      53.7  T
     SCC iter.                  ...        0 min,  0.041 sec
     gradient                   ...        0 min,  0.026 sec
 * total energy  :   -95.4658234 Eh     change       -0.2501812E+02 Eh
   gradient norm :    28.9356875 Eh/α   predicted    -0.2104935E+02 ( -15.86%)
   displ. norm   :     0.9992021 α      lambda       -0.2890949E+02
   maximum displ.:     0.9955724 α      in ANC's #1, #11, #10, ...

........................................................................
.............................. CYCLE    4 ..............................
........................................................................

 iter      E             dE          RMSdq      gap      omega  full diag
   1    -42.2723138 -0.422723E+02  0.303E+00    0.43       0.0  T
   2    -42.3048950 -0.325812E-01  0.207E+00    2.62       1.0  T
   3    -42.4487585 -0.143864E+00  0.582E-01    1.37       1.0  T
   4    -42.4490472 -0.288666E-03  0.403E-01    1.29       1.0  T
   5    -42.4477978  0.124936E-02  0.334E-01    1.19       1.0  T
   6    -42.4510506 -0.325272E-02  0.916E-02    1.36       1.0  T
   7    -42.4512545 -0.203954E-03  0.296E-02    1.34       1.0  T
   8    -42.4512467  0.779894E-05  0.252E-02    1.35       1.0  T
   9    -42.4512688 -0.220932E-04  0.832E-03    1.34       2.4  T
  10    -42.4512693 -0.500960E-06  0.315E-03    1.34       6.3  T
  11    -42.4512696 -0.237779E-06  0.126E-03    1.34      15.9  T
  12    -42.4512696 -0.454650E-07  0.613E-04    1.34      32.6  T
  13    -42.4512696 -0.505671E-08  0.168E-04    1.34     119.0  T
     SCC iter.                  ...        0 min,  0.030 sec
     gradient                   ...        0 min,  0.013 sec
 * total energy  :  -121.8812383 Eh     change       -0.2641541E+02 Eh
   gradient norm :     1.0169982 Eh/α   predicted    -0.2888645E+02 (   9.35%)
   displ. norm   :     0.0763138 α      lambda       -0.4925816E-01
   maximum displ.:     0.0358017 α      in ANC's #1, #10, #11, ...

........................................................................
.............................. CYCLE    5 ..............................
........................................................................

 iter      E             dE          RMSdq      gap      omega  full diag
   1    -42.4575934 -0.424576E+02  0.245E-01    1.29       0.0  T
   2    -42.4523588  0.523457E-02  0.474E-01    1.59       1.0  T
   3    -42.4598272 -0.746845E-02  0.127E-01    1.41       1.0  T
   4    -42.4599022 -0.749808E-04  0.829E-02    1.41       1.0  T
   5    -42.4600192 -0.116950E-03  0.207E-02    1.38       1.0  T
   6    -42.4600302 -0.109993E-04  0.411E-03    1.38       4.9  T
   7    -42.4600300  0.215926E-06  0.396E-03    1.38       5.0  T
   8    -42.4600303 -0.335462E-06  0.163E-03    1.38      12.3  T
   9    -42.4600304 -0.641525E-07  0.383E-04    1.38      52.2  T
  10    -42.4600304 -0.315371E-08  0.213E-04    1.38      93.9  T
     SCC iter.                  ...        0 min,  0.014 sec
     gradient                   ...        0 min,  0.013 sec
 * total energy  :  -121.8064497 Eh     change        0.7478861E-01 Eh
   gradient norm :     6.1453474 Eh/α   predicted    -0.2477245E-01 (-133.12%)
   displ. norm   :     0.0473354 α      lambda       -0.1733750E+00
   maximum displ.:     0.0251995 α      in ANC's #1, #10, #11, ...

........................................................................
.............................. CYCLE    6 ..............................
........................................................................

 iter      E             dE          RMSdq      gap      omega  full diag
   1    -42.4586642 -0.424587E+02  0.166E-01    1.28       0.0  T
   2    -42.4570337  0.163045E-02  0.269E-01    1.49       1.0  T
   3    -42.4595111 -0.247737E-02  0.451E-02    1.35       1.0  T
   4    -42.4594804  0.306531E-04  0.523E-02    1.37       1.0  T
   5    -42.4595467 -0.662780E-04  0.118E-02    1.36       1.7  T
   6    -42.4595479 -0.113662E-05  0.287E-03    1.35       7.0  T
   7    -42.4595480 -0.135503E-06  0.198E-03    1.36      10.1  T
   8    -42.4595481 -0.905232E-07  0.840E-04    1.36      23.8  T
   9    -42.4595481 -0.134601E-07  0.185E-04    1.36     108.0  T
     SCC iter.                  ...        0 min,  0.012 sec
     gradient                   ...        0 min,  0.013 sec
 * total energy  :  -121.9044392 Eh     change       -0.9798953E-01 Eh
   gradient norm :     0.4200592 Eh/α   predicted    -0.8688197E-01 ( -11.34%)
   displ. norm   :     0.0660205 α      lambda       -0.1141080E-01
   maximum displ.:     0.0302788 α      in ANC's #10, #11, #26, ...

........................................................................
.............................. CYCLE    7 ..............................
........................................................................

 iter      E             dE          RMSdq      gap      omega  full diag
   1    -42.4611658 -0.424612E+02  0.228E-01    1.26       0.0  T
   2    -42.4538225  0.734329E-02  0.521E-01    1.63       1.0  T
   3    -42.4634069 -0.958438E-02  0.138E-01    1.42       1.0  T
   4    -42.4635729 -0.165990E-03  0.905E-02    1.40       1.0  T
   5    -42.4637671 -0.194268E-03  0.192E-02    1.38       1.0  T
   6    -42.4637729 -0.576836E-05  0.340E-03    1.38       5.9  T
   7    -42.4637728  0.122630E-06  0.289E-03    1.38       6.9  T
   8    -42.4637729 -0.163574E-06  0.100E-03    1.38      20.0  T
   9    -42.4637730 -0.341306E-07  0.374E-04    1.38      53.5  T
  10    -42.4637730 -0.140273E-08  0.227E-04    1.38      87.9  T
     SCC iter.                  ...        0 min,  0.014 sec
     gradient                   ...        0 min,  0.013 sec
 * total energy  :  -121.9136262 Eh     change       -0.9186960E-02 Eh
   gradient norm :     0.2447307 Eh/α   predicted    -0.5730320E-02 ( -37.63%)
   displ. norm   :     0.1617816 α      lambda       -0.2032477E-01
   maximum displ.:     0.0661433 α      in ANC's #10, #11, #21, ...

........................................................................
.............................. CYCLE    8 ..............................
........................................................................

 iter      E             dE          RMSdq      gap      omega  full diag
   1    -42.4532553 -0.424533E+02  0.615E-01    0.83       0.0  T
   2    -42.3932041  0.600512E-01  0.145E+00    2.25       1.0  T
   3    -42.4674666 -0.742625E-01  0.497E-01    1.47       1.0  T
   4    -42.4737692 -0.630257E-02  0.204E-01    1.29       1.0  T
   5    -42.4744714 -0.702147E-03  0.674E-02    1.17       1.0  T
   6    -42.4746459 -0.174513E-03  0.208E-02    1.22       1.0  T
   7    -42.4746542 -0.829205E-05  0.680E-03    1.21       2.9  T
   8    -42.4746542 -0.253670E-07  0.310E-03    1.21       6.4  T
   9    -42.4746543 -0.131913E-06  0.132E-03    1.21      15.2  T
  10    -42.4746544 -0.367357E-07  0.582E-04    1.21      34.4  T
  11    -42.4746543  0.120576E-07  0.671E-04    1.21      29.8  T
     SCC iter.                  ...        0 min,  0.015 sec
     gradient                   ...        0 min,  0.013 sec
 * total energy  :  -121.9279226 Eh     change       -0.1429642E-01 Eh
   gradient norm :     0.3230059 Eh/α   predicted    -0.1043272E-01 ( -27.03%)
   displ. norm   :     0.1517789 α      lambda       -0.1245226E-01
   maximum displ.:     0.0589003 α      in ANC's #21, #11, #10, ...

........................................................................
.............................. CYCLE    9 ..............................
........................................................................

 iter      E             dE          RMSdq      gap      omega  full diag
   1    -42.4636190 -0.424636E+02  0.609E-01    0.64       0.0  T
   2    -42.3755661  0.880528E-01  0.163E+00    2.22       1.0  T
   3    -42.4760094 -0.100443E+00  0.533E-01    1.30       1.0  T
   4    -42.4846941 -0.868470E-02  0.192E-01    1.08       1.0  T
   5    -42.4852973 -0.603164E-03  0.675E-02    0.99       1.0  T
   6    -42.4854170 -0.119711E-03  0.215E-02    1.01       1.0  T
   7    -42.4854365 -0.194630E-04  0.105E-02    1.02       1.9  T
   8    -42.4854378 -0.135009E-05  0.626E-03    1.02       3.2  T
   9    -42.4854393 -0.150449E-05  0.177E-03    1.02      11.3  T
  10    -42.4854394 -0.760699E-07  0.922E-04    1.02      21.7  T
  11    -42.4854394 -0.164582E-07  0.407E-04    1.02      49.1  T
     SCC iter.                  ...        0 min,  0.015 sec
     gradient                   ...        0 min,  0.013 sec
 * total energy  :  -121.9375323 Eh     change       -0.9609726E-02 Eh
   gradient norm :     0.2450640 Eh/α   predicted    -0.6372188E-02 ( -33.69%)
   displ. norm   :     0.2245636 α      lambda       -0.1590762E-01
   maximum displ.:     0.0983239 α      in ANC's #21, #31, #12, ...

........................................................................
.............................. CYCLE   10 ..............................
........................................................................

 iter      E             dE          RMSdq      gap      omega  full diag
   1    -42.4544943 -0.424545E+02  0.872E-01    0.30       0.0  T
   2    -42.2540976  0.200397E+00  0.247E+00    2.70       1.0  T
   3    -42.4685564 -0.214459E+00  0.935E-01    1.31       1.0  T
   4    -42.4986598 -0.301034E-01  0.299E-01    0.90       1.0  T
   5    -42.4997478 -0.108802E-02  0.122E-01    0.74       1.0  T
   6    -42.5000707 -0.322930E-03  0.767E-02    0.77       1.0  T
   7    -42.5003832 -0.312444E-03  0.175E-02    0.81       1.1  T
   8    -42.5003893 -0.610453E-05  0.103E-02    0.81       1.9  T
   9    -42.5003908 -0.155084E-05  0.637E-03    0.81       3.1  T
  10    -42.5003925 -0.166767E-05  0.132E-03    0.81      15.1  T
  11    -42.5003925 -0.363130E-07  0.589E-04    0.81      34.0  T
  12    -42.5003926 -0.329842E-08  0.265E-04    0.81      75.4  T
     SCC iter.                  ...        0 min,  0.016 sec
     gradient                   ...        0 min,  0.013 sec
 * total energy  :  -121.9494983 Eh     change       -0.1196597E-01 Eh
   gradient norm :     0.2003670 Eh/α   predicted    -0.8355813E-02 ( -30.17%)
   displ. norm   :     0.2621846 α      lambda       -0.1671624E-01
   maximum displ.:     0.1165212 α      in ANC's #21, #12, #37, ...

........................................................................
.............................. CYCLE   11 ..............................
........................................................................

 iter      E             dE          RMSdq      gap      omega  full diag
   1    -42.4780795 -0.424781E+02  0.761E-01    0.25       0.0  T
   2    -42.2420448  0.236035E+00  0.264E+00    2.34       1.0  T
   3    -42.4782337 -0.236189E+00  0.100E+00    1.13       1.0  T
   4    -42.5115159 -0.332822E-01  0.295E-01    0.74       1.0  T
   5    -42.5128248 -0.130886E-02  0.782E-02    0.62       1.0  T
   6    -42.5129670 -0.142243E-03  0.468E-02    0.65       1.0  T
   7    -42.5130659 -0.988242E-04  0.115E-02    0.66       1.7  T
   8    -42.5130672 -0.137109E-05  0.662E-03    0.66       3.0  T
   9    -42.5130674 -0.193879E-06  0.306E-03    0.66       6.5  T
  10    -42.5130677 -0.294100E-06  0.801E-04    0.66      25.0  T
  11    -42.5130677  0.934106E-08  0.745E-04    0.66      26.8  T
     SCC iter.                  ...        0 min,  0.015 sec
     gradient                   ...        0 min,  0.013 sec
 * total energy  :  -121.9624469 Eh     change       -0.1294856E-01 Eh
   gradient norm :     0.1650994 Eh/α   predicted    -0.8935298E-02 ( -30.99%)
   displ. norm   :     0.3237392 α      lambda       -0.1985553E-01
   maximum displ.:     0.1484081 α      in ANC's #12, #21, #37, ...

........................................................................
.............................. CYCLE   12 ..............................
........................................................................

 iter      E             dE          RMSdq      gap      omega  full diag
   1    -42.5049607 -0.425050E+02  0.535E-01    0.36       0.0  T
   2    -42.3472643  0.157696E+00  0.217E+00    1.67       1.0  T
   3    -42.4995090 -0.152245E+00  0.825E-01    0.92       1.0  T
   4    -42.5170012 -0.174922E-01  0.368E-01    0.72       1.0  T
   5    -42.5199480 -0.294677E-02  0.563E-02    0.57       1.0  T
   6    -42.5200247 -0.767173E-04  0.349E-02    0.61       1.0  T
   7    -42.5200491 -0.244535E-04  0.170E-02    0.60       1.2  T
   8    -42.5200569 -0.772056E-05  0.404E-03    0.59       5.0  T
   9    -42.5200570 -0.171907E-06  0.218E-03    0.59       9.2  T
  10    -42.5200572 -0.118627E-06  0.122E-03    0.59      16.4  T
  11    -42.5200572 -0.411993E-07  0.393E-04    0.59      50.9  T
  12    -42.5200572 -0.356717E-08  0.123E-04    0.59     162.6  T
     SCC iter.                  ...        0 min,  0.016 sec
     gradient                   ...        0 min,  0.013 sec
 * total energy  :  -121.9773075 Eh     change       -0.1486058E-01 Eh
   gradient norm :     0.1975905 Eh/α   predicted    -0.1096843E-01 ( -26.19%)
   displ. norm   :     0.2905321 α      lambda       -0.1608340E-01
   maximum displ.:     0.1432084 α      in ANC's #12, #37, #21, ...

........................................................................
.............................. CYCLE   13 ..............................
........................................................................

 iter      E             dE          RMSdq      gap      omega  full diag
   1    -42.5168331 -0.425168E+02  0.335E-01    0.51       0.0  T
   2    -42.5031280  0.137052E-01  0.711E-01    0.84       1.0  T
   3    -42.5187284 -0.156004E-01  0.182E-01    0.54       1.0  T
   4    -42.5163858  0.234258E-02  0.323E-01    0.68       1.0  T
   5    -42.5189079 -0.252206E-02  0.989E-02    0.60       1.0  T
   6    -42.5191337 -0.225782E-03  0.359E-02    0.58       1.0  T
   7    -42.5191683 -0.346150E-04  0.134E-02    0.57       1.5  T
   8    -42.5191727 -0.436969E-05  0.371E-03    0.57       5.4  T
   9    -42.5191728 -0.189885E-06  0.167E-03    0.57      12.0  T
  10    -42.5191729 -0.700274E-07  0.718E-04    0.57      27.9  T
  11    -42.5191729 -0.131852E-07  0.321E-04    0.57      62.2  T
     SCC iter.                  ...        0 min,  0.015 sec
     gradient                   ...        0 min,  0.013 sec
 * total energy  :  -121.9889081 Eh     change       -0.1160063E-01 Eh
   gradient norm :     0.2555311 Eh/α   predicted    -0.8720786E-02 ( -24.82%)
   displ. norm   :     0.1939199 α      lambda       -0.1150032E-01
   maximum displ.:     0.0979348 α      in ANC's #12, #37, #24, ...

........................................................................
.............................. CYCLE   14 ..............................
........................................................................

 iter      E             dE          RMSdq      gap      omega  full diag
   1    -42.5143973 -0.425144E+02  0.235E-01    0.54       0.0  T
   2    -42.5144962 -0.988280E-04  0.173E-01    0.50       1.0  T
   3    -42.5142253  0.270829E-03  0.175E-01    0.59       1.0  T
   4    -42.5142962 -0.708551E-04  0.143E-01    0.47       1.0  T
   5    -42.5149623 -0.666154E-03  0.550E-02    0.55       1.0  T
   6    -42.5150383 -0.760029E-04  0.173E-02    0.54       1.2  T
   7    -42.5150443 -0.592806E-05  0.886E-03    0.54       2.3  T
   8    -42.5150463 -0.204028E-05  0.215E-03    0.53       9.3  T
   9    -42.5150464 -0.618237E-07  0.862E-04    0.53      23.2  T
  10    -42.5150464 -0.163848E-07  0.368E-04    0.53      54.4  T
     SCC iter.                  ...        0 min,  0.014 sec
     gradient                   ...        0 min,  0.013 sec
 * total energy  :  -121.9973072 Eh     change       -0.8399091E-02 Eh
   gradient norm :     0.1842833 Eh/α   predicted    -0.5967193E-02 ( -28.95%)
   displ. norm   :     0.1384785 α      lambda       -0.1158164E-01
   maximum displ.:     0.0717747 α      in ANC's #24, #12, #22, ...

........................................................................
.............................. CYCLE   15 ..............................
........................................................................

 iter      E             dE          RMSdq      gap      omega  full diag
   1    -42.5112433 -0.425112E+02  0.244E-01    0.50       0.0  T
   2    -42.5105079  0.735400E-03  0.219E-01    0.43       1.0  T
   3    -42.5077880  0.271990E-02  0.333E-01    0.63       1.0  T
   4    -42.5115139 -0.372586E-02  0.104E-01    0.46       1.0  T
   5    -42.5116946 -0.180709E-03  0.339E-02    0.50       1.0  T
   6    -42.5117272 -0.326222E-04  0.728E-03    0.49       2.7  T
   7    -42.5117275 -0.309454E-06  0.526E-03    0.49       3.8  T
   8    -42.5117281 -0.553867E-06  0.198E-03    0.49      10.1  T
   9    -42.5117281 -0.520591E-07  0.581E-04    0.49      34.4  T
  10    -42.5117281 -0.556552E-08  0.332E-04    0.49      60.3  T
     SCC iter.                  ...        0 min,  0.014 sec
     gradient                   ...        0 min,  0.013 sec
 * total energy  :  -122.0056701 Eh     change       -0.8362895E-02 Eh
   gradient norm :     0.3170151 Eh/α   predicted    -0.5902055E-02 ( -29.43%)
   displ. norm   :     0.1265015 α      lambda       -0.9643709E-02
   maximum displ.:     0.0637303 α      in ANC's #24, #21, #10, ...

........................................................................
.............................. CYCLE   16 ..............................
........................................................................

 iter      E             dE          RMSdq      gap      omega  full diag
   1    -42.5069922 -0.425070E+02  0.286E-01    0.47       0.0  T
   2    -42.5068693  0.122918E-03  0.223E-01    0.42       1.0  T
   3    -42.5044472  0.242212E-02  0.309E-01    0.59       1.0  T
   4    -42.5069615 -0.251438E-02  0.183E-01    0.40       1.0  T
   5    -42.5078207 -0.859160E-03  0.420E-02    0.47       1.0  T
   6    -42.5078747 -0.540018E-04  0.114E-02    0.46       1.8  T
   7    -42.5078790 -0.433525E-05  0.357E-03    0.46       5.6  T
   8    -42.5078791 -0.190609E-07  0.171E-03    0.46      11.7  T
   9    -42.5078791 -0.239844E-07  0.698E-04    0.46      28.7  T
  10    -42.5078791 -0.108029E-07  0.326E-04    0.46      61.4  T
     SCC iter.                  ...        0 min,  0.014 sec
     gradient                   ...        0 min,  0.013 sec
 * total energy  :  -122.0110769 Eh     change       -0.5406874E-02 Eh
   gradient norm :     0.3859802 Eh/α   predicted    -0.4899082E-02 (  -9.39%)
   displ. norm   :     0.0971123 α      lambda       -0.5911774E-02
   maximum displ.:     0.0452901 α      in ANC's #10, #24, #11, ...

........................................................................
.............................. CYCLE   17 ..............................
........................................................................

 iter      E             dE          RMSdq      gap      omega  full diag
   1    -42.5087659 -0.425088E+02  0.191E-01    0.45       0.0  T
   2    -42.5060892  0.267674E-02  0.308E-01    0.58       1.0  T
   3    -42.5076979 -0.160878E-02  0.209E-01    0.39       1.0  T
   4    -42.5089587 -0.126078E-02  0.883E-02    0.49       1.0  T
   5    -42.5091667 -0.208003E-03  0.186E-02    0.47       1.1  T
   6    -42.5091739 -0.721824E-05  0.699E-03    0.47       2.9  T
   7    -42.5091748 -0.854189E-06  0.288E-03    0.47       6.9  T
   8    -42.5091747  0.145421E-06  0.284E-03    0.47       7.0  T
   9    -42.5091749 -0.229969E-06  0.606E-04    0.47      33.0  T
  10    -42.5091749 -0.294945E-08  0.325E-04    0.47      61.6  T
     SCC iter.                  ...        0 min,  0.014 sec
     gradient                   ...        0 min,  0.013 sec
 * total energy  :  -122.0127039 Eh     change       -0.1626943E-02 Eh
   gradient norm :     0.7931639 Eh/α   predicted    -0.2983949E-02 (  83.41%)
   displ. norm   :     0.0296732 α      lambda       -0.4418198E-02
   maximum displ.:     0.0127829 α      in ANC's #8, #14, #11, ...

........................................................................
.............................. CYCLE   18 ..............................
........................................................................

 iter      E             dE          RMSdq      gap      omega  full diag
   1    -42.5119014 -0.425119E+02  0.627E-02    0.48       0.0  T
   2    -42.5116541  0.247220E-03  0.103E-01    0.52       1.0  T
   3    -42.5118351 -0.180970E-03  0.678E-02    0.46       1.0  T
   4    -42.5119584 -0.123317E-03  0.336E-02    0.50       1.0  T
   5    -42.5119832 -0.247444E-04  0.111E-02    0.49       1.8  T
   6    -42.5119868 -0.366182E-05  0.249E-03    0.49       8.0  T
   7    -42.5119869 -0.110276E-06  0.104E-03    0.49      19.3  T
   8    -42.5119869 -0.644788E-08  0.569E-04    0.49      35.2  T
   9    -42.5119870 -0.596142E-08  0.180E-04    0.49     110.9  T
     SCC iter.                  ...        0 min,  0.012 sec
     gradient                   ...        0 min,  0.013 sec
 * total energy  :  -122.0156723 Eh     change       -0.2968454E-02 Eh
   gradient norm :     0.1013814 Eh/α   predicted    -0.2211818E-02 ( -25.49%)
   displ. norm   :     0.0665798 α      lambda       -0.3378936E-02
   maximum displ.:     0.0310429 α      in ANC's #11, #10, #8, ...

........................................................................
.............................. CYCLE   19 ..............................
........................................................................

 iter      E             dE          RMSdq      gap      omega  full diag
   1    -42.5170814 -0.425171E+02  0.156E-01    0.50       0.0  T
   2    -42.5142934  0.278795E-02  0.322E-01    0.63       1.0  T
   3    -42.5168640 -0.257058E-02  0.160E-01    0.46       1.0  T
   4    -42.5176302 -0.766212E-03  0.710E-02    0.54       1.0  T
   5    -42.5177597 -0.129461E-03  0.248E-02    0.52       1.0  T
   6    -42.5177684 -0.871406E-05  0.818E-03    0.52       2.4  T
   7    -42.5177703 -0.194861E-05  0.293E-03    0.52       6.8  T
   8    -42.5177705 -0.122894E-06  0.142E-03    0.52      14.1  T
   9    -42.5177705 -0.320736E-07  0.618E-04    0.52      32.4  T
  10    -42.5177705 -0.115516E-07  0.168E-04    0.52     119.1  T
     SCC iter.                  ...        0 min,  0.014 sec
     gradient                   ...        0 min,  0.013 sec
 * total energy  :  -122.0181513 Eh     change       -0.2478961E-02 Eh
   gradient norm :     0.2127460 Eh/α   predicted    -0.1698402E-02 ( -31.49%)
   displ. norm   :     0.0871711 α      lambda       -0.2950364E-02
   maximum displ.:     0.0393386 α      in ANC's #11, #10, #54, ...

........................................................................
.............................. CYCLE   20 ..............................
........................................................................

 iter      E             dE          RMSdq      gap      omega  full diag
   1    -42.5235917 -0.425236E+02  0.196E-01    0.53       0.0  T
   2    -42.5209619  0.262978E-02  0.339E-01    0.64       1.0  T
   3    -42.5228992 -0.193728E-02  0.219E-01    0.46       1.0  T
   4    -42.5244608 -0.156159E-02  0.712E-02    0.57       1.0  T
   5    -42.5245792 -0.118431E-03  0.311E-02    0.54       1.0  T
   6    -42.5245972 -0.180336E-04  0.991E-03    0.55       2.0  T
   7    -42.5246002 -0.294456E-05  0.313E-03    0.54       6.4  T
   8    -42.5246003 -0.995157E-07  0.161E-03    0.54      12.4  T
   9    -42.5246003 -0.344020E-07  0.849E-04    0.54      23.5  T
  10    -42.5246003 -0.218066E-07  0.272E-04    0.54      73.4  T
     SCC iter.                  ...        0 min,  0.014 sec
     gradient                   ...        0 min,  0.013 sec
 * total energy  :  -122.0202214 Eh     change       -0.2070125E-02 Eh
   gradient norm :     0.2471834 Eh/α   predicted    -0.1486527E-02 ( -28.19%)
   displ. norm   :     0.0837940 α      lambda       -0.2073041E-02
   maximum displ.:     0.0348574 α      in ANC's #11, #12, #54, ...
 * RMSD in coord.:     0.7097096 α      energy gain  -0.6872303E+02 Eh

generating ANC from model Hessian ...
Using Lindh-Hessian (1995)
 Shifting diagonal of input Hessian by    3.3255214169187011     
 Lowest  eigenvalues of input Hessian
    0.010000    0.000000    0.000000    0.000000    0.000000    0.000000
    0.000000    3.326249    3.327627    3.329164    3.329828    3.330193
    3.333478    3.334819    3.335049    3.335454    3.338677    3.343224
 Highest eigenvalues
    5.432888    5.460811    5.584650    5.665411  124.700765  151.260585


........................................................................
.............................. CYCLE   21 ..............................
........................................................................

 iter      E             dE          RMSdq      gap      omega  full diag
   1    -42.5284479 -0.425284E+02  0.167E-01    0.55       0.0  T
   2    -42.5273213  0.112657E-02  0.242E-01    0.61       1.0  T
   3    -42.5279139 -0.592562E-03  0.182E-01    0.48       1.0  T
   4    -42.5289672 -0.105336E-02  0.561E-02    0.57       1.0  T
   5    -42.5290104 -0.432022E-04  0.342E-02    0.54       1.0  T
   6    -42.5290455 -0.350602E-04  0.709E-03    0.55       2.8  T
   7    -42.5290470 -0.147650E-05  0.227E-03    0.55       8.8  T
   8    -42.5290470 -0.574414E-07  0.105E-03    0.55      19.0  T
   9    -42.5290470 -0.126551E-07  0.641E-04    0.55      31.2  T
  10    -42.5290470 -0.982246E-08  0.223E-04    0.55      89.7  T
     SCC iter.                  ...        0 min,  0.014 sec
     gradient                   ...        0 min,  0.013 sec
 * total energy  :  -122.0217079 Eh     change       -0.1486515E-02 Eh
   gradient norm :     0.0990042 Eh/α   predicted     0.0000000E+00 (-100.00%)
   displ. norm   :     0.9390101 α      lambda       -0.7970845E-01
   maximum displ.:     0.9389322 α      in ANC's #1, #59, #48, ...

........................................................................
.............................. CYCLE   22 ..............................
........................................................................

 iter      E             dE          RMSdq      gap      omega  full diag
   1    -42.5667603 -0.425668E+02  0.162E+00    0.49       0.0  T
   2    -42.5254796  0.412807E-01  0.156E+00    0.99       1.0  T
   3    -42.4481018  0.773778E-01  0.214E+00    0.01       1.0  T
   4    -42.6029962 -0.154894E+00  0.375E-01    0.53       1.0  T
   5    -42.6025290  0.467217E-03  0.208E-01    0.47       1.0  T
   6    -42.6031292 -0.600174E-03  0.883E-02    0.50       1.0  T
   7    -42.6033341 -0.204937E-03  0.241E-02    0.51       1.0  T
   8    -42.6033465 -0.124270E-04  0.105E-02    0.51       1.9  T
   9    -42.6033483 -0.172301E-05  0.413E-03    0.51       4.8  T
  10    -42.6033484 -0.153191E-06  0.188E-03    0.51      10.7  T
  11    -42.6033485 -0.522235E-07  0.617E-04    0.51      32.4  T
  12    -42.6033485 -0.307660E-08  0.199E-04    0.51     100.3  T
     SCC iter.                  ...        0 min,  0.016 sec
     gradient                   ...        0 min,  0.013 sec
 * total energy  :   -97.3460615 Eh     change        0.2467565E+02 Eh
   gradient norm :    30.0002839 Eh/α   predicted    -0.7499537E-01 (-100.30%)
   displ. norm   :     0.5953728 α      lambda       -0.1785085E+02
   maximum displ.:     0.5904958 α      in ANC's #1, #62, #46, ...

........................................................................
.............................. CYCLE   23 ..............................
........................................................................

 iter      E             dE          RMSdq      gap      omega  full diag
   1    -42.2480896 -0.422481E+02  0.350E+00    0.41       0.0  T
   2    -42.4144343 -0.166345E+00  0.241E+00    0.74       1.0  T
   3    -42.5391892 -0.124755E+00  0.118E+00    0.48       1.0  T
   4    -42.5291547  0.100345E-01  0.105E+00    0.92       1.0  T
   5    -42.5587403 -0.295856E-01  0.643E-01    0.42       1.0  T
   6    -42.5649541 -0.621380E-02  0.323E-01    0.47       1.0  T
   7    -42.5662929 -0.133882E-02  0.109E-01    0.53       1.0  T
   8    -42.5664624 -0.169441E-03  0.635E-02    0.53       1.0  T
   9    -42.5665371 -0.747182E-04  0.334E-02    0.53       1.0  T
  10    -42.5665540 -0.168717E-04  0.162E-02    0.53       1.2  T
  11    -42.5665588 -0.481108E-05  0.444E-03    0.53       4.5  T
  12    -42.5665589 -0.756040E-07  0.405E-03    0.53       4.9  T
  13    -42.5665592 -0.339644E-06  0.114E-03    0.53      17.6  T
  14    -42.5665592 -0.142566E-07  0.687E-04    0.53      29.1  T
  15    -42.5665592 -0.922584E-08  0.100E-04    0.53     199.6  T
     SCC iter.                  ...        0 min,  0.020 sec
     gradient                   ...        0 min,  0.013 sec
 * total energy  :  -115.4700236 Eh     change       -0.1812396E+02 Eh
   gradient norm :    28.5611282 Eh/α   predicted    -0.1208922E+02 ( -33.30%)
   displ. norm   :     0.9614137 α      lambda       -0.2741564E+02
   maximum displ.:     0.9564714 α      in ANC's #1, #62, #60, ...

........................................................................
.............................. CYCLE   24 ..............................
........................................................................

 iter      E             dE          RMSdq      gap      omega  full diag
   1    -41.8105989 -0.418106E+02  0.440E+00    0.17       0.0  T
   2    -40.5634106  0.124719E+01  0.595E+00    0.92       1.0  T
   3    -42.2705970 -0.170719E+01  0.167E+00    1.13       1.0  T
   4    -42.1938519  0.767452E-01  0.190E+00    0.05       1.0  T
   5    -42.3153991 -0.121547E+00  0.108E+00    0.84       1.0  T
   6    -42.3354959 -0.200968E-01  0.632E-01    0.67       1.0  T
   7    -42.3369490 -0.145310E-02  0.355E-01    0.49       1.0  T
   8    -42.3386178 -0.166874E-02  0.319E-01    0.54       1.0  T
   9    -42.3398080 -0.119024E-02  0.140E-01    0.57       1.0  T
  10    -42.3400077 -0.199662E-03  0.379E-02    0.59       1.0  T
  11    -42.3400178 -0.100734E-04  0.493E-02    0.59       1.0  T
  12    -42.3400469 -0.291434E-04  0.237E-02    0.59       1.0  T
  13    -42.3400536 -0.670904E-05  0.563E-03    0.59       3.6  T
  14    -42.3400541 -0.523305E-06  0.910E-04    0.58      22.0  T
  15    -42.3400541 -0.332398E-08  0.234E-04    0.58      85.6  T
     SCC iter.                  ...        0 min,  0.020 sec
     gradient                   ...        0 min,  0.013 sec
 * total energy  :  -121.8546355 Eh     change       -0.6384612E+01 Eh
   gradient norm :     2.7270804 Eh/α   predicted    -0.2638993E+02 ( 313.34%)
   displ. norm   :     0.0899139 α      lambda       -0.2316931E+00
   maximum displ.:     0.0790420 α      in ANC's #1, #62, #60, ...

........................................................................
.............................. CYCLE   25 ..............................
........................................................................

 iter      E             dE          RMSdq      gap      omega  full diag
   1    -42.3634635 -0.423635E+02  0.307E-01    0.55       0.0  T
   2    -42.3542125  0.925100E-02  0.651E-01    0.68       1.0  T
   3    -42.3648689 -0.106564E-01  0.163E-01    0.51       1.0  T
   4    -42.3637447  0.112419E-02  0.213E-01    0.65       1.0  T
   5    -42.3652121 -0.146736E-02  0.104E-01    0.54       1.0  T
   6    -42.3655392 -0.327109E-03  0.101E-02    0.57       2.0  T
   7    -42.3655414 -0.217565E-05  0.443E-03    0.57       4.5  T
   8    -42.3655416 -0.254582E-06  0.239E-03    0.57       8.4  T
   9    -42.3655417 -0.793390E-07  0.129E-03    0.57      15.6  T
  10    -42.3655417 -0.175323E-07  0.707E-04    0.57      28.3  T
  11    -42.3655417 -0.656167E-08  0.269E-04    0.57      74.3  T
     SCC iter.                  ...        0 min,  0.015 sec
     gradient                   ...        0 min,  0.013 sec
 * total energy  :  -121.0547870 Eh     change        0.7998486E+00 Eh
   gradient norm :    26.2699509 Eh/α   predicted    -0.1167911E+00 (-114.60%)
   displ. norm   :     0.0749817 α      lambda       -0.1938902E+01
   maximum displ.:     0.0738525 α      in ANC's #1, #60, #62, ...

........................................................................
.............................. CYCLE   26 ..............................
........................................................................

 iter      E             dE          RMSdq      gap      omega  full diag
   1    -42.3454113 -0.423454E+02  0.283E-01    0.62       0.0  T
   2    -42.3351956  0.102157E-01  0.633E-01    0.41       1.0  T
   3    -42.3455075 -0.103119E-01  0.210E-01    0.66       1.0  T
   4    -42.3459628 -0.455254E-03  0.174E-01    0.52       1.0  T
   5    -42.3469821 -0.101938E-02  0.772E-02    0.59       1.0  T
   6    -42.3471236 -0.141502E-03  0.767E-03    0.58       2.6  T
   7    -42.3471252 -0.154641E-05  0.358E-03    0.58       5.6  T
   8    -42.3471254 -0.210192E-06  0.180E-03    0.58      11.1  T
   9    -42.3471254 -0.298604E-07  0.749E-04    0.58      26.7  T
  10    -42.3471254 -0.588036E-08  0.313E-04    0.58      63.9  T
     SCC iter.                  ...        0 min,  0.015 sec
     gradient                   ...        0 min,  0.037 sec
 * total energy  :  -121.8734214 Eh     change       -0.8186345E+00 Eh
   gradient norm :     0.6104140 Eh/α   predicted    -0.9748793E+00 (  19.09%)
   displ. norm   :     0.0266457 α      lambda       -0.3783109E-02
   maximum displ.:     0.0228173 α      in ANC's #62, #47, #18, ...

........................................................................
.............................. CYCLE   27 ..............................
........................................................................

 iter      E             dE          RMSdq      gap      omega  full diag
   1    -42.3515862 -0.423516E+02  0.129E-01    0.59       0.0  T
   2    -42.3495105  0.207568E-02  0.281E-01    0.54       1.0  T
   3    -42.3518603 -0.234979E-02  0.774E-02    0.60       1.0  T
   4    -42.3520414 -0.181124E-03  0.381E-02    0.56       1.0  T
   5    -42.3520650 -0.235456E-04  0.262E-02    0.58       1.0  T
   6    -42.3520776 -0.126950E-04  0.538E-03    0.58       3.7  T
   7    -42.3520782 -0.560146E-06  0.238E-03    0.58       8.4  T
   8    -42.3520783 -0.708406E-07  0.118E-03    0.58      17.0  T
   9    -42.3520783 -0.238458E-07  0.506E-04    0.58      39.5  T
  10    -42.3520783 -0.248111E-08  0.284E-04    0.58      70.3  T
     SCC iter.                  ...        0 min,  0.027 sec
     gradient                   ...        0 min,  0.024 sec
 * total energy  :  -121.8772732 Eh     change       -0.3851736E-02 Eh
   gradient norm :     0.2174253 Eh/α   predicted    -0.2150795E-02 ( -44.16%)
   displ. norm   :     0.1600495 α      lambda       -0.1934692E-01
   maximum displ.:     0.1385968 α      in ANC's #62, #47, #18, ...

........................................................................
.............................. CYCLE   28 ..............................
........................................................................

 iter      E             dE          RMSdq      gap      omega  full diag
   1    -42.3665977 -0.423666E+02  0.663E-01    0.63       0.0  T
   2    -42.3212692  0.453285E-01  0.137E+00    0.37       1.0  T
   3    -42.3720407 -0.507715E-01  0.457E-01    0.73       1.0  T
   4    -42.3787155 -0.667478E-02  0.230E-01    0.49       1.0  T
   5    -42.3796903 -0.974800E-03  0.124E-01    0.58       1.0  T
   6    -42.3797764 -0.861553E-04  0.620E-02    0.55       1.0  T
   7    -42.3798655 -0.891118E-04  0.171E-02    0.55       1.2  T
   8    -42.3798702 -0.470054E-05  0.714E-03    0.55       2.8  T
   9    -42.3798710 -0.746720E-06  0.261E-03    0.56       7.7  T
  10    -42.3798711 -0.789715E-07  0.100E-03    0.56      20.0  T
  11    -42.3798711 -0.237137E-09  0.598E-04    0.56      33.5  T
  12    -42.3798711 -0.470095E-08  0.367E-04    0.56      54.5  T
     SCC iter.                  ...        0 min,  0.055 sec
     gradient                   ...        0 min,  0.026 sec
 * total energy  :  -121.8892555 Eh     change       -0.1198229E-01 Eh
   gradient norm :     1.0912890 Eh/α   predicted    -0.1020556E-01 ( -14.83%)
   displ. norm   :     0.0697282 α      lambda       -0.4907442E-02
   maximum displ.:     0.0590339 α      in ANC's #62, #18, #47, ...

........................................................................
.............................. CYCLE   29 ..............................
........................................................................

 iter      E             dE          RMSdq      gap      omega  full diag
   1    -42.3869599 -0.423870E+02  0.343E-01    0.58       0.0  T
   2    -42.3778858  0.907419E-02  0.646E-01    0.46       1.0  T
   3    -42.3888281 -0.109423E-01  0.218E-01    0.63       1.0  T
   4    -42.3903132 -0.148515E-02  0.107E-01    0.51       1.0  T
   5    -42.3905683 -0.255092E-03  0.561E-02    0.56       1.0  T
   6    -42.3905856 -0.172371E-04  0.233E-02    0.55       1.0  T
   7    -42.3905970 -0.114058E-04  0.687E-03    0.55       2.9  T
   8    -42.3905976 -0.684062E-06  0.292E-03    0.55       6.9  T
   9    -42.3905978 -0.135592E-06  0.109E-03    0.55      18.3  T
  10    -42.3905978 -0.129569E-07  0.572E-04    0.55      35.0  T
  11    -42.3905978 -0.485092E-08  0.267E-04    0.55      75.0  T
     SCC iter.                  ...        0 min,  0.028 sec
     gradient                   ...        0 min,  0.026 sec
 * total energy  :  -121.8929537 Eh     change       -0.3698203E-02 Eh
   gradient norm :     0.8667666 Eh/α   predicted    -0.2470739E-02 ( -33.19%)
   displ. norm   :     0.0935815 α      lambda       -0.7332582E-02
   maximum displ.:     0.0687849 α      in ANC's #62, #60, #18, ...

........................................................................
.............................. CYCLE   30 ..............................
........................................................................

 iter      E             dE          RMSdq      gap      omega  full diag
   1    -42.3969645 -0.423970E+02  0.469E-01    0.60       0.0  T
   2    -42.3859221  0.110425E-01  0.764E-01    0.44       1.0  T
   3    -42.4000380 -0.141159E-01  0.293E-01    0.66       1.0  T
   4    -42.4026922 -0.265419E-02  0.154E-01    0.49       1.0  T
   5    -42.4033355 -0.643303E-03  0.655E-02    0.56       1.0  T
   6    -42.4033474 -0.118974E-04  0.361E-02    0.55       1.0  T
   7    -42.4033746 -0.271992E-04  0.989E-03    0.55       2.0  T
   8    -42.4033761 -0.152306E-05  0.435E-03    0.55       4.6  T
   9    -42.4033764 -0.292236E-06  0.178E-03    0.55      11.2  T
  10    -42.4033765 -0.721718E-07  0.682E-04    0.55      29.3  T
  11    -42.4033765 -0.571892E-08  0.300E-04    0.55      66.6  T
     SCC iter.                  ...        0 min,  0.028 sec
     gradient                   ...        0 min,  0.026 sec
 * total energy  :  -121.8940070 Eh     change       -0.1053384E-02 Eh
   gradient norm :     0.9262952 Eh/α   predicted    -0.3712767E-02 ( 252.46%)
   displ. norm   :     0.0648626 α      lambda       -0.6151033E-02
   maximum displ.:     0.0525273 α      in ANC's #62, #60, #18, ...

........................................................................
.............................. CYCLE   31 ..............................
........................................................................

 iter      E             dE          RMSdq      gap      omega  full diag
   1    -42.3880484 -0.423880E+02  0.439E-01    0.52       0.0  T
   2    -42.3805216  0.752678E-02  0.673E-01    0.64       1.0  T
   3    -42.3920281 -0.115065E-01  0.248E-01    0.47       1.0  T
   4    -42.3934558 -0.142766E-02  0.136E-01    0.60       1.0  T
   5    -42.3939065 -0.450697E-03  0.733E-02    0.54       1.0  T
   6    -42.3939653 -0.588135E-04  0.196E-02    0.54       1.0  T
   7    -42.3939797 -0.144338E-04  0.483E-03    0.55       4.1  T
   8    -42.3939803 -0.512550E-06  0.259E-03    0.55       7.7  T
   9    -42.3939803 -0.221929E-08  0.160E-03    0.55      12.5  T
  10    -42.3939803 -0.603283E-07  0.758E-04    0.55      26.4  T
  11    -42.3939803 -0.771562E-08  0.341E-04    0.55      58.6  T
     SCC iter.                  ...        0 min,  0.028 sec
     gradient                   ...        0 min,  0.026 sec
 * total energy  :  -121.8958223 Eh     change       -0.1815266E-02 Eh
   gradient norm :     0.1055542 Eh/α   predicted    -0.3083430E-02 (  69.86%)
   displ. norm   :     0.0154715 α      lambda       -0.7696711E-03
   maximum displ.:     0.0082748 α      in ANC's #60, #18, #62, ...

........................................................................
.............................. CYCLE   32 ..............................
........................................................................

 iter      E             dE          RMSdq      gap      omega  full diag
   1    -42.3955756 -0.423956E+02  0.694E-02    0.56       0.0  T
   2    -42.3953380  0.237527E-03  0.107E-01    0.53       1.0  T
   3    -42.3956297 -0.291629E-03  0.439E-02    0.57       1.0  T
   4    -42.3956884 -0.587124E-04  0.213E-02    0.54       1.0  T
   5    -42.3957008 -0.123983E-04  0.102E-02    0.55       2.0  T
   6    -42.3957022 -0.140155E-05  0.282E-03    0.55       7.1  T
   7    -42.3957024 -0.206998E-06  0.115E-03    0.55      17.3  T
   8    -42.3957024 -0.231787E-07  0.403E-04    0.55      49.6  T
   9    -42.3957024 -0.102557E-08  0.196E-04    0.55     102.1  T
     SCC iter.                  ...        0 min,  0.025 sec
     gradient                   ...        0 min,  0.026 sec
 * total energy  :  -121.8965171 Eh     change       -0.6947712E-03 Eh
   gradient norm :     0.1531186 Eh/α   predicted    -0.3928462E-03 ( -43.46%)
   displ. norm   :     0.0773727 α      lambda       -0.6522492E-02
   maximum displ.:     0.0403173 α      in ANC's #60, #18, #46, ...

........................................................................
.............................. CYCLE   33 ..............................
........................................................................

 iter      E             dE          RMSdq      gap      omega  full diag
   1    -42.4019478 -0.424019E+02  0.304E-01    0.58       0.0  T
   2    -42.3974838  0.446393E-02  0.458E-01    0.48       1.0  T
   3    -42.4026171 -0.513327E-02  0.206E-01    0.63       1.0  T
   4    -42.4038816 -0.126450E-02  0.110E-01    0.51       1.0  T
   5    -42.4042213 -0.339657E-03  0.429E-02    0.56       1.0  T
   6    -42.4042439 -0.226405E-04  0.147E-02    0.55       1.4  T
   7    -42.4042490 -0.509682E-05  0.513E-03    0.55       3.9  T
   8    -42.4042494 -0.363370E-06  0.222E-03    0.55       9.0  T
   9    -42.4042494 -0.346499E-07  0.130E-03    0.55      15.4  T
  10    -42.4042495 -0.614525E-07  0.367E-04    0.55      54.5  T
  11    -42.4042495 -0.177008E-08  0.123E-04    0.55     162.1  T
     SCC iter.                  ...        0 min,  0.028 sec
     gradient                   ...        0 min,  0.026 sec
 * total energy  :  -121.8953248 Eh     change        0.1192243E-02 Eh
   gradient norm :     1.5497637 Eh/α   predicted    -0.1652050E-02 (-238.57%)
   displ. norm   :     0.0405503 α      lambda       -0.2201023E-01
   maximum displ.:     0.0264471 α      in ANC's #60, #18, #62, ...

........................................................................
.............................. CYCLE   34 ..............................
........................................................................

 iter      E             dE          RMSdq      gap      omega  full diag
   1    -42.3984267 -0.423984E+02  0.204E-01    0.54       0.0  T
   2    -42.3969093  0.151731E-02  0.291E-01    0.59       1.0  T
   3    -42.3991133 -0.220397E-02  0.107E-01    0.51       1.0  T
   4    -42.3993966 -0.283307E-03  0.616E-02    0.57       1.0  T
   5    -42.3995125 -0.115867E-03  0.293E-02    0.54       1.0  T
   6    -42.3995235 -0.110008E-04  0.840E-03    0.55       2.4  T
   7    -42.3995261 -0.265576E-05  0.234E-03    0.55       8.6  T
   8    -42.3995262 -0.835344E-07  0.133E-03    0.55      15.1  T
   9    -42.3995262 -0.147713E-07  0.738E-04    0.55      27.1  T
  10    -42.3995263 -0.158104E-07  0.192E-04    0.55     104.2  T
     SCC iter.                  ...        0 min,  0.027 sec
     gradient                   ...        0 min,  0.026 sec
 * total energy  :  -121.8979877 Eh     change       -0.2662857E-02 Eh
   gradient norm :     0.3186652 Eh/α   predicted    -0.3795957E-02 (  42.55%)
   displ. norm   :     0.0200792 α      lambda       -0.3318892E-02
   maximum displ.:     0.0112173 α      in ANC's #18, #46, #60, ...

........................................................................
.............................. CYCLE   35 ..............................
........................................................................

 iter      E             dE          RMSdq      gap      omega  full diag
   1    -42.4008225 -0.424008E+02  0.372E-02    0.55       0.0  T
   2    -42.4007778  0.447202E-04  0.414E-02    0.54       1.0  T
   3    -42.4007764  0.138915E-05  0.422E-02    0.56       1.0  T
   4    -42.4008350 -0.585951E-04  0.177E-02    0.54       1.1  T
   5    -42.4008409 -0.588049E-05  0.741E-03    0.55       2.7  T
   6    -42.4008419 -0.963770E-06  0.153E-03    0.55      13.1  T
   7    -42.4008419 -0.239978E-07  0.103E-03    0.55      19.4  T
   8    -42.4008419 -0.271386E-07  0.365E-04    0.55      54.8  T
   9    -42.4008419 -0.236237E-08  0.805E-05    0.55     248.5  T
     SCC iter.                  ...        0 min,  0.026 sec
     gradient                   ...        0 min,  0.026 sec
 * total energy  :  -121.8988218 Eh     change       -0.8341004E-03 Eh
   gradient norm :     0.3560660 Eh/α   predicted    -0.4326220E-03 ( -48.13%)
   displ. norm   :     0.2425738 α      lambda       -0.5014055E-01
   maximum displ.:     0.1385545 α      in ANC's #18, #46, #60, ...

........................................................................
.............................. CYCLE   36 ..............................
........................................................................

 iter      E             dE          RMSdq      gap      omega  full diag
   1    -42.4147672 -0.424148E+02  0.445E-01    0.57       0.0  T
   2    -42.4066447  0.812250E-02  0.534E-01    0.39       1.0  T
   3    -42.4092573 -0.261253E-02  0.476E-01    0.70       1.0  T
   4    -42.4163455 -0.708825E-02  0.230E-01    0.48       1.0  T
   5    -42.4174682 -0.112266E-02  0.904E-02    0.55       1.0  T
   6    -42.4176165 -0.148341E-03  0.161E-02    0.53       1.2  T
   7    -42.4176197 -0.318565E-05  0.902E-03    0.53       2.2  T
   8    -42.4176212 -0.148016E-05  0.333E-03    0.53       6.0  T
   9    -42.4176214 -0.247772E-06  0.134E-03    0.53      14.9  T
  10    -42.4176215 -0.363182E-07  0.584E-04    0.53      34.2  T
  11    -42.4176215  0.686278E-09  0.427E-04    0.53      46.9  T
     SCC iter.                  ...        0 min,  0.028 sec
     gradient                   ...        0 min,  0.026 sec
 * total energy  :  -121.8924448 Eh     change        0.6377026E-02 Eh
   gradient norm :     2.7749787 Eh/α   predicted    -0.6443985E-02 (-201.05%)
   displ. norm   :     0.0657746 α      lambda       -0.1355214E+00
   maximum displ.:     0.0406391 α      in ANC's #60, #18, #46, ...

........................................................................
.............................. CYCLE   37 ..............................
........................................................................

 iter      E             dE          RMSdq      gap      omega  full diag
   1    -42.4111457 -0.424111E+02  0.201E-01    0.52       0.0  T
   2    -42.4099359  0.120984E-02  0.243E-01    0.58       1.0  T
   3    -42.4112624 -0.132649E-02  0.138E-01    0.48       1.0  T
   4    -42.4117698 -0.507378E-03  0.793E-02    0.56       1.0  T
   5    -42.4119418 -0.172009E-03  0.338E-02    0.53       1.0  T
   6    -42.4119558 -0.140515E-04  0.940E-03    0.53       2.1  T
   7    -42.4119591 -0.326810E-05  0.294E-03    0.53       6.8  T
   8    -42.4119592 -0.855310E-07  0.149E-03    0.53      13.4  T
   9    -42.4119592 -0.485971E-07  0.333E-04    0.53      60.1  T
  10    -42.4119592 -0.130515E-08  0.139E-04    0.53     144.4  T
     SCC iter.                  ...        0 min,  0.027 sec
     gradient                   ...        0 min,  0.026 sec
 * total energy  :  -121.9046269 Eh     change       -0.1218209E-01 Eh
   gradient norm :     0.1485381 Eh/α   predicted    -0.1808212E-01 (  48.43%)
   displ. norm   :     0.0402332 α      lambda       -0.7017982E-02
   maximum displ.:     0.0249138 α      in ANC's #18, #46, #5, ...

........................................................................
.............................. CYCLE   38 ..............................
........................................................................

 iter      E             dE          RMSdq      gap      omega  full diag
   1    -42.4141645 -0.424142E+02  0.478E-02    0.53       0.0  T
   2    -42.4141664 -0.189995E-05  0.274E-02    0.53       1.0  T
   3    -42.4141633  0.306697E-05  0.234E-02    0.53       1.0  T
   4    -42.4141655 -0.219358E-05  0.160E-02    0.53       1.3  T
   5    -42.4141663 -0.777576E-06  0.124E-02    0.52       1.6  T
   6    -42.4141723 -0.603942E-05  0.313E-03    0.53       6.4  T
   7    -42.4141726 -0.281867E-06  0.123E-03    0.53      16.2  T
   8    -42.4141726 -0.248449E-07  0.314E-04    0.53      63.7  T
   9    -42.4141726 -0.161238E-08  0.150E-04    0.53     133.0  T
     SCC iter.                  ...        0 min,  0.025 sec
     gradient                   ...        0 min,  0.026 sec
 * total energy  :  -121.9061144 Eh     change       -0.1487520E-02 Eh
   gradient norm :     0.2138506 Eh/α   predicted    -0.7691820E-03 ( -48.29%)
   displ. norm   :     0.3512805 α      lambda       -0.8060789E-01
   maximum displ.:     0.2186425 α      in ANC's #18, #46, #5, ...

........................................................................
.............................. CYCLE   39 ..............................
........................................................................

 iter      E             dE          RMSdq      gap      omega  full diag
   1    -42.4331758 -0.424332E+02  0.443E-01    0.49       0.0  T
   2    -42.4316467  0.152905E-02  0.315E-01    0.38       1.0  T
   3    -42.4256878  0.595897E-02  0.493E-01    0.65       1.0  T
   4    -42.4322635 -0.657569E-02  0.253E-01    0.40       1.0  T
   5    -42.4339463 -0.168280E-02  0.993E-02    0.48       1.0  T
   6    -42.4341725 -0.226253E-03  0.286E-02    0.47       1.0  T
   7    -42.4341947 -0.221678E-04  0.130E-02    0.47       1.5  T
   8    -42.4341983 -0.361438E-05  0.314E-03    0.47       6.4  T
   9    -42.4341985 -0.157366E-06  0.128E-03    0.47      15.6  T
  10    -42.4341985 -0.245476E-07  0.692E-04    0.47      28.9  T
  11    -42.4341985 -0.234041E-08  0.383E-04    0.47      52.2  T
     SCC iter.                  ...        0 min,  0.028 sec
     gradient                   ...        0 min,  0.026 sec
 * total energy  :  -121.8960582 Eh     change        0.1005615E-01 Eh
   gradient norm :     3.3134147 Eh/α   predicted    -0.1132411E-01 (-212.61%)
   displ. norm   :     0.0665712 α      lambda       -0.1459974E+00
   maximum displ.:     0.0366629 α      in ANC's #60, #18, #46, ...

........................................................................
.............................. CYCLE   40 ..............................
........................................................................

 iter      E             dE          RMSdq      gap      omega  full diag
   1    -42.4271623 -0.424272E+02  0.155E-01    0.47       0.0  T
   2    -42.4265821  0.580194E-03  0.172E-01    0.51       1.0  T
   3    -42.4272378 -0.655664E-03  0.996E-02    0.45       1.0  T
   4    -42.4273497 -0.111926E-03  0.800E-02    0.51       1.0  T
   5    -42.4275498 -0.200051E-03  0.355E-02    0.47       1.0  T
   6    -42.4275708 -0.210454E-04  0.898E-03    0.48       2.2  T
   7    -42.4275734 -0.257204E-05  0.334E-03    0.48       6.0  T
   8    -42.4275736 -0.246179E-06  0.149E-03    0.48      13.4  T
   9    -42.4275737 -0.431095E-07  0.445E-04    0.48      44.9  T
  10    -42.4275737 -0.417551E-08  0.131E-04    0.48     152.6  T
     SCC iter.                  ...        0 min,  0.027 sec
     gradient                   ...        0 min,  0.026 sec
 * total energy  :  -121.9140521 Eh     change       -0.1799389E-01 Eh
   gradient norm :     0.3096326 Eh/α   predicted    -0.2355847E-01 (  30.92%)
   displ. norm   :     0.0480336 α      lambda       -0.7880077E-02
   maximum displ.:     0.0301754 α      in ANC's #18, #5, #46, ...

........................................................................
.............................. CYCLE   41 ..............................
........................................................................

 iter      E             dE          RMSdq      gap      omega  full diag
   1    -42.4305954 -0.424306E+02  0.607E-02    0.47       0.0  T
   2    -42.4305944  0.973639E-06  0.443E-02    0.47       1.0  T
   3    -42.4306124 -0.180175E-04  0.293E-02    0.48       1.0  T
   4    -42.4305945  0.179182E-04  0.269E-02    0.46       1.0  T
   5    -42.4305989 -0.438785E-05  0.277E-02    0.48       1.0  T
   6    -42.4306265 -0.276644E-04  0.364E-03    0.47       5.5  T
   7    -42.4306269 -0.334061E-06  0.140E-03    0.47      14.3  T
   8    -42.4306269 -0.342556E-07  0.685E-04    0.47      29.2  T
   9    -42.4306269 -0.681891E-08  0.228E-04    0.47      87.6  T
     SCC iter.                  ...        0 min,  0.025 sec
     gradient                   ...        0 min,  0.026 sec
 * total energy  :  -121.9159083 Eh     change       -0.1856151E-02 Eh
   gradient norm :     0.3578598 Eh/α   predicted    -0.9961116E-03 ( -46.33%)
   displ. norm   :     0.2981578 α      lambda       -0.5749184E-01
   maximum displ.:     0.1899507 α      in ANC's #18, #5, #46, ...

........................................................................
.............................. CYCLE   42 ..............................
........................................................................

 iter      E             dE          RMSdq      gap      omega  full diag
   1    -42.4454376 -0.424454E+02  0.351E-01    0.45       0.0  T
   2    -42.4446148  0.822751E-03  0.280E-01    0.37       1.0  T
   3    -42.4430622  0.155260E-02  0.328E-01    0.53       1.0  T
   4    -42.4435525 -0.490330E-03  0.228E-01    0.34       1.0  T
   5    -42.4457435 -0.219094E-02  0.102E-01    0.46       1.0  T
   6    -42.4461258 -0.382301E-03  0.171E-02    0.43       1.2  T
   7    -42.4461304 -0.461272E-05  0.935E-03    0.43       2.1  T
   8    -42.4461325 -0.206276E-05  0.406E-03    0.43       4.9  T
   9    -42.4461327 -0.261405E-06  0.113E-03    0.43      17.6  T
  10    -42.4461327 -0.738604E-08  0.603E-04    0.43      33.2  T
  11    -42.4461327 -0.515690E-08  0.271E-04    0.43      73.9  T
     SCC iter.                  ...        0 min,  0.028 sec
     gradient                   ...        0 min,  0.026 sec
 * total energy  :  -121.9217035 Eh     change       -0.5795207E-02 Eh
   gradient norm :     1.3883649 Eh/α   predicted    -0.7736546E-02 (  33.50%)
   displ. norm   :     0.0899088 α      lambda       -0.2087846E-01
   maximum displ.:     0.0591234 α      in ANC's #18, #5, #46, ...
 * RMSD in coord.:     0.2499764 α      energy gain   0.9851795E-01 Eh

generating ANC from model Hessian ...
Using Lindh-Hessian (1995)
 Shifting diagonal of input Hessian by    3.4560719198048075     
 Lowest  eigenvalues of input Hessian
    0.010000    0.000000    0.000000    0.000000    0.000000    0.000000
    0.000000    3.456609    3.458864    3.460151    3.460198    3.460950
    3.466028    3.466590    3.467505    3.470923    3.471884    3.477218
 Highest eigenvalues
    5.645115    5.686203    5.833201    5.919094  124.167611  146.281793


........................................................................
.............................. CYCLE   43 ..............................
........................................................................

 iter      E             dE          RMSdq      gap      omega  full diag
   1    -42.4493803 -0.424494E+02  0.110E-01    0.45       0.0  T
   2    -42.4485708  0.809487E-03  0.161E-01    0.37       1.0  T
   3    -42.4491693 -0.598474E-03  0.100E-01    0.46       1.0  T
   4    -42.4492869 -0.117619E-03  0.694E-02    0.41       1.0  T
   5    -42.4494788 -0.191869E-03  0.139E-02    0.43       1.4  T
   6    -42.4494842 -0.546175E-05  0.342E-03    0.43       5.8  T
   7    -42.4494845 -0.283668E-06  0.129E-03    0.43      15.5  T
   8    -42.4494845 -0.646788E-08  0.640E-04    0.43      31.2  T
   9    -42.4494845 -0.945751E-08  0.227E-04    0.43      88.1  T
     SCC iter.                  ...        0 min,  0.025 sec
     gradient                   ...        0 min,  0.020 sec
 * total energy  :  -121.9257215 Eh     change       -0.4018042E-02 Eh
   gradient norm :     0.7377353 Eh/α   predicted     0.0000000E+00 (-100.00%)
   displ. norm   :     0.9879779 α      lambda       -0.7051146E+00
   maximum displ.:     0.9872465 α      in ANC's #1, #59, #68, ...

........................................................................
.............................. CYCLE   44 ..............................
........................................................................

 iter      E             dE          RMSdq      gap      omega  full diag
   1    -42.5116843 -0.425117E+02  0.142E+00    0.38       0.0  T
   2    -42.4788256  0.328587E-01  0.138E+00    0.80       1.0  T
   3    -42.4770483  0.177734E-02  0.135E+00    0.06       1.0  T
   4    -42.5109574 -0.339091E-01  0.734E-01    0.73       1.0  T
   5    -42.5304666 -0.195091E-01  0.129E-01    0.48       1.0  T
   6    -42.5309265 -0.459922E-03  0.436E-02    0.48       1.0  T
   7    -42.5309497 -0.232075E-04  0.238E-02    0.47       1.0  T
   8    -42.5309579 -0.820947E-05  0.110E-02    0.47       1.8  T
   9    -42.5309609 -0.293633E-05  0.342E-03    0.47       5.8  T
  10    -42.5309609 -0.672667E-07  0.235E-03    0.47       8.5  T
  11    -42.5309611 -0.128553E-06  0.733E-04    0.47      27.3  T
  12    -42.5309611 -0.980055E-08  0.258E-04    0.47      77.6  T
     SCC iter.                  ...        0 min,  0.029 sec
     gradient                   ...        0 min,  0.023 sec
 * total energy  :  -114.4203901 Eh     change        0.7505331E+01 Eh
   gradient norm :    29.2477432 Eh/α   predicted    -0.6966885E+00 (-109.28%)
   displ. norm   :     0.6075448 α      lambda       -0.1776768E+02
   maximum displ.:     0.6064569 α      in ANC's #1, #59, #45, ...

........................................................................
.............................. CYCLE   45 ..............................
........................................................................

 iter      E             dE          RMSdq      gap      omega  full diag
   1    -42.4939650 -0.424940E+02  0.963E-01    0.53       0.0  T
   2    -42.4874957  0.646928E-02  0.714E-01    0.49       1.0  T
   3    -42.4936426 -0.614691E-02  0.603E-01    0.53       1.0  T
   4    -42.4975572 -0.391461E-02  0.263E-01    0.43       1.0  T
   5    -42.4969804  0.576800E-03  0.276E-01    0.61       1.0  T
   6    -42.5000328 -0.305235E-02  0.283E-02    0.50       1.0  T
   7    -42.5000367 -0.392196E-05  0.168E-02    0.50       1.2  T
   8    -42.5000400 -0.333572E-05  0.757E-03    0.50       2.6  T
   9    -42.5000413 -0.123069E-05  0.363E-03    0.50       5.5  T
  10    -42.5000415 -0.238585E-06  0.150E-03    0.50      13.4  T
  11    -42.5000415 -0.336783E-07  0.581E-04    0.50      34.4  T
  12    -42.5000415 -0.138278E-08  0.326E-04    0.50      61.3  T
     SCC iter.                  ...        0 min,  0.040 sec
     gradient                   ...        0 min,  0.018 sec
================
 final structure:
================
25
 xtb: 6.6.1 (8d0f1dd)
C            3.21786164340000        1.13591514650000        0.01837059260000
N            2.27034809790000        0.05199982890000        0.00038279530000
C            2.54167221030000       -1.23971668410000       -0.00834188300000
N            1.39367826450000       -1.95088267900000       -0.00850347120000
C            0.35269634020000       -1.06748964300000        0.00059917290000
C            0.90759959010000        0.20069750900000        0.00663590170000
C            0.07590235260000        1.39864294500000       -0.00284827040000
O            0.48715076820000        2.53168346660000       -0.01725767220000
N           -1.27221500230000        1.06666939660000        0.00165480230000
C           -2.23229981500000        2.16656245330000       -0.00245172030000
C           -1.84872931540000       -0.19179276200000        0.00496135950000
O           -3.03273030250000       -0.36103538130000        0.00858583760000
N           -0.96599111670000       -1.30060631840000        0.00174701630000
C           -1.52030655580000       -2.64076660390000       -0.00239033190000
H            3.71480285180000        1.18589984860000        0.98803183970000
H            3.97079415090000        0.99383197990000       -0.75543416370000
H            2.68321036910000        2.07051068580000       -0.15067179540000
H            3.52469367910000       -1.66989040330000       -0.01523639120000
H           -1.67672429040000        3.10039111610000        0.00486339690000
H           -2.85755792270000        2.10547813320000       -0.89185337000000
H           -2.87119733260000        2.09858159720000        0.87661144540000
H           -1.20589108080000       -3.18768007210000        0.88663215920000
H           -1.21982032550000       -3.17678505510000       -0.90288069810000
H           -2.60531402170000       -2.54255916880000        0.00649952960000
H            1.32879827740000       -2.95942079410000       -0.01653446370000

 Bond Distances (Angstroems)
 ---------------------------
C1-N2=1.4398         C1-H15=1.0907        C1-H16=1.0890        C1-H17=1.0899        N2-C1=1.4398         N2-C3=1.3199         
N2-C6=1.3709         C3-N2=1.3199         C3-N4=1.3504         C3-H18=1.0730        N4-C3=1.3504         N4-C5=1.3653         
N4-H25=1.0107        C5-N4=1.3653         C5-C6=1.3843         C5-N13=1.3391        C6-N2=1.3709         C6-C5=1.3843         
C6-C7=1.4584         C7-C6=1.4584         C7-O8=1.2055         C7-N9=1.3884         O8-C7=1.2055         N9-C7=1.3884         
N9-C10=1.4600        N9-C11=1.3842        C10-N9=1.4600        C10-H19=1.0866       C10-H20=1.0889       C10-H21=1.0888       
C11-N9=1.3842        C11-O12=1.1960       C11-N13=1.4173       O12-C11=1.1960       N13-C5=1.3391        N13-C11=1.4173       
N13-C14=1.4503       C14-N13=1.4503       C14-H22=1.0901       C14-H23=1.0902       C14-H24=1.0895       H15-C1=1.0907        
H16-C1=1.0890        H17-C1=1.0899        H18-C3=1.0730        H19-C10=1.0866       H20-C10=1.0889       H21-C10=1.0888       
H22-C14=1.0901       H23-C14=1.0902       H24-C14=1.0895       H25-N4=1.0107        
 C  H  Rav=1.0877 sigma=0.0050  Rmin=1.0730  Rmax=1.0907    10
 C  C  Rav=1.4213 sigma=0.0370  Rmin=1.3843  Rmax=1.4584     2
 N  H  Rav=1.0107 sigma=0.0000  Rmin=1.0107  Rmax=1.0107     1
 N  C  Rav=1.3896 sigma=0.0445  Rmin=1.3199  Rmax=1.4600    11
 O  C  Rav=1.2007 sigma=0.0047  Rmin=1.1960  Rmax=1.2055     2

 selected bond angles (degree)
 --------------------
H15-C1-N2=110.21               H16-C1-N2=110.36               H16-C1-H15=108.82              H17-C1-N2=108.71               
H17-C1-H15=108.79              H17-C1-H16=109.93              C3-N2-C1=126.98                C6-N2-C1=124.92                
C6-N2-C3=108.09                N4-C3-N2=109.91                H18-C3-N2=125.50               H18-C3-N4=124.59               
C5-N4-C3=107.90                H25-N4-C3=125.46               H25-N4-C5=126.64               C6-C5-N4=106.69                
N13-C5-N4=129.66               N13-C5-C6=123.66               C5-C6-N2=107.40                C7-C6-N2=130.99                
C7-C6-C5=121.59                O8-C7-C6=125.28                N9-C7-C6=110.94                N9-C7-O8=123.78                
C10-N9-C7=117.28               C11-N9-C7=128.45               C11-N9-C10=114.27              H19-C10-N9=108.13              
H20-C10-N9=109.73              H20-C10-H19=110.32             H21-C10-N9=109.67              H21-C10-H19=110.38             
H21-C10-H20=108.60             

 selected dihedral angles (degree)
 ---------------------------------
C3-N2-C1-H15=289.54           C3-N2-C1-H16= 49.76           C3-N2-C1-H17=170.39           C6-N2-C1-H15=108.66           
C6-N2-C1-H16=228.88           C6-N2-C1-H17=349.51           N4-C3-N2-C1=179.26            N4-C3-N2-C6=  0.00            
H18-C3-N2-C1=359.21           H18-C3-N2-C6=179.97           C5-N4-C3-N2=  0.00            C5-N4-C3-H18=180.05           
H25-N4-C3-N2=179.85           H25-N4-C3-H18=359.90          C6-C5-N4-C3=  0.00            C6-C5-N4-H25=180.14           
N13-C5-N4-C3=179.88           N13-C5-N4-H25=  0.03          C5-C6-N2-C1=180.71            C5-C6-N2-C3=359.97            
C7-C6-N2-C1=  1.78            C7-C6-N2-C3=181.03            N2-C6-C5-N4=  0.03            N2-C6-C5-N13=180.13           
C7-C6-C5-N4=179.08            C7-C6-C5-N13=359.18           O8-C7-C6-N2=359.91            O8-C7-C6-C5=181.10            
N9-C7-C6-N2=179.67            N9-C7-C6-C5=  0.86            C10-N9-C7-C6=179.81           C10-N9-C7-O8=359.58           
C11-N9-C7-C6=359.56           C11-N9-C7-O8=179.33           H19-C10-N9-C7=359.25          H19-C10-N9-C11=179.46         
H20-C10-N9-C7=119.63          H20-C10-N9-C11=299.84         H21-C10-N9-C7=238.84          H21-C10-N9-C11= 59.06         
           -------------------------------------------------
          |                Final Singlepoint                |
           -------------------------------------------------

          ...................................................
          :                      SETUP                      :
          :.................................................:
          :  # basis functions                  67          :
          :  # atomic orbitals                  67          :
          :  # shells                           39          :
          :  # electrons                        74          :
          :  max. iterations                   250          :
          :  Hamiltonian                  GFN2-xTB          :
          :  restarted?                      false          :
          :  GBSA solvation                  false          :
          :  PC potential                    false          :
          :  electronic temp.         5000.0000000     K    :
          :  accuracy                    1.0000000          :
          :  -> integral cutoff          0.2500000E+02      :
          :  -> integral neglect         0.1000000E-07      :
          :  -> SCF convergence          0.1000000E-05 Eh   :
          :  -> wf. convergence          0.1000000E-03 e    :
          :  Broyden damping             0.4000000          :
          ...................................................

 iter      E             dE          RMSdq      gap      omega  full diag
   1    -42.6293156 -0.426293E+02  0.307E+00    2.83       0.0  T
   2    -42.7550979 -0.125782E+00  0.200E+00    3.47       1.0  T
   3    -42.7778951 -0.227971E-01  0.108E+00    3.33       1.0  T
   4    -42.7769503  0.944771E-03  0.335E-01    3.42       1.0  T
   5    -42.7789498 -0.199946E-02  0.945E-02    3.32       1.0  T
   6    -42.7790608 -0.111013E-03  0.412E-02    3.35       1.0  T
   7    -42.7790762 -0.154288E-04  0.170E-02    3.34       1.2  T
   8    -42.7790775 -0.131066E-05  0.643E-03    3.34       3.1  T
   9    -42.7790779 -0.439948E-06  0.288E-03    3.34       7.0  T
  10    -42.7790780 -0.167001E-07  0.117E-03    3.34      17.1  T
  11    -42.7790780 -0.106884E-07  0.311E-04    3.34      64.4  T
  12    -42.7790780 -0.332719E-09  0.150E-04    3.34     133.6  T

   *** convergence criteria satisfied after 12 iterations ***

         #    Occupation            Energy/Eh            Energy/eV
      -------------------------------------------------------------
         1        2.0000           -0.9185984             -24.9963
       ...           ...                  ...                  ...
        31        1.9996           -0.6230275             -16.9534
        32        1.9995           -0.6194600             -16.8564
        33        1.9979           -0.5974983             -16.2588
        34        1.9932           -0.5789634             -15.7544
        35        1.9817           -0.5631866             -15.3251
        36        1.9779           -0.5602253             -15.2445
        37        1.9748           -0.5581231             -15.1873 (HOMO)
        38        0.0652           -0.4353577             -11.8467 (LUMO)
        39        0.0099           -0.4050463             -11.0219
        40        0.0013           -0.3732217             -10.1559
        41        0.0000           -0.2886861              -7.8555
        42                         -0.2065801              -5.6213
       ...                                ...                  ...
        67                          0.5625653              15.3082
      -------------------------------------------------------------
                  HL-Gap            0.1227654 Eh            3.3406 eV
             Fermi-level           -0.4890456 Eh          -13.3076 eV

 SCC (total)                   0 d,  0 h,  0 min,  0.061 sec
 SCC setup                      ...        0 min,  0.000 sec (  0.331%)
 Dispersion                     ...        0 min,  0.000 sec (  0.302%)
 classical contributions        ...        0 min,  0.000 sec (  0.116%)
 integral evaluation            ...        0 min,  0.005 sec (  8.204%)
 iterations                     ...        0 min,  0.029 sec ( 48.192%)
 molecular gradient             ...        0 min,  0.026 sec ( 42.628%)
 printout                       ...        0 min,  0.000 sec (  0.202%)

         :::::::::::::::::::::::::::::::::::::::::::::::::::::
         ::                     SUMMARY                     ::
         :::::::::::::::::::::::::::::::::::::::::::::::::::::
         :: total energy             -53.297191963628 Eh    ::
         :: gradient norm             13.296179467611 Eh/a0 ::
         :: HOMO-LUMO gap              3.340617600164 eV    ::
         ::.................................................::
         :: SCC energy               -42.779077977361 Eh    ::
         :: -> isotropic ES            0.141124430625 Eh    ::
         :: -> anisotropic ES         -0.005230372275 Eh    ::
         :: -> anisotropic XC          0.011966813755 Eh    ::
         :: -> dispersion             -0.022657729828 Eh    ::
         :: repulsion energy           0.531105277918 Eh    ::
         :: add. restraining         -11.049333423194 Eh    ::
         :: total charge               1.000000000002 e     ::
         :::::::::::::::::::::::::::::::::::::::::::::::::::::


last geometry written to: xtblast.xyz

########################################################################
[ERROR] Program stopped due to fatal error
-5- Geometry optimization failed
-4- xtb_geoopt: Trying to recover from failed geometry optimization
-3- xtb_geoopt: Geometry optimization did not converge
-2- optimizer_ancopt: Could not relax structure
-1- optimizer_relax: |grad| > 500, something is totally wrong!
########################################################################
