25
 energy: 36.602906072152 xtb: 6.6.1 (8d0f1dd)
C            3.23391654084477        3.36118089747243        0.53455058152039
N            2.35075653923923       -0.71650034857383       -0.23117382577276
C            2.41108926695814       -1.98465829940180       -0.13286195612893
N            1.16319174929869       -2.56363601972479       -0.13266782933940
C            0.28513690453111       -1.52265330090768       -0.20755416356808
C            1.04100121147131       -0.37052342657578       -0.29177786890306
C            0.42047519328052        0.93649415237281       -0.32525188709205
O            0.91592565782045        2.03130747216574       -0.47361543383053
N           -0.94735145136738        0.80414962894306       -0.10246400918148
C           -1.64484900720970        2.07685638321009        0.08779980131682
C           -1.72617508647375       -0.32879458308366       -0.02805750499320
O           -2.92251853337345       -0.28014807228607        0.13333351593483
N           -1.06422472862438       -1.54247106990316       -0.16568652548266
C           -1.78450466974284       -2.78904586218712       -0.17066803088321
H            4.11838003737803        3.42798110828966        1.15599165536724
H            3.21903511471164        3.62646904563495       -0.51442799587626
H            2.48887922630461        2.67109234002760        0.82848783197301
H            3.31402208337909       -2.50766560947541        0.03174516220099
H           -0.98308546821577        2.86641783705062       -0.24761640617756
H           -2.57139312253667        2.09188839717285       -0.49683078153475
H           -1.88361532609249        2.18689596997381        1.14352462181273
H           -1.39009197444362       -3.45290129919562        0.59450176486019
H           -1.73509658196558       -3.22480530048250       -1.15509308071037
H           -2.82648786444276       -2.57249797878627        0.01859265861241
H            0.89367078114256       -3.50022794037994        0.11108429381029
