      -----------------------------------------------------------      
     |                   =====================                   |     
     |                           x T B                           |     
     |                   =====================                   |     
     |                         S. Grimme                         |     
     |          Mulliken Center for Theoretical Chemistry        |     
     |                    University of Bonn                     |     
      -----------------------------------------------------------      

   * xtb version 6.6.1 (8d0f1dd) compiled by 'conda@1efc2f54142f' on 2023-08-01

   xtb is free software: you can redistribute it and/or modify it under
   the terms of the GNU Lesser General Public License as published by
   the Free Software Foundation, either version 3 of the License, or
   (at your option) any later version.
   
   xtb is distributed in the hope that it will be useful,
   but WITHOUT ANY WARRANTY; without even the implied warranty of
   MERCHANTABILITY or FITNESS FOR A PARTICULAR PURPOSE.  See the
   GNU Lesser General Public License for more details.
   
   Cite this work as:
   * C. Bannwarth, E. Caldeweyher, S. Ehlert, A. Hansen, P. Pracht,
     J. Seibert, S. Spicher, S. Grimme, WIREs Comput. Mol. Sci., 2020, 11,
     e01493. DOI: 10.1002/wcms.1493
   
   for GFN2-xTB:
   * C. Bannwarth, S. Ehlert and S. Grimme., J. Chem. Theory Comput., 2019,
     15, 1652-1671. DOI: 10.1021/acs.jctc.8b01176
   for GFN1-xTB:
   * S. Grimme, C. Bannwarth, P. Shushkov, J. Chem. Theory Comput., 2017,
     13, 1989-2009. DOI: 10.1021/acs.jctc.7b00118
   for GFN0-xTB:
   * P. Pracht, E. Caldeweyher, S. Ehlert, S. Grimme, ChemRxiv, 2019, preprint.
     DOI: 10.26434/chemrxiv.8326202.v1
   for GFN-FF:
   * S. Spicher and S. Grimme, Angew. Chem. Int. Ed., 2020, 59, 15665-15673.
     DOI: 10.1002/anie.202004239
   
   for ALPB and GBSA implicit solvation:
   * S. Ehlert, M. Stahn, S. Spicher, S. Grimme, J. Chem. Theory Comput.,
     2021, 17, 4250-4261. DOI: 10.1021/acs.jctc.1c00471
   
   for DFT-D4:
   * E. Caldeweyher, C. Bannwarth and S. Grimme, J. Chem. Phys., 2017,
     147, 034112. DOI: 10.1063/1.4993215
   * E. Caldeweyher, S. Ehlert, A. Hansen, H. Neugebauer, S. Spicher,
     C. Bannwarth and S. Grimme, J. Chem. Phys., 2019, 150, 154122.
     DOI: 10.1063/1.5090222
   * E. Caldeweyher, J.-M. Mewes, S. Ehlert and S. Grimme, Phys. Chem. Chem. Phys.
     2020, 22, 8499-8512. DOI: 10.1039/D0CP00502A
   
   for sTDA-xTB:
   * S. Grimme and C. Bannwarth, J. Chem. Phys., 2016, 145, 054103.
     DOI: 10.1063/1.4959605
   
   in the mass-spec context:
   * V. Asgeirsson, C. Bauer and S. Grimme, Chem. Sci., 2017, 8, 4879.
     DOI: 10.1039/c7sc00601b
   * J. Koopman and S. Grimme, ACS Omega 2019, 4, 12, 15120-15133.
     DOI: 10.1021/acsomega.9b02011
   
   for metadynamics refer to:
   * S. Grimme, J. Chem. Theory Comput., 2019, 155, 2847-2862
     DOI: 10.1021/acs.jctc.9b00143
   
   for SPH calculations refer to:
   * S. Spicher and S. Grimme, J. Chem. Theory Comput., 2021, 17, 1701-1714
     DOI: 10.1021/acs.jctc.0c01306
   
   with help from (in alphabetical order)
   P. Atkinson, C. Bannwarth, F. Bohle, G. Brandenburg, E. Caldeweyher
   M. Checinski, S. Dohm, S. Ehlert, S. Ehrlich, I. Gerasimov, C. Hölzer
   A. Katbashev, J. Koopman, C. Lavigne, S. Lehtola, F. März, M. Müller,
   F. Musil, H. Neugebauer, J. Pisarek, C. Plett, P. Pracht, F. Pultar,
   J. Seibert, P. Shushkov, S. Spicher, M. Stahn, M. Steiner, T. Strunk,
   J. Stückrath, T. Rose, and J. Unsleber
   
 * started run on 2024/04/06 at 11:15:06.826     

           -------------------------------------------------
          |                Calculation Setup                |
           -------------------------------------------------

          program call               : xtb xtbopt.xyz --opt crude --input .xc2 --gfn2
          hostname                   : n-62-30-23
          coordinate file            : xtbopt.xyz
          omp threads                :                     1

   ID    Z sym.   atoms
    1    7 N      1, 17
    2    6 C      2-6, 8, 9, 11-16, 18-23, 25, 26, 28-33
    3    8 O      7, 10, 24, 27
    4    1 H      34-72
########################################################################
[WARNING] Please study the warnings concerning your input carefully
-1- readin_getIntValue: could not parse ''
########################################################################

           -------------------------------------------------
          |                 G F N 2 - x T B                 |
           -------------------------------------------------

        Reference                      10.1021/acs.jctc.8b01176
      * Hamiltonian:
        H0-scaling (s, p, d)           1.850000    2.230000    2.230000
        zeta-weighting                 0.500000
      * Dispersion:
        s8                             2.700000
        a1                             0.520000
        a2                             5.000000
        s9                             5.000000
      * Repulsion:
        kExp                           1.500000    1.000000
        rExp                           1.000000
      * Coulomb:
        alpha                          2.000000
        third order                    shell-resolved
        anisotropic                    true
        a3                             3.000000
        a5                             4.000000
        cn-shift                       1.200000
        cn-exp                         4.000000
        max-rad                        5.000000

q/qsh data taken from xtbrestart
CAMM data taken from xtbrestart

          ...................................................
          :                      SETUP                      :
          :.................................................:
          :  # basis functions                 171          :
          :  # atomic orbitals                 171          :
          :  # shells                          105          :
          :  # electrons                       180          :
          :  max. iterations                   250          :
          :  Hamiltonian                  GFN2-xTB          :
          :  restarted?                       true          :
          :  GBSA solvation                  false          :
          :  PC potential                    false          :
          :  electronic temp.         5000.0000000     K    :
          :  accuracy                    1.0000000          :
          :  -> integral cutoff          0.2500000E+02      :
          :  -> integral neglect         0.1000000E-07      :
          :  -> SCF convergence          0.1000000E-05 Eh   :
          :  -> wf. convergence          0.1000000E-03 e    :
          :  Broyden damping             0.4000000          :
          ...................................................

 iter      E             dE          RMSdq      gap      omega  full diag
   1   -100.7894766 -0.100789E+03  0.309E-05    1.43       0.0  T
   2   -100.7894766  0.336513E-09  0.604E-05    1.43     195.0  T
   3   -100.7894766 -0.438973E-09  0.641E-06    1.43    1838.2  T

   *** convergence criteria satisfied after 3 iterations ***

         #    Occupation            Energy/Eh            Energy/eV
      -------------------------------------------------------------
         1        2.0000           -0.8024883             -21.8368
       ...           ...                  ...                  ...
        84        1.9975           -0.5136588             -13.9774
        85        1.9961           -0.5070679             -13.7980
        86        1.9846           -0.4850814             -13.1997
        87        1.9729           -0.4760393             -12.9537
        88        1.8969           -0.4542498             -12.3608
        89        1.8694           -0.4502687             -12.2524
        90        1.7970           -0.4426648             -12.0455 (HOMO)
        91        0.4883           -0.3902414             -10.6190 (LUMO)
        92        0.0045           -0.3115001              -8.4764
        93        0.0035           -0.3078381              -8.3767
        94        0.0021           -0.2993744              -8.1464
        95        0.0018           -0.2970751              -8.0838
       ...           ...                  ...                  ...
       171                          0.5871477              15.9771
      -------------------------------------------------------------
                  HL-Gap            0.0524234 Eh            1.4265 eV
             Fermi-level           -0.4081329 Eh          -11.1059 eV

 SCC (total)                   0 d,  0 h,  0 min,  0.118 sec
 SCC setup                      ...        0 min,  0.001 sec (  0.833%)
 Dispersion                     ...        0 min,  0.002 sec (  1.478%)
 classical contributions        ...        0 min,  0.000 sec (  0.366%)
 integral evaluation            ...        0 min,  0.018 sec ( 15.375%)
 iterations                     ...        0 min,  0.027 sec ( 23.160%)
 molecular gradient             ...        0 min,  0.069 sec ( 58.242%)
 printout                       ...        0 min,  0.001 sec (  0.533%)

         :::::::::::::::::::::::::::::::::::::::::::::::::::::
         ::                     SUMMARY                     ::
         :::::::::::::::::::::::::::::::::::::::::::::::::::::
         :: total energy             -99.437818521957 Eh    ::
         :: gradient norm              0.006970585370 Eh/a0 ::
         :: HOMO-LUMO gap              1.426513269774 eV    ::
         ::.................................................::
         :: SCC energy              -100.789476577007 Eh    ::
         :: -> isotropic ES            0.102120048295 Eh    ::
         :: -> anisotropic ES          0.008443494449 Eh    ::
         :: -> anisotropic XC          0.038554316499 Eh    ::
         :: -> dispersion             -0.073239517324 Eh    ::
         :: repulsion energy           1.350563123868 Eh    ::
         :: add. restraining           0.000000000000 Eh    ::
         :: total charge               1.000000000000 e     ::
         :::::::::::::::::::::::::::::::::::::::::::::::::::::

      ----------------------------------------------------------- 
     |                   =====================                   |
     |                        A N C O P T                        |
     |                   =====================                   |
     |               Approximate Normal Coordinate               |
     |                Rational Function Optimizer                |
      ----------------------------------------------------------- 

          ...................................................
          :                      SETUP                      :
          :.................................................:
          :   optimization level             crude          :
          :   max. optcycles                   200          :
          :   ANC micro-cycles                  20          :
          :   degrees of freedom               210          :
          :.................................................:
          :   RF solver                   davidson          :
          :   write xtbopt.log                true          :
          :   linear?                        false          :
          :   energy convergence         0.5000000E-03 Eh   :
          :   grad. convergence          0.1000000E-01 Eh/α :
          :   maxmium RF displ.          1.0000000          :
          :   Hlow (freq-cutoff)         0.1000000E-01      :
          :   Hmax (freq-cutoff)         5.0000000          :
          :   S6 in model hess.         20.0000000          :
          ...................................................

generating ANC from model Hessian ...
Using Lindh-Hessian (1995)
 Shifting diagonal of input Hessian by    9.9983331605388633E-003
 Lowest  eigenvalues of input Hessian
    0.000000    0.000000    0.000000    0.000000    0.000000    0.000000
    0.010000    0.010052    0.010137    0.010229    0.010245    0.010372
    0.010636    0.010729    0.011512    0.011574    0.012348    0.012794
 Highest eigenvalues
    1.930242    1.962388    2.045877    2.048268    2.180055    2.184798


........................................................................
.............................. CYCLE    1 ..............................
........................................................................

 iter      E             dE          RMSdq      gap      omega  full diag
   1   -100.7894766 -0.100789E+03  0.396E-06    1.43       0.0  T
   2   -100.7894766 -0.568434E-13  0.287E-06    1.43    4099.9  T
   3   -100.7894766  0.255795E-12  0.203E-06    1.43    5797.2  T
     SCC iter.                  ...        0 min,  0.026 sec
     gradient                   ...        0 min,  0.068 sec
 * total energy  :   -99.4378185 Eh     change        0.5115908E-12 Eh
   gradient norm :     0.0069706 Eh/α   predicted     0.0000000E+00 (-100.00%)
   displ. norm   :     0.1675874 α      lambda       -0.6895770E-03
   maximum displ.:     0.0601919 α      in ANC's #1, #6, #15, ...

........................................................................
.............................. CYCLE    2 ..............................
........................................................................

 iter      E             dE          RMSdq      gap      omega  full diag
   1   -100.7898641 -0.100790E+03  0.376E-02    1.43       0.0  T
   2   -100.7898602  0.393826E-05  0.224E-02    1.42       1.0  T
   3   -100.7897646  0.956519E-04  0.311E-02    1.46       1.0  T
   4   -100.7898670 -0.102402E-03  0.316E-03    1.42       3.7  T
   5   -100.7898679 -0.900934E-06  0.125E-03    1.43       9.4  T
   6   -100.7898679 -0.946133E-07  0.558E-04    1.42      21.1  T
   7   -100.7898680 -0.107509E-07  0.159E-04    1.43      74.2  T
     SCC iter.                  ...        0 min,  0.058 sec
     gradient                   ...        0 min,  0.068 sec
 * total energy  :   -99.4383047 Eh     change       -0.4862090E-03 Eh
   gradient norm :     0.0038827 Eh/α   predicted    -0.3556563E-03 ( -26.85%)
   displ. norm   :     0.2242465 α      lambda       -0.4356832E-03
   maximum displ.:     0.0833974 α      in ANC's #1, #6, #25, ...

   *** GEOMETRY OPTIMIZATION CONVERGED AFTER 2 ITERATIONS ***

------------------------------------------------------------------------
 total energy gain   :        -0.0004862 Eh       -0.3051 kcal/mol
 total RMSD          :         0.0197504 a0        0.0105 Å
 total power (kW/mol):        -0.6382708 (step)   -3.9648 (real)
------------------------------------------------------------------------

 ANCopt (total)                0 d,  0 h,  0 min,  0.322 sec
 optimizer setup                ...        0 min,  0.000 sec (  0.062%)
 model hessian                  ...        0 min,  0.048 sec ( 14.888%)
 ANC generation                 ...        0 min,  0.006 sec (  1.961%)
 coordinate transformation      ...        0 min,  0.000 sec (  0.038%)
 single point calculation       ...        0 min,  0.264 sec ( 81.941%)
 optimization log               ...        0 min,  0.002 sec (  0.521%)
 hessian update                 ...        0 min,  0.000 sec (  0.018%)
 rational function              ...        0 min,  0.002 sec (  0.506%)

================
 final structure:
================
72
 xtb: 6.6.1 (8d0f1dd)
N           -2.40109235285049        3.47782866113287        1.81949315452293
C           -2.24876454867749        2.20294286130591        1.47640227748046
C           -3.19825914603825        1.82408016437547        0.39059742969322
C           -3.73828488213913        0.41154001900704        0.48654566776964
C           -4.59566220231053       -0.05921112002371       -0.51120235424684
C           -5.10265076062949       -1.34669853503914       -0.48297337549822
O           -5.93204412124768       -1.87831914829296       -1.40583220741424
C           -6.34212945314715       -1.09119633252184       -2.49805821141724
C           -4.74618727550165       -2.21530392107061        0.58295078642885
O           -5.26881470045817       -3.45633371239714        0.52349360037645
C           -4.95995011837939       -4.37645877221227        1.54475583315492
C           -3.91489429259135       -1.73367529652127        1.58018032517753
C           -3.42170156235500       -0.43654098796075        1.53382681812717
C           -2.54000530003557        2.04966141063071       -1.01050816768850
C           -1.54625029598268        0.97263435616406       -1.43545018581830
C           -0.20253255556328        1.14226943426545       -0.73056318635984
N            0.71979129267993        0.06279839330723       -0.96985410737799
C            2.08870983293509        0.33405493758956       -0.58574647244911
C            3.06859431661118       -0.21072711170090       -1.64031536920231
C            4.47799999524402       -0.02127888615412       -1.16665434000385
C            5.12098845650206        1.19759391320503       -1.32294704236137
C            6.39932188637379        1.39607568485167       -0.82664851563844
C            7.06459259530949        0.37602786909903       -0.16066182987397
O            8.30057465485914        0.46053424031967        0.37142649712604
C            9.00745861076764        1.67393472413522        0.26992616712913
C            6.42028773380696       -0.88184557184757       -0.00677516123109
O            7.14029849960834       -1.82330611572143        0.63814853828601
C            6.60032677219300       -3.11406318664509        0.79049704945029
C            5.13855136514614       -1.05305302496206       -0.50592069268150
C            0.24877808890355       -1.24178268870838       -0.56815627805682
C           -4.29366271348606        2.92144732968226        0.58211369579266
C           -5.36279399517065        2.50100808611803        1.58483916014544
C           -3.49279311601748        4.11606630300511        1.12744672003047
H           -4.87467362842425        0.59685292698281       -1.31841556745112
H           -6.90435594207812       -0.21065275592012       -2.17124818843424
H           -6.99224288785725       -1.73161156316569       -3.09084158097368
H           -5.49017427660362       -0.77664511089859       -3.10941938542203
H           -5.32012984029005       -4.03079640139493        2.51850825867492
H           -5.47598192494120       -5.29591720610351        1.27579181417795
H           -3.88369223018514       -4.56758153669215        1.59957979113865
H           -3.64236307880813       -2.36250758380155        2.41192617189259
H           -2.79395318283973       -0.10729913614224        2.34544294624268
H           -3.34324929371910        2.08826311067209       -1.74531811248154
H           -2.04430531045191        3.02187025387369       -1.01816378436630
H           -1.97159832178861       -0.00517318634478       -1.21676414973002
H           -1.38835219957391        1.03659278351997       -2.51292940247378
H           -1.54694033282553        1.58390158683719        1.99804515119892
H            0.26456877290990        2.06516896700156       -1.08557256534022
H            2.32593280535033       -0.10981474931273        0.39225973884142
H            2.23691979766180        1.41228005609808       -0.50254828964683
H            2.90113013974616        0.32486997437741       -2.57496018109636
H            2.86481343777020       -1.26737287878137       -1.81189787087754
H            4.62483902683978        2.00316493298665       -1.84238760143035
H            6.87376933142161        2.35365813077307       -0.96629532824427
H            8.48041331564718        2.48763485897144        0.77832598887609
H            9.18435616197278        1.94989616036025       -0.77400597076859
H            9.96161871238507        1.49849478463023        0.76325035906236
H            7.36099364406618       -3.68940649966119        1.31473441878315
H            5.68319601000526       -3.09913040371740        1.38818235581809
H            6.39712963245201       -3.58013529162795       -0.17875333867545
H            4.63801141453580       -2.00181327540096       -0.39178295974014
H           -0.51295476940308       -1.59630024297546       -1.26075619092492
H           -0.17668295325275       -1.23692956173994        0.44575612851430
H            1.07569381884997       -1.94628402966992       -0.59134836036191
H           -4.77027661609721        3.17046852161631       -0.36576108566840
H           -4.91454161096341        2.24643161231001        2.54242244704383
H           -5.90934253372880        1.63445054117848        1.22495269797649
H           -6.06928201912431        3.31366103438176        1.73347142017115
H           -4.07721176499922        4.72944819328176        1.81493597962279
H           -0.39995091380825        1.26478863601822        0.34827443245487
H           -3.11498400232900        4.76143693880269        0.32631538495233
H           -1.83743149887832        3.95547295474224        2.50388304790179

 Bond Distances (Angstroems)
 ---------------------------
N1-C2=1.3290         N1-C33=1.4416        N1-H72=1.0071        C2-N1=1.3290         C2-C3=1.4913         C2-H47=1.0714        
C3-C2=1.4913         C3-C4=1.5153         C3-C14=1.5644        C3-C31=1.5623        C4-C3=1.5153         C4-C5=1.3972         
C4-C13=1.3843        C5-C4=1.3972         C5-C6=1.3840         C5-H34=1.0770        C6-C5=1.3840         C6-O7=1.3499         
C6-C9=1.4205         O7-C6=1.3499         O7-C8=1.4074         C8-O7=1.4074         C8-H35=1.0947        C8-H36=1.0882        
C8-H37=1.0948        C9-C6=1.4205         C9-O10=1.3479        C9-C12=1.3847        O10-C9=1.3479        O10-C11=1.4089       
C11-O10=1.4089       C11-H38=1.0943       C11-H39=1.0881       C11-H40=1.0945       C12-C9=1.3847        C12-C13=1.3885       
C12-H41=1.0777       C13-C4=1.3843        C13-C12=1.3885       C13-H42=1.0776       C14-C3=1.5644        C14-C15=1.5258       
C14-H43=1.0893       C14-H44=1.0913       C15-C14=1.5258       C15-C16=1.5268       C15-H45=1.0885       C15-H46=1.0909       
C16-C15=1.5268       C16-N17=1.4399       C16-H48=1.0936       C16-H70=1.1036       N17-C16=1.4399       N17-C18=1.4474       
N17-C30=1.4440       C18-N17=1.4474       C18-C19=1.5392       C18-H49=1.0999       C18-H50=1.0915       C19-C18=1.5392       
C19-C20=1.4989       C19-H51=1.0902       C19-H52=1.0897       C20-C19=1.4989       C20-C21=1.3869       C20-C29=1.3919       
C21-C20=1.3869       C21-C22=1.3856       C21-H53=1.0793       C22-C21=1.3856       C22-C23=1.3880       C22-H54=1.0778       
C23-C22=1.3880       C23-O24=1.3483       C23-C26=1.4216       O24-C23=1.3483       O24-C25=1.4080       C25-O24=1.4080       
C25-H55=1.0947       C25-H56=1.0942       C25-H57=1.0884       C26-C23=1.4216       C26-O27=1.3493       C26-C29=1.3861       
O27-C26=1.3493       O27-C28=1.4074       C28-O27=1.4074       C28-H58=1.0883       C28-H59=1.0948       C28-H60=1.0945       
C29-C20=1.3919       C29-C26=1.3861       C29-H61=1.0788       C30-N17=1.4440       C30-H62=1.0889       C30-H63=1.0996       
C30-H64=1.0866       C31-C3=1.5623        C31-C32=1.5249       C31-C33=1.5381       C31-H65=1.0898       C32-C31=1.5249       
C32-H66=1.0875       C32-H67=1.0859       C32-H68=1.0870       C33-N1=1.4416        C33-C31=1.5381       C33-H69=1.0911       
C33-H71=1.0959       H34-C5=1.0770        H35-C8=1.0947        H36-C8=1.0882        H37-C8=1.0948        H38-C11=1.0943       
H39-C11=1.0881       H40-C11=1.0945       H41-C12=1.0777       H42-C13=1.0776       H43-C14=1.0893       H44-C14=1.0913       
H45-C15=1.0885       H46-C15=1.0909       H47-C2=1.0714        H48-C16=1.0936       H49-C18=1.0999       H50-C18=1.0915       
H51-C19=1.0902       H52-C19=1.0897       H53-C21=1.0793       H54-C22=1.0778       H55-C25=1.0947       H56-C25=1.0942       
H57-C25=1.0884       H58-C28=1.0883       H59-C28=1.0948       H60-C28=1.0945       H61-C29=1.0788       H62-C30=1.0889       
H63-C30=1.0996       H64-C30=1.0866       H65-C31=1.0898       H66-C32=1.0875       H67-C32=1.0859       H68-C32=1.0870       
H69-C33=1.0911       H70-C16=1.1036       H71-C33=1.0959       H72-N1=1.0071        
 C  H  Rav=1.0892 sigma=0.0070  Rmin=1.0714  Rmax=1.1036    38
 C  C  Rav=1.4548 sigma=0.0698  Rmin=1.3840  Rmax=1.5644    22
 N  H  Rav=1.0071 sigma=0.0000  Rmin=1.0071  Rmax=1.0071     1
 N  C  Rav=1.4204 sigma=0.0458  Rmin=1.3290  Rmax=1.4474     5
 O  C  Rav=1.3784 sigma=0.0295  Rmin=1.3479  Rmax=1.4089     8

 selected bond angles (degree)
 --------------------
C33-N1-C2=112.80               H72-N1-C2=124.49               H72-N1-C33=122.69              C3-C2-N1=111.02                
H47-C2-N1=120.24               H47-C2-C3=128.67               C4-C3-C2=114.68                C14-C3-C2=110.34               
C14-C3-C4=109.94               C31-C3-C2=100.29               C31-C3-C4=113.40               C31-C3-C14=107.67              
C5-C4-C3=119.18                C13-C4-C3=122.51               C13-C4-C5=118.31               C6-C5-C4=121.58                
H34-C5-C4=119.27               H34-C5-C6=119.15               O7-C6-C5=125.27                C9-C6-C5=119.49                
C9-C6-O7=115.24                C8-O7-C6=119.30                H35-C8-O7=111.58               H36-C8-O7=105.53               
H36-C8-H35=109.22              H37-C8-O7=111.55               H37-C8-H35=109.59              H37-C8-H36=109.26              
O10-C9-C6=115.63               C12-C9-C6=118.58               C12-C9-O10=125.79              C11-O10-C9=118.97              

 selected dihedral angles (degree)
 ---------------------------------
C3-C2-N1-C33=  4.16           C3-C2-N1-H72=182.75           H47-C2-N1-C33=187.01          H47-C2-N1-H72=  5.60          
C4-C3-C2-N1=215.88            C4-C3-C2-H47= 32.72           C14-C3-C2-N1= 91.08           C14-C3-C2-H47=267.92          
C31-C3-C2-N1=337.73           C31-C3-C2-H47=154.57          C5-C4-C3-C2=182.44            C5-C4-C3-C14=307.45           
C5-C4-C3-C31= 68.04           C13-C4-C3-C2=  2.84           C13-C4-C3-C14=127.85          C13-C4-C3-C31=248.43          
C6-C5-C4-C3=179.08            C6-C5-C4-C13=358.70           H34-C5-C4-C3=358.65           H34-C5-C4-C13=178.27          
O7-C6-C5-C4=180.12            O7-C6-C5-H34=  0.54           C9-C6-C5-C4=359.98            C9-C6-C5-H34=180.40           
C8-O7-C6-C5=359.75            C8-O7-C6-C9=179.89            H35-C8-O7-C6=298.37           H36-C8-O7-C6=179.86           
H37-C8-O7-C6= 61.32           O10-C9-C6-C5=180.89           O10-C9-C6-O7=  0.76           C12-C9-C6-C5=  1.14           
C12-C9-C6-O7=181.01           C11-O10-C9-C6=179.94          C11-O10-C9-C12=359.66         
           -------------------------------------------------
          |                Final Singlepoint                |
           -------------------------------------------------

          ...................................................
          :                      SETUP                      :
          :.................................................:
          :  # basis functions                 171          :
          :  # atomic orbitals                 171          :
          :  # shells                          105          :
          :  # electrons                       180          :
          :  max. iterations                   250          :
          :  Hamiltonian                  GFN2-xTB          :
          :  restarted?                      false          :
          :  GBSA solvation                  false          :
          :  PC potential                    false          :
          :  electronic temp.         5000.0000000     K    :
          :  accuracy                    1.0000000          :
          :  -> integral cutoff          0.2500000E+02      :
          :  -> integral neglect         0.1000000E-07      :
          :  -> SCF convergence          0.1000000E-05 Eh   :
          :  -> wf. convergence          0.1000000E-03 e    :
          :  Broyden damping             0.4000000          :
          ...................................................

 iter      E             dE          RMSdq      gap      omega  full diag
   1   -100.7898680 -0.100790E+03  0.735E-05    1.43       0.0  T
   2   -100.7898680  0.263128E-09  0.688E-05    1.43     171.3  T
   3   -100.7898680 -0.327702E-09  0.490E-05    1.43     240.5  T

   *** convergence criteria satisfied after 3 iterations ***

         #    Occupation            Energy/Eh            Energy/eV
      -------------------------------------------------------------
         1        2.0000           -0.8024912             -21.8369
       ...           ...                  ...                  ...
        84        1.9974           -0.5134873             -13.9727
        85        1.9961           -0.5070123             -13.7965
        86        1.9846           -0.4850748             -13.1996
        87        1.9729           -0.4759808             -12.9521
        88        1.8969           -0.4542112             -12.3597
        89        1.8693           -0.4502301             -12.2514
        90        1.7967           -0.4426091             -12.0440 (HOMO)
        91        0.4889           -0.3902369             -10.6189 (LUMO)
        92        0.0045           -0.3114476              -8.4749
        93        0.0035           -0.3078266              -8.3764
        94        0.0021           -0.2992536              -8.1431
        95        0.0018           -0.2969527              -8.0805
       ...           ...                  ...                  ...
       171                          0.5874949              15.9866
      -------------------------------------------------------------
                  HL-Gap            0.0523722 Eh            1.4251 eV
             Fermi-level           -0.4081046 Eh          -11.1051 eV

 SCC (total)                   0 d,  0 h,  0 min,  0.117 sec
 SCC setup                      ...        0 min,  0.001 sec (  0.746%)
 Dispersion                     ...        0 min,  0.002 sec (  1.373%)
 classical contributions        ...        0 min,  0.000 sec (  0.367%)
 integral evaluation            ...        0 min,  0.018 sec ( 15.231%)
 iterations                     ...        0 min,  0.026 sec ( 22.448%)
 molecular gradient             ...        0 min,  0.069 sec ( 59.357%)
 printout                       ...        0 min,  0.001 sec (  0.464%)

         :::::::::::::::::::::::::::::::::::::::::::::::::::::
         ::                     SUMMARY                     ::
         :::::::::::::::::::::::::::::::::::::::::::::::::::::
         :: total energy             -99.438304731934 Eh    ::
         :: gradient norm              0.003883519381 Eh/a0 ::
         :: HOMO-LUMO gap              1.425119369657 eV    ::
         ::.................................................::
         :: SCC energy              -100.789867960386 Eh    ::
         :: -> isotropic ES            0.102139615430 Eh    ::
         :: -> anisotropic ES          0.008458430236 Eh    ::
         :: -> anisotropic XC          0.038635250584 Eh    ::
         :: -> dispersion             -0.073169342942 Eh    ::
         :: repulsion energy           1.350470237273 Eh    ::
         :: add. restraining           0.000000000000 Eh    ::
         :: total charge               1.000000000000 e     ::
         :::::::::::::::::::::::::::::::::::::::::::::::::::::

           -------------------------------------------------
          |                Property Printout                |
           -------------------------------------------------

    * Orbital Energies and Occupations

         #    Occupation            Energy/Eh            Energy/eV
      -------------------------------------------------------------
         1        2.0000           -0.8024912             -21.8369
       ...           ...                  ...                  ...
        78        1.9991           -0.5305532             -14.4371
        79        1.9989           -0.5263033             -14.3214
        80        1.9987           -0.5237087             -14.2508
        81        1.9985           -0.5218501             -14.2003
        82        1.9982           -0.5187384             -14.1156
        83        1.9977           -0.5154901             -14.0272
        84        1.9974           -0.5134873             -13.9727
        85        1.9961           -0.5070123             -13.7965
        86        1.9846           -0.4850748             -13.1996
        87        1.9729           -0.4759808             -12.9521
        88        1.8969           -0.4542112             -12.3597
        89        1.8693           -0.4502301             -12.2514
        90        1.7967           -0.4426091             -12.0440 (HOMO)
        91        0.4889           -0.3902369             -10.6189 (LUMO)
        92        0.0045           -0.3114476              -8.4749
        93        0.0035           -0.3078266              -8.3764
        94        0.0021           -0.2992536              -8.1431
        95        0.0018           -0.2969527              -8.0805
        96        0.0000           -0.1855867              -5.0501
        97        0.0000           -0.1742214              -4.7408
        98                         -0.1171354              -3.1874
        99                         -0.0914721              -2.4891
       100                         -0.0752747              -2.0483
       101                         -0.0586706              -1.5965
       ...                                ...                  ...
       171                          0.5874949              15.9866
      -------------------------------------------------------------
                  HL-Gap            0.0523722 Eh            1.4251 eV
             Fermi-level           -0.4081046 Eh          -11.1051 eV

     #   Z          covCN         q      C6AA      α(0)
     1   7 N        2.713    -0.074    22.679     7.073
     2   6 C        2.903     0.015    27.672     8.625
     3   6 C        3.931     0.014    20.272     6.398
     4   6 C        2.968     0.000    28.019     8.683
     5   6 C        2.922    -0.079    29.985     8.980
     6   6 C        2.863     0.130    25.155     8.221
     7   8 O        1.706    -0.231    17.832     5.701
     8   6 C        3.644     0.028    20.440     6.498
     9   6 C        2.865     0.131    25.136     8.218
    10   8 O        1.706    -0.229    17.793     5.695
    11   6 C        3.646     0.027    20.452     6.499
    12   6 C        2.915    -0.071    29.780     8.949
    13   6 C        2.922    -0.052    29.280     8.874
    14   6 C        3.806    -0.066    21.752     6.639
    15   6 C        3.801    -0.071    21.867     6.658
    16   6 C        3.754     0.000    20.631     6.477
    17   7 N        2.727    -0.125    23.721     7.234
    18   6 C        3.757     0.003    20.575     6.467
    19   6 C        3.809    -0.072    21.876     6.658
    20   6 C        2.969     0.007    27.853     8.657
    21   6 C        2.922    -0.047    29.166     8.856
    22   6 C        2.913    -0.067    29.675     8.933
    23   6 C        2.865     0.132    25.118     8.215
    24   8 O        1.706    -0.225    17.725     5.684
    25   6 C        3.646     0.027    20.461     6.501
    26   6 C        2.863     0.132    25.100     8.212
    27   8 O        1.706    -0.226    17.756     5.689
    28   6 C        3.645     0.028    20.437     6.497
    29   6 C        2.920    -0.077    29.928     8.971
    30   6 C        3.704    -0.045    21.530     6.634
    31   6 C        3.898    -0.022    20.907     6.500
    32   6 C        3.754    -0.117    22.789     6.807
    33   6 C        3.795    -0.013    20.822     6.498
    34   1 H        0.926     0.050     2.322     2.383
    35   1 H        0.924     0.049     2.328     2.386
    36   1 H        0.925     0.080     1.976     2.198
    37   1 H        0.924     0.048     2.342     2.393
    38   1 H        0.924     0.053     2.285     2.364
    39   1 H        0.925     0.080     1.978     2.200
    40   1 H        0.924     0.050     2.322     2.383
    41   1 H        0.926     0.053     2.282     2.363
    42   1 H        0.926     0.036     2.499     2.472
    43   1 H        0.925     0.057     2.230     2.335
    44   1 H        0.924     0.043     2.407     2.426
    45   1 H        0.925     0.055     2.258     2.350
    46   1 H        0.924     0.058     2.222     2.331
    47   1 H        0.926     0.066     2.129     2.282
    48   1 H        0.924     0.044     2.391     2.418
    49   1 H        0.923     0.031     2.567     2.506
    50   1 H        0.924     0.043     2.414     2.430
    51   1 H        0.925     0.059     2.206     2.323
    52   1 H        0.925     0.054     2.276     2.359
    53   1 H        0.926     0.047     2.354     2.399
    54   1 H        0.926     0.056     2.250     2.346
    55   1 H        0.924     0.052     2.294     2.368
    56   1 H        0.924     0.055     2.260     2.351
    57   1 H        0.925     0.080     1.979     2.200
    58   1 H        0.925     0.080     1.984     2.203
    59   1 H        0.924     0.049     2.336     2.390
    60   1 H        0.924     0.053     2.283     2.363
    61   1 H        0.926     0.049     2.330     2.387
    62   1 H        0.925     0.054     2.273     2.358
    63   1 H        0.923     0.029     2.596     2.520
    64   1 H        0.925     0.057     2.231     2.336
    65   1 H        0.925     0.056     2.243     2.342
    66   1 H        0.925     0.046     2.368     2.407
    67   1 H        0.925     0.056     2.242     2.341
    68   1 H        0.925     0.055     2.257     2.350
    69   1 H        0.924     0.075     2.029     2.227
    70   1 H        0.923     0.022     2.703     2.571
    71   1 H        0.924     0.067     2.124     2.279
    72   1 H        0.860     0.186     1.182     1.703

 Mol. C6AA /au·bohr⁶  :      47193.644734
 Mol. C8AA /au·bohr⁸  :    1073549.970440
 Mol. α(0) /au        :        332.543975


Wiberg/Mayer (AO) data.
largest (>0.10) Wiberg bond orders for each atom

 ---------------------------------------------------------------------------
     #   Z sym  total        # sym  WBO       # sym  WBO       # sym  WBO
 ---------------------------------------------------------------------------
     1   7 N    3.386 --     2 C    1.391    33 C    0.994    72 H    0.937
     2   6 C    3.500 --     1 N    1.391     3 C    1.029    47 H    0.955
     3   6 C    3.984 --     2 C    1.029     4 C    0.982    31 C    0.941
                            14 C    0.931
     4   6 C    3.949 --    13 C    1.424     5 C    1.365     3 C    0.982
     5   6 C    3.965 --     6 C    1.406     4 C    1.365    34 H    0.959
     6   6 C    3.911 --     5 C    1.406     9 C    1.224     7 O    1.097
     7   8 O    2.256 --     6 C    1.097     8 C    0.979
     8   6 C    3.934 --     7 O    0.979    36 H    0.977    37 H    0.974
                            35 H    0.974
     9   6 C    3.909 --    12 C    1.395     6 C    1.224    10 O    1.102
    10   8 O    2.258 --     9 C    1.102    11 C    0.978
    11   6 C    3.932 --    10 O    0.978    39 H    0.977    40 H    0.974
                            38 H    0.974
    12   6 C    3.966 --    13 C    1.404     9 C    1.395    41 H    0.964
    13   6 C    3.961 --     4 C    1.424    12 C    1.404    42 H    0.964
    14   6 C    3.960 --    15 C    1.010    44 H    0.974    43 H    0.966
                             3 C    0.931
    15   6 C    3.988 --    14 C    1.010    16 C    1.001    46 H    0.970
                            45 H    0.966
    16   6 C    3.972 --    17 N    1.010    15 C    1.001    48 H    0.969
                            70 H    0.937
    17   7 N    3.109 --    30 C    1.016    16 C    1.010    18 C    1.003
    18   6 C    3.969 --    17 N    1.003    19 C    0.972    50 H    0.972
                            49 H    0.962
    19   6 C    3.980 --    20 C    1.014    18 C    0.972    51 H    0.969
                            52 H    0.969
    20   6 C    3.937 --    21 C    1.398    29 C    1.384    19 C    1.014
    21   6 C    3.939 --    22 C    1.422    20 C    1.398    53 H    0.968
    22   6 C    3.957 --    21 C    1.422    23 C    1.380    54 H    0.963
    23   6 C    3.884 --    22 C    1.380    26 C    1.221    24 O    1.104
    24   8 O    2.244 --    23 C    1.104    25 C    0.978
    25   6 C    3.930 --    24 O    0.978    57 H    0.977    55 H    0.973
                            56 H    0.972
    26   6 C    3.890 --    29 C    1.392    23 C    1.221    27 O    1.100
    27   8 O    2.246 --    26 C    1.100    28 C    0.979
    28   6 C    3.933 --    27 O    0.979    58 H    0.977    60 H    0.973
                            59 H    0.973
    29   6 C    3.957 --    26 C    1.392    20 C    1.384    61 H    0.962
    30   6 C    3.974 --    17 N    1.016    64 H    0.979    62 H    0.975
                            63 H    0.968
    31   6 C    3.977 --    32 C    1.013    33 C    0.989    65 H    0.967
                             3 C    0.941
    32   6 C    3.990 --    31 C    1.013    66 H    0.986    68 H    0.982
                            67 H    0.980
    33   6 C    3.957 --     1 N    0.994    31 C    0.989    69 H    0.963
                            71 H    0.955
    34   1 H    0.996 --     5 C    0.959
    35   1 H    0.994 --     8 C    0.974
    36   1 H    0.993 --     8 C    0.977
    37   1 H    0.994 --     8 C    0.974
    38   1 H    0.994 --    11 C    0.974
    39   1 H    0.993 --    11 C    0.977
    40   1 H    0.994 --    11 C    0.974
    41   1 H    0.996 --    12 C    0.964
    42   1 H    0.998 --    13 C    0.964
    43   1 H    0.993 --    14 C    0.966
    44   1 H    0.997 --    14 C    0.974
    45   1 H    0.996 --    15 C    0.966
    46   1 H    0.993 --    15 C    0.970
    47   1 H    0.995 --     2 C    0.955
    48   1 H    0.996 --    16 C    0.969
    49   1 H    0.986 --    18 C    0.962
    50   1 H    0.997 --    18 C    0.972
    51   1 H    0.994 --    19 C    0.969
    52   1 H    0.996 --    19 C    0.969
    53   1 H    0.997 --    21 C    0.968
    54   1 H    0.995 --    22 C    0.963
    55   1 H    0.991 --    25 C    0.973
    56   1 H    0.991 --    25 C    0.972
    57   1 H    0.993 --    25 C    0.977
    58   1 H    0.993 --    28 C    0.977
    59   1 H    0.993 --    28 C    0.973
    60   1 H    0.992 --    28 C    0.973
    61   1 H    0.996 --    29 C    0.962
    62   1 H    0.992 --    30 C    0.975
    63   1 H    0.984 --    30 C    0.968
    64   1 H    0.996 --    30 C    0.979
    65   1 H    0.996 --    31 C    0.967
    66   1 H    0.998 --    32 C    0.986
    67   1 H    0.996 --    32 C    0.980
    68   1 H    0.996 --    32 C    0.982
    69   1 H    0.989 --    33 C    0.963
    70   1 H    0.983 --    16 C    0.937
    71   1 H    0.984 --    33 C    0.955
    72   1 H    0.965 --     1 N    0.937
 ---------------------------------------------------------------------------

Topologies differ in total number of bonds
Writing topology from bond orders to xtbtopo.mol

molecular dipole:
                 x           y           z       tot (Debye)
 q only:       -1.121       2.111       0.699
   full:       -0.997       2.417       1.106       7.216
molecular quadrupole (traceless):
                xx          xy          yy          xz          yz          zz
 q only:       49.450     -11.700      -5.035      -5.072       2.320     -44.414
  q+dip:       40.380     -11.290      -0.166      -5.630       2.262     -40.214
   full:       41.274     -12.073      -0.940      -7.904       3.006     -40.335

           -------------------------------------------------
          |                Geometry Summary                 |
           -------------------------------------------------

      molecular mass/u    :      455.6105846
   center of mass at/Å    :       -0.0379439       0.0362304      -0.0107971
  moments of inertia/u·Å² :        0.2487725E+04   0.1177827E+05   0.1308077E+05
rotational constants/cm⁻¹ :        0.6776324E-02   0.1431249E-02   0.1288734E-02

 * 70 selected distances

     #   Z          #   Z                                           value/Å
     1   7 N        2   6 C                                       1.3290031
     2   6 C        3   6 C                                       1.4913248
     4   6 C        5   6 C                                       1.3972129
     5   6 C        6   6 C                                       1.3840009
     6   6 C        7   8 O                                       1.3498824
     7   8 O        8   6 C                                       1.4073700
     6   6 C        9   6 C                                       1.4204704
     9   6 C       10   8 O                                       1.3478983
    10   8 O       11   6 C                                       1.4089018
     9   6 C       12   6 C                                       1.3847315
     4   6 C       13   6 C                                       1.3842921
    12   6 C       13   6 C                                       1.3885048
    14   6 C       15   6 C                                       1.5258153
    15   6 C       16   6 C                                       1.5268332
    16   6 C       17   7 N                                       1.4398609
    17   7 N       18   6 C                                       1.4474312
    18   6 C       19   6 C                                       1.5391807 (max)
    20   6 C       21   6 C                                       1.3869076
    21   6 C       22   6 C                                       1.3855843
    22   6 C       23   6 C                                       1.3880278
    23   6 C       24   8 O                                       1.3482994
    24   8 O       25   6 C                                       1.4079518
    23   6 C       26   6 C                                       1.4216384
    26   6 C       27   8 O                                       1.3493296
    27   8 O       28   6 C                                       1.4074209
    20   6 C       29   6 C                                       1.3919250
    26   6 C       29   6 C                                       1.3861121
    17   7 N       30   6 C                                       1.4440037
    31   6 C       32   6 C                                       1.5248835
     1   7 N       33   6 C                                       1.4415570
    31   6 C       33   6 C                                       1.5381467
     5   6 C       34   1 H                                       1.0769683
     8   6 C       35   1 H                                       1.0946509
     8   6 C       36   1 H                                       1.0881964
     8   6 C       37   1 H                                       1.0947752
    11   6 C       38   1 H                                       1.0942604
    11   6 C       39   1 H                                       1.0881335
    11   6 C       40   1 H                                       1.0944701
    12   6 C       41   1 H                                       1.0777313
    13   6 C       42   1 H                                       1.0775849
    14   6 C       43   1 H                                       1.0893286
    14   6 C       44   1 H                                       1.0913145
    15   6 C       45   1 H                                       1.0885092
    15   6 C       46   1 H                                       1.0908640
     2   6 C       47   1 H                                       1.0713920
    16   6 C       48   1 H                                       1.0935991
    18   6 C       49   1 H                                       1.0999052
    18   6 C       50   1 H                                       1.0915392
    19   6 C       51   1 H                                       1.0901695
    19   6 C       52   1 H                                       1.0897099
    21   6 C       53   1 H                                       1.0793181
    22   6 C       54   1 H                                       1.0777597
    25   6 C       55   1 H                                       1.0946941
    25   6 C       56   1 H                                       1.0941855
    25   6 C       57   1 H                                       1.0883794
    28   6 C       58   1 H                                       1.0883286
    28   6 C       59   1 H                                       1.0947967
    28   6 C       60   1 H                                       1.0945131
    29   6 C       61   1 H                                       1.0787557
    30   6 C       62   1 H                                       1.0888593
    30   6 C       63   1 H                                       1.0995723
    30   6 C       64   1 H                                       1.0865771
    31   6 C       65   1 H                                       1.0897886
    32   6 C       66   1 H                                       1.0875226
    32   6 C       67   1 H                                       1.0858894
    32   6 C       68   1 H                                       1.0870243
    33   6 C       69   1 H                                       1.0910656
    16   6 C       70   1 H                                       1.1035741
    33   6 C       71   1 H                                       1.0959264
     1   7 N       72   1 H                                       1.0070985 (min)

 * 5 distinct bonds (by element types)

   Z      Z             #   av. dist./Å        max./Å        min./Å
   1 H    6 C          38     1.0892009     1.1035741     1.0713920
   6 C    6 C          18     1.4369773     1.5391807     1.3840009
   1 H    7 N           1     1.0070985     1.0070985     1.0070985
   6 C    7 N           5     1.4203712     1.4474312     1.3290031
   6 C    8 O           8     1.3783818     1.4089018     1.3478983


optimized geometry written to: xtbopt.xyz


           -------------------------------------------------
          | TOTAL ENERGY              -99.438304731934 Eh   |
          | GRADIENT NORM               0.003883519381 Eh/α |
          | HOMO-LUMO GAP               1.425119369657 eV   |
           -------------------------------------------------

------------------------------------------------------------------------
 * finished run on 2024/04/06 at 11:15:07.433     
------------------------------------------------------------------------
 total:
 * wall-time:     0 d,  0 h,  0 min,  0.607 sec
 *  cpu-time:     0 d,  0 h,  0 min,  0.583 sec
 * ratio c/w:     0.960 speedup
 SCF:
 * wall-time:     0 d,  0 h,  0 min,  0.118 sec
 *  cpu-time:     0 d,  0 h,  0 min,  0.118 sec
 * ratio c/w:     0.999 speedup
 ANC optimizer:
 * wall-time:     0 d,  0 h,  0 min,  0.445 sec
 *  cpu-time:     0 d,  0 h,  0 min,  0.439 sec
 * ratio c/w:     0.987 speedup

