      -----------------------------------------------------------      
     |                   =====================                   |     
     |                           x T B                           |     
     |                   =====================                   |     
     |                         S. Grimme                         |     
     |          Mulliken Center for Theoretical Chemistry        |     
     |                    University of Bonn                     |     
      -----------------------------------------------------------      

   * xtb version 6.6.1 (8d0f1dd) compiled by 'conda@1efc2f54142f' on 2023-08-01

   xtb is free software: you can redistribute it and/or modify it under
   the terms of the GNU Lesser General Public License as published by
   the Free Software Foundation, either version 3 of the License, or
   (at your option) any later version.
   
   xtb is distributed in the hope that it will be useful,
   but WITHOUT ANY WARRANTY; without even the implied warranty of
   MERCHANTABILITY or FITNESS FOR A PARTICULAR PURPOSE.  See the
   GNU Lesser General Public License for more details.
   
   Cite this work as:
   * C. Bannwarth, E. Caldeweyher, S. Ehlert, A. Hansen, P. Pracht,
     J. Seibert, S. Spicher, S. Grimme, WIREs Comput. Mol. Sci., 2020, 11,
     e01493. DOI: 10.1002/wcms.1493
   
   for GFN2-xTB:
   * C. Bannwarth, S. Ehlert and S. Grimme., J. Chem. Theory Comput., 2019,
     15, 1652-1671. DOI: 10.1021/acs.jctc.8b01176
   for GFN1-xTB:
   * S. Grimme, C. Bannwarth, P. Shushkov, J. Chem. Theory Comput., 2017,
     13, 1989-2009. DOI: 10.1021/acs.jctc.7b00118
   for GFN0-xTB:
   * P. Pracht, E. Caldeweyher, S. Ehlert, S. Grimme, ChemRxiv, 2019, preprint.
     DOI: 10.26434/chemrxiv.8326202.v1
   for GFN-FF:
   * S. Spicher and S. Grimme, Angew. Chem. Int. Ed., 2020, 59, 15665-15673.
     DOI: 10.1002/anie.202004239
   
   for ALPB and GBSA implicit solvation:
   * S. Ehlert, M. Stahn, S. Spicher, S. Grimme, J. Chem. Theory Comput.,
     2021, 17, 4250-4261. DOI: 10.1021/acs.jctc.1c00471
   
   for DFT-D4:
   * E. Caldeweyher, C. Bannwarth and S. Grimme, J. Chem. Phys., 2017,
     147, 034112. DOI: 10.1063/1.4993215
   * E. Caldeweyher, S. Ehlert, A. Hansen, H. Neugebauer, S. Spicher,
     C. Bannwarth and S. Grimme, J. Chem. Phys., 2019, 150, 154122.
     DOI: 10.1063/1.5090222
   * E. Caldeweyher, J.-M. Mewes, S. Ehlert and S. Grimme, Phys. Chem. Chem. Phys.
     2020, 22, 8499-8512. DOI: 10.1039/D0CP00502A
   
   for sTDA-xTB:
   * S. Grimme and C. Bannwarth, J. Chem. Phys., 2016, 145, 054103.
     DOI: 10.1063/1.4959605
   
   in the mass-spec context:
   * V. Asgeirsson, C. Bauer and S. Grimme, Chem. Sci., 2017, 8, 4879.
     DOI: 10.1039/c7sc00601b
   * J. Koopman and S. Grimme, ACS Omega 2019, 4, 12, 15120-15133.
     DOI: 10.1021/acsomega.9b02011
   
   for metadynamics refer to:
   * S. Grimme, J. Chem. Theory Comput., 2019, 155, 2847-2862
     DOI: 10.1021/acs.jctc.9b00143
   
   for SPH calculations refer to:
   * S. Spicher and S. Grimme, J. Chem. Theory Comput., 2021, 17, 1701-1714
     DOI: 10.1021/acs.jctc.0c01306
   
   with help from (in alphabetical order)
   P. Atkinson, C. Bannwarth, F. Bohle, G. Brandenburg, E. Caldeweyher
   M. Checinski, S. Dohm, S. Ehlert, S. Ehrlich, I. Gerasimov, C. Hölzer
   A. Katbashev, J. Koopman, C. Lavigne, S. Lehtola, F. März, M. Müller,
   F. Musil, H. Neugebauer, J. Pisarek, C. Plett, P. Pracht, F. Pultar,
   J. Seibert, P. Shushkov, S. Spicher, M. Stahn, M. Steiner, T. Strunk,
   J. Stückrath, T. Rose, and J. Unsleber
   
 * started run on 2024/04/06 at 11:12:10.481     

           -------------------------------------------------
          |                Calculation Setup                |
           -------------------------------------------------

          program call               : xtb struc.xyz --opt loose --input .xc1 --gfn2
          hostname                   : n-62-30-23
          coordinate file            : struc.xyz
          omp threads                :                     1

   ID    Z sym.   atoms
    1    7 N      1, 17
    2    6 C      2-6, 8, 9, 11-16, 18-23, 25, 26, 28-33
    3    8 O      7, 10, 24, 27
    4    1 H      34-72
constraining bond 4 34 to    4.1400000 Å, actual value:    2.1431065 Å

           -------------------------------------------------
          |                 G F N 2 - x T B                 |
           -------------------------------------------------

        Reference                      10.1021/acs.jctc.8b01176
      * Hamiltonian:
        H0-scaling (s, p, d)           1.850000    2.230000    2.230000
        zeta-weighting                 0.500000
      * Dispersion:
        s8                             2.700000
        a1                             0.520000
        a2                             5.000000
        s9                             5.000000
      * Repulsion:
        kExp                           1.500000    1.000000
        rExp                           1.000000
      * Coulomb:
        alpha                          2.000000
        third order                    shell-resolved
        anisotropic                    true
        a3                             3.000000
        a5                             4.000000
        cn-shift                       1.200000
        cn-exp                         4.000000
        max-rad                        5.000000


          ...................................................
          :                      SETUP                      :
          :.................................................:
          :  # basis functions                 171          :
          :  # atomic orbitals                 171          :
          :  # shells                          105          :
          :  # electrons                       180          :
          :  max. iterations                   250          :
          :  Hamiltonian                  GFN2-xTB          :
          :  restarted?                      false          :
          :  GBSA solvation                  false          :
          :  PC potential                    false          :
          :  electronic temp.         5000.0000000     K    :
          :  accuracy                    1.0000000          :
          :  -> integral cutoff          0.2500000E+02      :
          :  -> integral neglect         0.1000000E-07      :
          :  -> SCF convergence          0.1000000E-05 Eh   :
          :  -> wf. convergence          0.1000000E-03 e    :
          :  Broyden damping             0.4000000          :
          ...................................................

 iter      E             dE          RMSdq      gap      omega  full diag
   1   -100.5973919 -0.100597E+03  0.374E+00    3.20       0.0  T
   2   -100.7362642 -0.138872E+00  0.221E+00    1.08       1.0  T
   3   -100.7049001  0.313641E-01  0.141E+00    3.29       1.0  T
   4   -100.7721690 -0.672689E-01  0.526E-01    1.50       1.0  T
   5   -100.7894292 -0.172602E-01  0.190E-01    1.98       1.0  T
   6   -100.7911978 -0.176856E-02  0.792E-02    1.77       1.0  T
   7   -100.7914750 -0.277198E-03  0.375E-02    1.83       1.0  T
   8   -100.7914914 -0.164582E-04  0.140E-02    1.83       1.0  T
   9   -100.7914976 -0.616739E-05  0.474E-03    1.82       2.5  T
  10   -100.7914988 -0.118227E-05  0.172E-03    1.82       6.8  T
  11   -100.7914989 -0.139928E-06  0.766E-04    1.82      15.4  T
  12   -100.7914989 -0.773143E-08  0.318E-04    1.82      37.0  T

   *** convergence criteria satisfied after 12 iterations ***

         #    Occupation            Energy/Eh            Energy/eV
      -------------------------------------------------------------
         1        2.0000           -0.8078051             -21.9815
       ...           ...                  ...                  ...
        84        1.9966           -0.5157491             -14.0342
        85        1.9959           -0.5128261             -13.9547
        86        1.9840           -0.4911498             -13.3649
        87        1.9795           -0.4872543             -13.2589
        88        1.9640           -0.4782114             -13.0128
        89        1.8920           -0.4602041             -12.5228
        90        1.8557           -0.4553147             -12.3897 (HOMO)
        91        0.3166           -0.3884132             -10.5693 (LUMO)
        92        0.0218           -0.3434697              -9.3463
        93        0.0041           -0.3169887              -8.6257
        94        0.0034           -0.3139726              -8.5436
        95        0.0029           -0.3112618              -8.4699
       ...           ...                  ...                  ...
       171                          0.5822580              15.8440
      -------------------------------------------------------------
                  HL-Gap            0.0669015 Eh            1.8205 eV
             Fermi-level           -0.4148687 Eh          -11.2892 eV

 SCC (total)                   0 d,  0 h,  0 min,  0.191 sec
 SCC setup                      ...        0 min,  0.001 sec (  0.543%)
 Dispersion                     ...        0 min,  0.002 sec (  0.911%)
 classical contributions        ...        0 min,  0.000 sec (  0.231%)
 integral evaluation            ...        0 min,  0.018 sec (  9.587%)
 iterations                     ...        0 min,  0.099 sec ( 51.968%)
 molecular gradient             ...        0 min,  0.069 sec ( 36.421%)
 printout                       ...        0 min,  0.001 sec (  0.330%)

         :::::::::::::::::::::::::::::::::::::::::::::::::::::
         ::                     SUMMARY                     ::
         :::::::::::::::::::::::::::::::::::::::::::::::::::::
         :: total energy             -98.692135078825 Eh    ::
         :: gradient norm              0.533192217273 Eh/a0 ::
         :: HOMO-LUMO gap              1.820481192090 eV    ::
         ::.................................................::
         :: SCC energy              -100.791498925389 Eh    ::
         :: -> isotropic ES            0.109302908418 Eh    ::
         :: -> anisotropic ES          0.005415138735 Eh    ::
         :: -> anisotropic XC          0.042392697176 Eh    ::
         :: -> dispersion             -0.075527661009 Eh    ::
         :: repulsion energy           1.386151658689 Eh    ::
         :: add. restraining           0.711995835369 Eh    ::
         :: total charge               1.000000000108 e     ::
         :::::::::::::::::::::::::::::::::::::::::::::::::::::

      ----------------------------------------------------------- 
     |                   =====================                   |
     |                        A N C O P T                        |
     |                   =====================                   |
     |               Approximate Normal Coordinate               |
     |                Rational Function Optimizer                |
      ----------------------------------------------------------- 

          ...................................................
          :                      SETUP                      :
          :.................................................:
          :   optimization level             loose          :
          :   max. optcycles                   200          :
          :   ANC micro-cycles                  20          :
          :   degrees of freedom               210          :
          :.................................................:
          :   RF solver                   davidson          :
          :   write xtbopt.log                true          :
          :   linear?                        false          :
          :   energy convergence         0.5000000E-04 Eh   :
          :   grad. convergence          0.4000000E-02 Eh/α :
          :   maxmium RF displ.          1.0000000          :
          :   Hlow (freq-cutoff)         0.1000000E-01      :
          :   Hmax (freq-cutoff)         5.0000000          :
          :   S6 in model hess.         20.0000000          :
          ...................................................

generating ANC from model Hessian ...
Using Lindh-Hessian (1995)
 Shifting diagonal of input Hessian by   0.13739814982059576     
 Lowest  eigenvalues of input Hessian
    0.010000    0.121612    0.000000    0.000000    0.000000    0.000000
    0.000000    0.000000    0.137500    0.137541    0.137674    0.137899
    0.137939    0.138154    0.138207    0.138494    0.138788    0.139220
 Highest eigenvalues
    2.163362    2.178979    2.180411    2.307002    2.311897    2.314711


........................................................................
.............................. CYCLE    1 ..............................
........................................................................

 iter      E             dE          RMSdq      gap      omega  full diag
   1   -100.7914989 -0.100791E+03  0.114E-04    1.82       0.0  T
   2   -100.7914989 -0.678995E-10  0.713E-05    1.82     165.2  T
   3   -100.7914989  0.665210E-10  0.496E-05    1.82     237.5  T
     SCC iter.                  ...        0 min,  0.026 sec
     gradient                   ...        0 min,  0.069 sec
 * total energy  :   -98.6921351 Eh     change       -0.4035485E-08 Eh
   gradient norm :     0.5331906 Eh/α   predicted     0.0000000E+00 (-100.00%)
   displ. norm   :     0.5405190 α      lambda       -0.2622730E+00
   maximum displ.:     0.2064130 α      in ANC's #154, #113, #148, ...

........................................................................
.............................. CYCLE    2 ..............................
........................................................................

 iter      E             dE          RMSdq      gap      omega  full diag
   1   -100.7426194 -0.100743E+03  0.340E-01    1.74       0.0  T
   2   -100.7428466 -0.227211E-03  0.226E-01    1.83       1.0  T
   3   -100.7416641  0.118251E-02  0.130E-01    1.68       1.0  T
   4   -100.7430541 -0.138997E-02  0.410E-02    1.83       1.0  T
   5   -100.7432199 -0.165835E-03  0.122E-02    1.78       1.0  T
   6   -100.7432251 -0.520473E-05  0.580E-03    1.79       2.0  T
   7   -100.7432257 -0.603299E-06  0.198E-03    1.79       6.0  T
   8   -100.7432258 -0.104896E-06  0.724E-04    1.79      16.3  T
   9   -100.7432258 -0.185025E-07  0.323E-04    1.79      36.5  T
     SCC iter.                  ...        0 min,  0.074 sec
     gradient                   ...        0 min,  0.069 sec
 * total energy  :   -98.9010372 Eh     change       -0.2089021E+00 Eh
   gradient norm :     0.3092777 Eh/α   predicted    -0.1694541E+00 ( -18.88%)
   displ. norm   :     0.6210335 α      lambda       -0.1753822E+00
   maximum displ.:     0.2619474 α      in ANC's #113, #135, #154, ...

........................................................................
.............................. CYCLE    3 ..............................
........................................................................

 iter      E             dE          RMSdq      gap      omega  full diag
   1   -100.6674017 -0.100667E+03  0.290E-01    1.71       0.0  T
   2   -100.6673289  0.728093E-04  0.216E-01    1.81       1.0  T
   3   -100.6669723  0.356589E-03  0.134E-01    1.70       1.0  T
   4   -100.6681501 -0.117778E-02  0.311E-02    1.77       1.0  T
   5   -100.6682083 -0.581567E-04  0.111E-02    1.75       1.1  T
   6   -100.6682115 -0.320406E-05  0.713E-03    1.76       1.7  T
   7   -100.6682136 -0.209401E-05  0.316E-03    1.76       3.7  T
   8   -100.6682140 -0.431336E-06  0.959E-04    1.76      12.3  T
   9   -100.6682140 -0.397311E-07  0.421E-04    1.76      28.0  T
     SCC iter.                  ...        0 min,  0.074 sec
     gradient                   ...        0 min,  0.069 sec
 * total energy  :   -99.0348663 Eh     change       -0.1338291E+00 Eh
   gradient norm :     0.1666905 Eh/α   predicted    -0.1215123E+00 (  -9.20%)
   displ. norm   :     0.5840962 α      lambda       -0.9007581E-01
   maximum displ.:     0.2642369 α      in ANC's #113, #135, #2, ...

........................................................................
.............................. CYCLE    4 ..............................
........................................................................

 iter      E             dE          RMSdq      gap      omega  full diag
   1   -100.5933100 -0.100593E+03  0.213E-01    1.71       0.0  T
   2   -100.5915006  0.180940E-02  0.252E-01    1.79       1.0  T
   3   -100.5954548 -0.395419E-02  0.104E-01    1.75       1.0  T
   4   -100.5952999  0.154979E-03  0.527E-02    1.71       1.0  T
   5   -100.5954329 -0.133051E-03  0.223E-02    1.77       1.0  T
   6   -100.5954763 -0.433949E-04  0.833E-03    1.74       1.4  T
   7   -100.5954786 -0.231669E-05  0.435E-03    1.74       2.7  T
   8   -100.5954791 -0.458653E-06  0.178E-03    1.74       6.6  T
   9   -100.5954792 -0.878595E-07  0.850E-04    1.74      13.9  T
  10   -100.5954792 -0.466908E-07  0.244E-04    1.74      48.4  T
     SCC iter.                  ...        0 min,  0.082 sec
     gradient                   ...        0 min,  0.069 sec
 * total energy  :   -99.0998544 Eh     change       -0.6498815E-01 Eh
   gradient norm :     0.0859957 Eh/α   predicted    -0.6040415E-01 (  -7.05%)
   displ. norm   :     0.4597936 α      lambda       -0.3446132E-01
   maximum displ.:     0.2107861 α      in ANC's #113, #120, #135, ...

........................................................................
.............................. CYCLE    5 ..............................
........................................................................

 iter      E             dE          RMSdq      gap      omega  full diag
   1   -100.5452996 -0.100545E+03  0.205E-01    1.73       0.0  T
   2   -100.5413764  0.392318E-02  0.274E-01    1.77       1.0  T
   3   -100.5480120 -0.663552E-02  0.856E-02    1.76       1.0  T
   4   -100.5476661  0.345882E-03  0.737E-02    1.70       1.0  T
   5   -100.5480112 -0.345108E-03  0.337E-02    1.78       1.0  T
   6   -100.5481127 -0.101457E-03  0.907E-03    1.74       1.3  T
   7   -100.5481155 -0.281407E-05  0.569E-03    1.75       2.1  T
   8   -100.5481169 -0.146324E-05  0.232E-03    1.74       5.1  T
   9   -100.5481171 -0.163676E-06  0.909E-04    1.74      13.0  T
  10   -100.5481171 -0.289455E-07  0.296E-04    1.74      39.8  T
     SCC iter.                  ...        0 min,  0.082 sec
     gradient                   ...        0 min,  0.070 sec
 * total energy  :   -99.1246131 Eh     change       -0.2475872E-01 Eh
   gradient norm :     0.0643538 Eh/α   predicted    -0.2087340E-01 ( -15.69%)
   displ. norm   :     0.4259027 α      lambda       -0.1761710E-01
   maximum displ.:     0.1773585 α      in ANC's #113, #120, #135, ...

........................................................................
.............................. CYCLE    6 ..............................
........................................................................

 iter      E             dE          RMSdq      gap      omega  full diag
   1   -100.5205713 -0.100521E+03  0.160E-01    1.75       0.0  T
   2   -100.5186373  0.193403E-02  0.170E-01    1.73       1.0  T
   3   -100.5207519 -0.211461E-02  0.929E-02    1.77       1.0  T
   4   -100.5211686 -0.416704E-03  0.394E-02    1.72       1.0  T
   5   -100.5212935 -0.124853E-03  0.138E-02    1.75       1.0  T
   6   -100.5213038 -0.103943E-04  0.653E-03    1.74       1.8  T
   7   -100.5213049 -0.103140E-05  0.485E-03    1.75       2.4  T
   8   -100.5213060 -0.115907E-05  0.227E-03    1.74       5.2  T
   9   -100.5213063 -0.241337E-06  0.670E-04    1.75      17.6  T
  10   -100.5213063 -0.170871E-07  0.358E-04    1.75      32.9  T
     SCC iter.                  ...        0 min,  0.081 sec
     gradient                   ...        0 min,  0.069 sec
 * total energy  :   -99.1384482 Eh     change       -0.1383504E-01 Eh
   gradient norm :     0.0746931 Eh/α   predicted    -0.1040638E-01 ( -24.78%)
   displ. norm   :     0.5410675 α      lambda       -0.1827099E-01
   maximum displ.:     0.1982832 α      in ANC's #113, #120, #21, ...

........................................................................
.............................. CYCLE    7 ..............................
........................................................................

 iter      E             dE          RMSdq      gap      omega  full diag
   1   -100.5017264 -0.100502E+03  0.304E-01    1.62       0.0  T
   2   -100.4969978  0.472866E-02  0.300E-01    1.39       1.0  T
   3   -100.5037190 -0.672120E-02  0.162E-01    1.80       1.0  T
   4   -100.5051924 -0.147346E-02  0.110E-01    1.61       1.0  T
   5   -100.5055907 -0.398258E-03  0.701E-02    1.70       1.0  T
   6   -100.5062150 -0.624288E-03  0.147E-02    1.67       1.0  T
   7   -100.5062384 -0.233988E-04  0.483E-03    1.68       2.4  T
   8   -100.5062386 -0.199678E-06  0.276E-03    1.68       4.3  T
   9   -100.5062389 -0.361884E-06  0.101E-03    1.68      11.7  T
  10   -100.5062390 -0.340838E-07  0.471E-04    1.68      25.0  T
  11   -100.5062390 -0.707949E-08  0.228E-04    1.68      51.7  T
     SCC iter.                  ...        0 min,  0.089 sec
     gradient                   ...        0 min,  0.069 sec
 * total energy  :   -99.1539242 Eh     change       -0.1547604E-01 Eh
   gradient norm :     0.0956768 Eh/α   predicted    -0.1181013E-01 ( -23.69%)
   displ. norm   :     0.6631600 α      lambda       -0.2389403E-01
   maximum displ.:     0.2097723 α      in ANC's #113, #21, #25, ...

........................................................................
.............................. CYCLE    8 ..............................
........................................................................

 iter      E             dE          RMSdq      gap      omega  full diag
   1   -100.4896479 -0.100490E+03  0.512E-01    1.02       0.0  T
   2   -100.4615801  0.280679E-01  0.705E-01    1.06       1.0  T
   3   -100.5045420 -0.429619E-01  0.180E-01    1.17       1.0  T
   4   -100.5042541  0.287932E-03  0.156E-01    1.13       1.0  T
   5   -100.5034221  0.831928E-03  0.147E-01    1.19       1.0  T
   6   -100.5066262 -0.320402E-02  0.187E-02    1.16       1.0  T
   7   -100.5066581 -0.318919E-04  0.703E-03    1.16       1.7  T
   8   -100.5066625 -0.445622E-05  0.331E-03    1.16       3.6  T
   9   -100.5066629 -0.390618E-06  0.181E-03    1.16       6.5  T
  10   -100.5066630 -0.103772E-06  0.892E-04    1.16      13.2  T
  11   -100.5066631 -0.500938E-07  0.323E-04    1.16      36.4  T
     SCC iter.                  ...        0 min,  0.090 sec
     gradient                   ...        0 min,  0.069 sec
 * total energy  :   -99.1746264 Eh     change       -0.2070220E-01 Eh
   gradient norm :     0.1142770 Eh/α   predicted    -0.1720117E-01 ( -16.91%)
   displ. norm   :     0.6447034 α      lambda       -0.3164100E-01
   maximum displ.:     0.1770958 α      in ANC's #21, #18, #25, ...

........................................................................
.............................. CYCLE    9 ..............................
........................................................................

 iter      E             dE          RMSdq      gap      omega  full diag
   1   -100.5092583 -0.100509E+03  0.565E-01    0.65       0.0  T
   2   -100.4562281  0.530301E-01  0.909E-01    1.20       1.0  T
   3   -100.5257666 -0.695385E-01  0.195E-01    0.70       1.0  T
   4   -100.5187845  0.698209E-02  0.262E-01    0.75       1.0  T
   5   -100.5249186 -0.613405E-02  0.158E-01    0.70       1.0  T
   6   -100.5280661 -0.314756E-02  0.170E-02    0.72       1.0  T
   7   -100.5280695 -0.338510E-05  0.121E-02    0.72       1.0  T
   8   -100.5280870 -0.175051E-04  0.495E-03    0.72       2.4  T
   9   -100.5280881 -0.105073E-05  0.200E-03    0.72       5.9  T
  10   -100.5280883 -0.192690E-06  0.782E-04    0.72      15.1  T
  11   -100.5280883 -0.200655E-07  0.388E-04    0.72      30.4  T
     SCC iter.                  ...        0 min,  0.089 sec
     gradient                   ...        0 min,  0.070 sec
 * total energy  :   -99.2011443 Eh     change       -0.2651791E-01 Eh
   gradient norm :     0.1028668 Eh/α   predicted    -0.2239619E-01 ( -15.54%)
   displ. norm   :     0.5373834 α      lambda       -0.3506453E-01
   maximum displ.:     0.1493138 α      in ANC's #196, #207, #50, ...

........................................................................
.............................. CYCLE   10 ..............................
........................................................................

 iter      E             dE          RMSdq      gap      omega  full diag
   1   -100.5506009 -0.100551E+03  0.638E-01    0.59       0.0  T
   2   -100.4407162  0.109885E+00  0.117E+00    1.24       1.0  T
   3   -100.5719230 -0.131207E+00  0.245E-01    0.44       1.0  T
   4   -100.5648609  0.706208E-02  0.309E-01    0.43       1.0  T
   5   -100.5748624 -0.100015E-01  0.933E-02    0.44       1.0  T
   6   -100.5757679 -0.905482E-03  0.232E-02    0.44       1.0  T
   7   -100.5757929 -0.249399E-04  0.152E-02    0.44       1.0  T
   8   -100.5758184 -0.255163E-04  0.594E-03    0.45       2.0  T
   9   -100.5758198 -0.141834E-05  0.211E-03    0.44       5.6  T
  10   -100.5758201 -0.310831E-06  0.693E-04    0.44      17.0  T
  11   -100.5758201 -0.227228E-07  0.389E-04    0.44      30.3  T
     SCC iter.                  ...        0 min,  0.089 sec
     gradient                   ...        0 min,  0.069 sec
 * total energy  :   -99.2166432 Eh     change       -0.1549884E-01 Eh
   gradient norm :     0.1065274 Eh/α   predicted    -0.2259539E-01 (  45.79%)
   displ. norm   :     0.2464233 α      lambda       -0.1159161E-01
   maximum displ.:     0.2066495 α      in ANC's #1, #198, #148, ...

........................................................................
.............................. CYCLE   11 ..............................
........................................................................

 iter      E             dE          RMSdq      gap      omega  full diag
   1   -100.5730533 -0.100573E+03  0.162E-01    0.45       0.0  T
   2   -100.5671594  0.589391E-02  0.257E-01    0.44       1.0  T
   3   -100.5731892 -0.602976E-02  0.998E-02    0.45       1.0  T
   4   -100.5722309  0.958290E-03  0.115E-01    0.44       1.0  T
   5   -100.5737825 -0.155166E-02  0.146E-02    0.44       1.0  T
   6   -100.5738042 -0.216497E-04  0.418E-03    0.44       2.8  T
   7   -100.5738052 -0.102569E-05  0.206E-03    0.44       5.7  T
   8   -100.5738052  0.304053E-07  0.140E-03    0.44       8.4  T
   9   -100.5738053 -0.162667E-06  0.363E-04    0.44      32.4  T
  10   -100.5738053 -0.100098E-07  0.146E-04    0.44      80.8  T
     SCC iter.                  ...        0 min,  0.081 sec
     gradient                   ...        0 min,  0.069 sec
 * total energy  :   -99.2234466 Eh     change       -0.6803386E-02 Eh
   gradient norm :     0.0508227 Eh/α   predicted    -0.6148658E-02 (  -9.62%)
   displ. norm   :     0.2505174 α      lambda       -0.8460162E-02
   maximum displ.:     0.0991207 α      in ANC's #1, #113, #50, ...

........................................................................
.............................. CYCLE   12 ..............................
........................................................................

 iter      E             dE          RMSdq      gap      omega  full diag
   1   -100.5875063 -0.100588E+03  0.188E-01    0.43       0.0  T
   2   -100.5829049  0.460143E-02  0.224E-01    0.47       1.0  T
   3   -100.5852077 -0.230283E-02  0.179E-01    0.44       1.0  T
   4   -100.5879489 -0.274126E-02  0.585E-02    0.43       1.0  T
   5   -100.5882292 -0.280248E-03  0.194E-02    0.44       1.0  T
   6   -100.5882621 -0.329150E-04  0.949E-03    0.44       1.2  T
   7   -100.5882683 -0.620825E-05  0.403E-03    0.44       2.9  T
   8   -100.5882700 -0.163457E-05  0.153E-03    0.44       7.7  T
   9   -100.5882700 -0.857066E-07  0.841E-04    0.44      14.0  T
  10   -100.5882701 -0.471193E-07  0.301E-04    0.44      39.2  T
     SCC iter.                  ...        0 min,  0.081 sec
     gradient                   ...        0 min,  0.069 sec
 * total energy  :   -99.2288359 Eh     change       -0.5389314E-02 Eh
   gradient norm :     0.0304783 Eh/α   predicted    -0.4495560E-02 ( -16.58%)
   displ. norm   :     0.4659970 α      lambda       -0.6950255E-02
   maximum displ.:     0.3563793 α      in ANC's #1, #50, #52, ...

........................................................................
.............................. CYCLE   13 ..............................
........................................................................

 iter      E             dE          RMSdq      gap      omega  full diag
   1   -100.5993659 -0.100599E+03  0.290E-01    0.38       0.0  T
   2   -100.5715066  0.278594E-01  0.570E-01    0.54       1.0  T
   3   -100.6019462 -0.304396E-01  0.155E-01    0.33       1.0  T
   4   -100.6015745  0.371701E-03  0.145E-01    0.31       1.0  T
   5   -100.6031516 -0.157711E-02  0.721E-02    0.31       1.0  T
   6   -100.6037458 -0.594193E-03  0.132E-02    0.31       1.0  T
   7   -100.6037625 -0.167242E-04  0.603E-03    0.31       2.0  T
   8   -100.6037670 -0.451629E-05  0.193E-03    0.31       6.1  T
   9   -100.6037670 -0.144761E-07  0.116E-03    0.31      10.2  T
  10   -100.6037671 -0.906220E-07  0.363E-04    0.31      32.5  T
  11   -100.6037671 -0.498910E-08  0.214E-04    0.31      55.2  T
     SCC iter.                  ...        0 min,  0.088 sec
     gradient                   ...        0 min,  0.069 sec
 * total energy  :   -99.2315766 Eh     change       -0.2740732E-02 Eh
   gradient norm :     0.0417664 Eh/α   predicted    -0.4229758E-02 (  54.33%)
   displ. norm   :     0.1365941 α      lambda       -0.2587786E-02
   maximum displ.:     0.0781226 α      in ANC's #1, #40, #21, ...

........................................................................
.............................. CYCLE   14 ..............................
........................................................................

 iter      E             dE          RMSdq      gap      omega  full diag
   1   -100.6055203 -0.100606E+03  0.600E-02    0.35       0.0  T
   2   -100.6054955  0.248883E-04  0.390E-02    0.34       1.0  T
   3   -100.6048162  0.679269E-03  0.765E-02    0.35       1.0  T
   4   -100.6054893 -0.673134E-03  0.193E-02    0.34       1.0  T
   5   -100.6055288 -0.394771E-04  0.370E-03    0.34       3.2  T
   6   -100.6055300 -0.116032E-05  0.178E-03    0.35       6.6  T
   7   -100.6055302 -0.227324E-06  0.733E-04    0.35      16.1  T
   8   -100.6055302 -0.358344E-07  0.315E-04    0.35      37.5  T
     SCC iter.                  ...        0 min,  0.065 sec
     gradient                   ...        0 min,  0.069 sec
 * total energy  :   -99.2334887 Eh     change       -0.1912070E-02 Eh
   gradient norm :     0.0277898 Eh/α   predicted    -0.1318038E-02 ( -31.07%)
   displ. norm   :     0.2260175 α      lambda       -0.3142526E-02
   maximum displ.:     0.0691104 α      in ANC's #1, #40, #44, ...

........................................................................
.............................. CYCLE   15 ..............................
........................................................................

 iter      E             dE          RMSdq      gap      omega  full diag
   1   -100.6054273 -0.100605E+03  0.702E-02    0.35       0.0  T
   2   -100.6050472  0.380171E-03  0.739E-02    0.35       1.0  T
   3   -100.6052840 -0.236816E-03  0.537E-02    0.35       1.0  T
   4   -100.6051936  0.904316E-04  0.583E-02    0.36       1.0  T
   5   -100.6054999 -0.306295E-03  0.143E-02    0.35       1.0  T
   6   -100.6055274 -0.275212E-04  0.215E-03    0.35       5.5  T
   7   -100.6055277 -0.318793E-06  0.124E-03    0.35       9.5  T
   8   -100.6055278 -0.643808E-07  0.562E-04    0.35      21.0  T
   9   -100.6055278 -0.202320E-07  0.223E-04    0.35      52.9  T
     SCC iter.                  ...        0 min,  0.073 sec
     gradient                   ...        0 min,  0.069 sec
 * total energy  :   -99.2357864 Eh     change       -0.2297728E-02 Eh
   gradient norm :     0.0169853 Eh/α   predicted    -0.1651548E-02 ( -28.12%)
   displ. norm   :     0.3607355 α      lambda       -0.2687603E-02
   maximum displ.:     0.2066072 α      in ANC's #1, #40, #44, ...

........................................................................
.............................. CYCLE   16 ..............................
........................................................................

 iter      E             dE          RMSdq      gap      omega  full diag
   1   -100.6049116 -0.100605E+03  0.770E-02    0.33       0.0  T
   2   -100.6040729  0.838631E-03  0.103E-01    0.33       1.0  T
   3   -100.6049893 -0.916364E-03  0.475E-02    0.32       1.0  T
   4   -100.6047017  0.287554E-03  0.656E-02    0.33       1.0  T
   5   -100.6050837 -0.381980E-03  0.182E-02    0.32       1.0  T
   6   -100.6051294 -0.456879E-04  0.313E-03    0.33       3.8  T
   7   -100.6051301 -0.691451E-06  0.160E-03    0.33       7.4  T
   8   -100.6051302 -0.677231E-07  0.626E-04    0.33      18.8  T
   9   -100.6051302 -0.158377E-07  0.265E-04    0.33      44.6  T
     SCC iter.                  ...        0 min,  0.073 sec
     gradient                   ...        0 min,  0.069 sec
 * total energy  :   -99.2378560 Eh     change       -0.2069574E-02 Eh
   gradient norm :     0.0253151 Eh/α   predicted    -0.1518703E-02 ( -26.62%)
   displ. norm   :     0.4597913 α      lambda       -0.2737610E-02
   maximum displ.:     0.2928252 α      in ANC's #1, #44, #40, ...

........................................................................
.............................. CYCLE   17 ..............................
........................................................................

 iter      E             dE          RMSdq      gap      omega  full diag
   1   -100.6033148 -0.100603E+03  0.899E-02    0.28       0.0  T
   2   -100.6016188  0.169604E-02  0.132E-01    0.29       1.0  T
   3   -100.6033699 -0.175111E-02  0.633E-02    0.28       1.0  T
   4   -100.6033373  0.326239E-04  0.641E-02    0.29       1.0  T
   5   -100.6036014 -0.264177E-03  0.227E-02    0.28       1.0  T
   6   -100.6036684 -0.669719E-04  0.409E-03    0.28       2.9  T
   7   -100.6036694 -0.985612E-06  0.210E-03    0.28       5.6  T
   8   -100.6036695 -0.120245E-06  0.867E-04    0.28      13.6  T
   9   -100.6036696 -0.309402E-07  0.383E-04    0.28      30.7  T
     SCC iter.                  ...        0 min,  0.073 sec
     gradient                   ...        0 min,  0.071 sec
 * total energy  :   -99.2399644 Eh     change       -0.2108414E-02 Eh
   gradient norm :     0.0272839 Eh/α   predicted    -0.1658195E-02 ( -21.35%)
   displ. norm   :     0.4512586 α      lambda       -0.2454690E-02
   maximum displ.:     0.2739578 α      in ANC's #1, #44, #40, ...

........................................................................
.............................. CYCLE   18 ..............................
........................................................................

 iter      E             dE          RMSdq      gap      omega  full diag
   1   -100.6026593 -0.100603E+03  0.873E-02    0.25       0.0  T
   2   -100.6012211  0.143818E-02  0.120E-01    0.25       1.0  T
   3   -100.6025920 -0.137081E-02  0.656E-02    0.24       1.0  T
   4   -100.6026480 -0.560475E-04  0.629E-02    0.25       1.0  T
   5   -100.6028954 -0.247361E-03  0.212E-02    0.24       1.0  T
   6   -100.6029493 -0.539234E-04  0.427E-03    0.25       2.8  T
   7   -100.6029503 -0.104889E-05  0.209E-03    0.24       5.6  T
   8   -100.6029505 -0.118942E-06  0.864E-04    0.24      13.6  T
   9   -100.6029505 -0.347447E-07  0.374E-04    0.24      31.5  T
     SCC iter.                  ...        0 min,  0.073 sec
     gradient                   ...        0 min,  0.069 sec
 * total energy  :   -99.2418065 Eh     change       -0.1842057E-02 Eh
   gradient norm :     0.0209041 Eh/α   predicted    -0.1477291E-02 ( -19.80%)
   displ. norm   :     0.3618670 α      lambda       -0.1970612E-02
   maximum displ.:     0.1829682 α      in ANC's #1, #21, #44, ...

........................................................................
.............................. CYCLE   19 ..............................
........................................................................

 iter      E             dE          RMSdq      gap      omega  full diag
   1   -100.6048327 -0.100605E+03  0.795E-02    0.22       0.0  T
   2   -100.6044669  0.365848E-03  0.768E-02    0.22       1.0  T
   3   -100.6045848 -0.117944E-03  0.614E-02    0.22       1.0  T
   4   -100.6044626  0.122193E-03  0.708E-02    0.23       1.0  T
   5   -100.6049228 -0.460246E-03  0.168E-02    0.22       1.0  T
   6   -100.6049551 -0.322429E-04  0.368E-03    0.22       3.2  T
   7   -100.6049561 -0.102627E-05  0.150E-03    0.22       7.9  T
   8   -100.6049561 -0.287400E-07  0.751E-04    0.22      15.7  T
   9   -100.6049562 -0.295830E-07  0.269E-04    0.22      43.9  T
     SCC iter.                  ...        0 min,  0.073 sec
     gradient                   ...        0 min,  0.069 sec
 * total energy  :   -99.2432265 Eh     change       -0.1420001E-02 Eh
   gradient norm :     0.0158765 Eh/α   predicted    -0.1114336E-02 ( -21.53%)
   displ. norm   :     0.2617028 α      lambda       -0.1280964E-02
   maximum displ.:     0.1066303 α      in ANC's #1, #21, #23, ...

........................................................................
.............................. CYCLE   20 ..............................
........................................................................

 iter      E             dE          RMSdq      gap      omega  full diag
   1   -100.6082901 -0.100608E+03  0.725E-02    0.21       0.0  T
   2   -100.6080535  0.236590E-03  0.693E-02    0.21       1.0  T
   3   -100.6080977 -0.442093E-04  0.611E-02    0.22       1.0  T
   4   -100.6079032  0.194497E-03  0.568E-02    0.21       1.0  T
   5   -100.6083439 -0.440726E-03  0.119E-02    0.21       1.0  T
   6   -100.6083592 -0.152506E-04  0.269E-03    0.21       4.4  T
   7   -100.6083598 -0.645535E-06  0.102E-03    0.21      11.6  T
   8   -100.6083599 -0.670888E-07  0.460E-04    0.21      25.6  T
   9   -100.6083599 -0.337440E-08  0.218E-04    0.21      54.0  T
     SCC iter.                  ...        0 min,  0.073 sec
     gradient                   ...        0 min,  0.069 sec
 * total energy  :   -99.2441455 Eh     change       -0.9190295E-03 Eh
   gradient norm :     0.0166944 Eh/α   predicted    -0.6843691E-03 ( -25.53%)
   displ. norm   :     0.2315742 α      lambda       -0.9596950E-03
   maximum displ.:     0.0882175 α      in ANC's #1, #21, #23, ...
 * RMSD in coord.:     0.5114970 α      energy gain  -0.5520104E+00 Eh

generating ANC from model Hessian ...
Using Lindh-Hessian (1995)
 Shifting diagonal of input Hessian by    1.7375870282533967E-002
 Lowest  eigenvalues of input Hessian
    0.010000    0.016914    0.000000    0.000000    0.000000    0.000000
    0.000000    0.000000    0.017417    0.017448    0.017534    0.017634
    0.017720    0.017985    0.018099    0.018310    0.018403    0.018835
 Highest eigenvalues
    1.998389    2.031570    2.056767    2.133468    2.192838    2.198109


........................................................................
.............................. CYCLE   21 ..............................
........................................................................

 iter      E             dE          RMSdq      gap      omega  full diag
   1   -100.6102171 -0.100610E+03  0.675E-02    0.21       0.0  T
   2   -100.6098641  0.352995E-03  0.740E-02    0.19       1.0  T
   3   -100.6100111 -0.146979E-03  0.587E-02    0.21       1.0  T
   4   -100.6098854  0.125736E-03  0.548E-02    0.20       1.0  T
   5   -100.6102805 -0.395099E-03  0.542E-03    0.20       2.2  T
   6   -100.6102829 -0.238456E-05  0.199E-03    0.20       5.9  T
   7   -100.6102832 -0.312572E-06  0.958E-04    0.20      12.3  T
   8   -100.6102833 -0.903128E-07  0.336E-04    0.20      35.1  T
     SCC iter.                  ...        0 min,  0.065 sec
     gradient                   ...        0 min,  0.069 sec
 * total energy  :   -99.2448682 Eh     change       -0.7227401E-03 Eh
   gradient norm :     0.0156466 Eh/α   predicted     0.0000000E+00 (-100.00%)
   displ. norm   :     0.2782686 α      lambda       -0.1566405E-02
   maximum displ.:     0.2110265 α      in ANC's #1, #12, #14, ...

........................................................................
.............................. CYCLE   22 ..............................
........................................................................

 iter      E             dE          RMSdq      gap      omega  full diag
   1   -100.6102689 -0.100610E+03  0.634E-02    0.18       0.0  T
   2   -100.6099300  0.338859E-03  0.777E-02    0.20       1.0  T
   3   -100.6103449 -0.414936E-03  0.367E-02    0.18       1.0  T
   4   -100.6101145  0.230390E-03  0.445E-02    0.19       1.0  T
   5   -100.6103915 -0.276961E-03  0.144E-02    0.18       1.0  T
   6   -100.6104106 -0.190968E-04  0.356E-03    0.18       3.3  T
   7   -100.6104116 -0.103867E-05  0.114E-03    0.18      10.3  T
   8   -100.6104117 -0.364092E-07  0.639E-04    0.18      18.4  T
   9   -100.6104117 -0.262337E-07  0.207E-04    0.18      56.9  T
     SCC iter.                  ...        0 min,  0.073 sec
     gradient                   ...        0 min,  0.069 sec
 * total energy  :   -99.2462448 Eh     change       -0.1376588E-02 Eh
   gradient norm :     0.0097507 Eh/α   predicted    -0.8438786E-03 ( -38.70%)
   displ. norm   :     0.5678369 α      lambda       -0.2509002E-02
   maximum displ.:     0.3793344 α      in ANC's #1, #12, #14, ...

........................................................................
.............................. CYCLE   23 ..............................
........................................................................

 iter      E             dE          RMSdq      gap      omega  full diag
   1   -100.6081943 -0.100608E+03  0.187E-01    0.21       0.0  T
   2   -100.6037347  0.445958E-02  0.263E-01    0.23       1.0  T
   3   -100.6091765 -0.544179E-02  0.103E-01    0.17       1.0  T
   4   -100.6077477  0.142881E-02  0.125E-01    0.14       1.0  T
   5   -100.6097961 -0.204844E-02  0.369E-02    0.15       1.0  T
   6   -100.6099200 -0.123874E-03  0.796E-03    0.15       1.5  T
   7   -100.6099243 -0.426066E-05  0.286E-03    0.15       4.1  T
   8   -100.6099244 -0.107432E-06  0.150E-03    0.15       7.8  T
   9   -100.6099245 -0.151544E-06  0.443E-04    0.15      26.6  T
  10   -100.6099245 -0.407032E-08  0.244E-04    0.15      48.4  T
     SCC iter.                  ...        0 min,  0.081 sec
     gradient                   ...        0 min,  0.069 sec
 * total energy  :   -99.2480692 Eh     change       -0.1824346E-02 Eh
   gradient norm :     0.0133797 Eh/α   predicted    -0.1659002E-02 (  -9.06%)
   displ. norm   :     0.4005687 α      lambda       -0.1027970E-02
   maximum displ.:     0.2026666 α      in ANC's #1, #12, #2, ...

........................................................................
.............................. CYCLE   24 ..............................
........................................................................

 iter      E             dE          RMSdq      gap      omega  full diag
   1   -100.6084656 -0.100608E+03  0.154E-01    0.22       0.0  T
   2   -100.6048858  0.357972E-02  0.224E-01    0.15       1.0  T
   3   -100.6089745 -0.408863E-02  0.916E-02    0.18       1.0  T
   4   -100.6083336  0.640847E-03  0.990E-02    0.14       1.0  T
   5   -100.6095659 -0.123224E-02  0.289E-02    0.15       1.0  T
   6   -100.6096434 -0.775636E-04  0.538E-03    0.15       2.2  T
   7   -100.6096454 -0.195742E-05  0.209E-03    0.14       5.6  T
   8   -100.6096455 -0.567114E-07  0.112E-03    0.14      10.5  T
   9   -100.6096455 -0.975310E-07  0.310E-04    0.14      38.1  T
  10   -100.6096456 -0.310955E-08  0.179E-04    0.14      65.8  T
     SCC iter.                  ...        0 min,  0.081 sec
     gradient                   ...        0 min,  0.069 sec
 * total energy  :   -99.2487039 Eh     change       -0.6347287E-03 Eh
   gradient norm :     0.0147542 Eh/α   predicted    -0.5964651E-03 (  -6.03%)
   displ. norm   :     0.2013204 α      lambda       -0.5370604E-03
   maximum displ.:     0.1069573 α      in ANC's #2, #12, #20, ...

........................................................................
.............................. CYCLE   25 ..............................
........................................................................

 iter      E             dE          RMSdq      gap      omega  full diag
   1   -100.6109843 -0.100611E+03  0.448E-02    0.13       0.0  T
   2   -100.6108229  0.161419E-03  0.486E-02    0.15       1.0  T
   3   -100.6109593 -0.136391E-03  0.316E-02    0.14       1.0  T
   4   -100.6109127  0.465791E-04  0.359E-02    0.12       1.0  T
   5   -100.6110287 -0.115992E-03  0.113E-02    0.14       1.0  T
   6   -100.6110431 -0.143839E-04  0.251E-03    0.14       4.7  T
   7   -100.6110440 -0.899752E-06  0.649E-04    0.14      18.1  T
   8   -100.6110440 -0.135761E-07  0.339E-04    0.14      34.8  T
     SCC iter.                  ...        0 min,  0.065 sec
     gradient                   ...        0 min,  0.070 sec
 * total energy  :   -99.2490647 Eh     change       -0.3607672E-03 Eh
   gradient norm :     0.0077993 Eh/α   predicted    -0.2794445E-03 ( -22.54%)
   displ. norm   :     0.2078507 α      lambda       -0.3570947E-03
   maximum displ.:     0.1062221 α      in ANC's #12, #2, #20, ...

........................................................................
.............................. CYCLE   26 ..............................
........................................................................

 iter      E             dE          RMSdq      gap      omega  full diag
   1   -100.6132667 -0.100613E+03  0.490E-02    0.16       0.0  T
   2   -100.6127949  0.471803E-03  0.735E-02    0.10       1.0  T
   3   -100.6132280 -0.433087E-03  0.365E-02    0.16       1.0  T
   4   -100.6131972  0.307489E-04  0.345E-02    0.15       1.0  T
   5   -100.6133418 -0.144554E-03  0.511E-03    0.14       2.3  T
   6   -100.6133433 -0.152729E-05  0.217E-03    0.14       5.4  T
   7   -100.6133438 -0.492193E-06  0.816E-04    0.14      14.4  T
   8   -100.6133438 -0.466015E-07  0.330E-04    0.14      35.8  T
     SCC iter.                  ...        0 min,  0.065 sec
     gradient                   ...        0 min,  0.069 sec
 * total energy  :   -99.2493227 Eh     change       -0.2580108E-03 Eh
   gradient norm :     0.0042349 Eh/α   predicted    -0.1862615E-03 ( -27.81%)
   displ. norm   :     0.2533445 α      lambda       -0.2944242E-03
   maximum displ.:     0.1206551 α      in ANC's #12, #2, #20, ...

........................................................................
.............................. CYCLE   27 ..............................
........................................................................

 iter      E             dE          RMSdq      gap      omega  full diag
   1   -100.6140001 -0.100614E+03  0.506E-02    0.17       0.0  T
   2   -100.6133695  0.630614E-03  0.826E-02    0.10       1.0  T
   3   -100.6139770 -0.607471E-03  0.367E-02    0.17       1.0  T
   4   -100.6139630  0.139883E-04  0.332E-02    0.16       1.0  T
   5   -100.6140930 -0.130045E-03  0.565E-03    0.15       2.1  T
   6   -100.6140949 -0.190891E-05  0.228E-03    0.15       5.2  T
   7   -100.6140955 -0.562530E-06  0.795E-04    0.15      14.8  T
   8   -100.6140955 -0.364748E-07  0.372E-04    0.15      31.7  T
     SCC iter.                  ...        0 min,  0.065 sec
     gradient                   ...        0 min,  0.069 sec
 * total energy  :   -99.2495515 Eh     change       -0.2288051E-03 Eh
   gradient norm :     0.0060523 Eh/α   predicted    -0.1566625E-03 ( -31.53%)
   displ. norm   :     0.3753130 α      lambda       -0.3619549E-03
   maximum displ.:     0.1651751 α      in ANC's #12, #2, #22, ...

........................................................................
.............................. CYCLE   28 ..............................
........................................................................

 iter      E             dE          RMSdq      gap      omega  full diag
   1   -100.6130972 -0.100613E+03  0.663E-02    0.20       0.0  T
   2   -100.6121383  0.958955E-03  0.103E-01    0.09       1.0  T
   3   -100.6130165 -0.878200E-03  0.512E-02    0.19       1.0  T
   4   -100.6130212 -0.471177E-05  0.436E-02    0.17       1.0  T
   5   -100.6132464 -0.225222E-03  0.841E-03    0.17       1.4  T
   6   -100.6132515 -0.514125E-05  0.294E-03    0.16       4.0  T
   7   -100.6132525 -0.926877E-06  0.987E-04    0.16      11.9  T
   8   -100.6132525 -0.248385E-07  0.554E-04    0.16      21.3  T
     SCC iter.                  ...        0 min,  0.065 sec
     gradient                   ...        0 min,  0.073 sec
 * total energy  :   -99.2498176 Eh     change       -0.2661628E-03 Eh
   gradient norm :     0.0090675 Eh/α   predicted    -0.2064736E-03 ( -22.43%)
   displ. norm   :     0.3282894 α      lambda       -0.2708561E-03
   maximum displ.:     0.1516078 α      in ANC's #2, #22, #12, ...

........................................................................
.............................. CYCLE   29 ..............................
........................................................................

 iter      E             dE          RMSdq      gap      omega  full diag
   1   -100.6118041 -0.100612E+03  0.536E-02    0.20       0.0  T
   2   -100.6114447  0.359372E-03  0.671E-02    0.12       1.0  T
   3   -100.6117058 -0.261082E-03  0.450E-02    0.20       1.0  T
   4   -100.6116730  0.327728E-04  0.395E-02    0.18       1.0  T
   5   -100.6118765 -0.203500E-03  0.751E-03    0.18       1.6  T
   6   -100.6118814 -0.491514E-05  0.230E-03    0.18       5.1  T
   7   -100.6118819 -0.523333E-06  0.759E-04    0.18      15.5  T
   8   -100.6118819  0.249133E-08  0.458E-04    0.18      25.7  T
     SCC iter.                  ...        0 min,  0.065 sec
     gradient                   ...        0 min,  0.070 sec
 * total energy  :   -99.2500018 Eh     change       -0.1841308E-03 Eh
   gradient norm :     0.0092937 Eh/α   predicted    -0.1500699E-03 ( -18.50%)
   displ. norm   :     0.1787613 α      lambda       -0.1982899E-03
   maximum displ.:     0.0984152 α      in ANC's #2, #22, #12, ...

........................................................................
.............................. CYCLE   30 ..............................
........................................................................

 iter      E             dE          RMSdq      gap      omega  full diag
   1   -100.6119462 -0.100612E+03  0.291E-02    0.19       0.0  T
   2   -100.6119167  0.295023E-04  0.252E-02    0.17       1.0  T
   3   -100.6119346 -0.179409E-04  0.196E-02    0.19       1.0  T
   4   -100.6119453 -0.107113E-04  0.131E-02    0.19       1.0  T
   5   -100.6119568 -0.114718E-04  0.603E-03    0.18       2.0  T
   6   -100.6119616 -0.486378E-05  0.196E-03    0.18       6.0  T
   7   -100.6119621 -0.430648E-06  0.490E-04    0.18      24.1  T
   8   -100.6119621 -0.694453E-08  0.246E-04    0.18      47.9  T
     SCC iter.                  ...        0 min,  0.065 sec
     gradient                   ...        0 min,  0.069 sec
 * total energy  :   -99.2501435 Eh     change       -0.1417432E-03 Eh
   gradient norm :     0.0053436 Eh/α   predicted    -0.1023223E-03 ( -27.81%)
   displ. norm   :     0.1673566 α      lambda       -0.1426374E-03
   maximum displ.:     0.1091898 α      in ANC's #2, #22, #10, ...

........................................................................
.............................. CYCLE   31 ..............................
........................................................................

 iter      E             dE          RMSdq      gap      omega  full diag
   1   -100.6124401 -0.100612E+03  0.282E-02    0.17       0.0  T
   2   -100.6123739  0.661743E-04  0.305E-02    0.20       1.0  T
   3   -100.6123888 -0.148322E-04  0.255E-02    0.17       1.0  T
   4   -100.6124211 -0.323280E-04  0.167E-02    0.18       1.0  T
   5   -100.6124491 -0.280211E-04  0.451E-03    0.18       2.6  T
   6   -100.6124515 -0.235458E-05  0.760E-04    0.18      15.5  T
   7   -100.6124515 -0.120250E-07  0.503E-04    0.18      23.4  T
   8   -100.6124515 -0.163533E-07  0.212E-04    0.18      55.6  T
     SCC iter.                  ...        0 min,  0.065 sec
     gradient                   ...        0 min,  0.069 sec
 * total energy  :   -99.2502440 Eh     change       -0.1005329E-03 Eh
   gradient norm :     0.0029116 Eh/α   predicted    -0.7331656E-04 ( -27.07%)
   displ. norm   :     0.1799941 α      lambda       -0.1005181E-03
   maximum displ.:     0.1191453 α      in ANC's #2, #22, #10, ...

........................................................................
.............................. CYCLE   32 ..............................
........................................................................

 iter      E             dE          RMSdq      gap      omega  full diag
   1   -100.6129899 -0.100613E+03  0.299E-02    0.18       0.0  T
   2   -100.6129697  0.201860E-04  0.216E-02    0.18       1.0  T
   3   -100.6127841  0.185639E-03  0.406E-02    0.17       1.0  T
   4   -100.6129777 -0.193673E-03  0.133E-02    0.19       1.0  T
   5   -100.6129947 -0.169891E-04  0.365E-03    0.18       3.2  T
   6   -100.6129960 -0.131424E-05  0.136E-03    0.18       8.7  T
   7   -100.6129962 -0.169948E-06  0.509E-04    0.18      23.2  T
   8   -100.6129962 -0.506091E-08  0.281E-04    0.18      41.9  T
     SCC iter.                  ...        0 min,  0.065 sec
     gradient                   ...        0 min,  0.071 sec
 * total energy  :   -99.2503197 Eh     change       -0.7567358E-04 Eh
   gradient norm :     0.0036480 Eh/α   predicted    -0.5189007E-04 ( -31.43%)
   displ. norm   :     0.2172598 α      lambda       -0.1085371E-03
   maximum displ.:     0.1485538 α      in ANC's #2, #22, #17, ...

........................................................................
.............................. CYCLE   33 ..............................
........................................................................

 iter      E             dE          RMSdq      gap      omega  full diag
   1   -100.6137770 -0.100614E+03  0.372E-02    0.19       0.0  T
   2   -100.6137682  0.879980E-05  0.237E-02    0.19       1.0  T
   3   -100.6135281  0.240175E-03  0.442E-02    0.18       1.0  T
   4   -100.6137598 -0.231761E-03  0.150E-02    0.20       1.0  T
   5   -100.6137805 -0.206887E-04  0.547E-03    0.18       2.2  T
   6   -100.6137835 -0.297787E-05  0.142E-03    0.19       8.3  T
   7   -100.6137836 -0.162784E-06  0.572E-04    0.19      20.6  T
   8   -100.6137836 -0.890466E-09  0.350E-04    0.19      33.7  T
     SCC iter.                  ...        0 min,  0.065 sec
     gradient                   ...        0 min,  0.069 sec
 * total energy  :   -99.2504004 Eh     change       -0.8071274E-04 Eh
   gradient norm :     0.0045276 Eh/α   predicted    -0.5683319E-04 ( -29.59%)
   displ. norm   :     0.2357223 α      lambda       -0.1010193E-03
   maximum displ.:     0.1615643 α      in ANC's #2, #1, #17, ...

........................................................................
.............................. CYCLE   34 ..............................
........................................................................

 iter      E             dE          RMSdq      gap      omega  full diag
   1   -100.6142539 -0.100614E+03  0.434E-02    0.20       0.0  T
   2   -100.6142183  0.355524E-04  0.324E-02    0.18       1.0  T
   3   -100.6141147  0.103590E-03  0.417E-02    0.22       1.0  T
   4   -100.6141758 -0.611143E-04  0.253E-02    0.19       1.0  T
   5   -100.6142668 -0.909048E-04  0.373E-03    0.19       3.2  T
   6   -100.6142678 -0.107958E-05  0.149E-03    0.19       7.9  T
   7   -100.6142680 -0.175699E-06  0.669E-04    0.19      17.6  T
   8   -100.6142680 -0.812859E-08  0.349E-04    0.19      33.8  T
     SCC iter.                  ...        0 min,  0.065 sec
     gradient                   ...        0 min,  0.069 sec
 * total energy  :   -99.2504752 Eh     change       -0.7477480E-04 Eh
   gradient norm :     0.0046954 Eh/α   predicted    -0.5331838E-04 ( -28.69%)
   displ. norm   :     0.2194383 α      lambda       -0.8954432E-04
   maximum displ.:     0.1432425 α      in ANC's #2, #17, #20, ...

........................................................................
.............................. CYCLE   35 ..............................
........................................................................

 iter      E             dE          RMSdq      gap      omega  full diag
   1   -100.6145879 -0.100615E+03  0.418E-02    0.21       0.0  T
   2   -100.6145297  0.582017E-04  0.347E-02    0.18       1.0  T
   3   -100.6144050  0.124680E-03  0.446E-02    0.23       1.0  T
   4   -100.6145040 -0.989191E-04  0.268E-02    0.20       1.0  T
   5   -100.6146001 -0.961617E-04  0.248E-03    0.20       4.7  T
   6   -100.6146005 -0.385668E-06  0.127E-03    0.20       9.3  T
   7   -100.6146006 -0.104954E-06  0.610E-04    0.20      19.3  T
   8   -100.6146006 -0.120502E-07  0.298E-04    0.20      39.6  T
     SCC iter.                  ...        0 min,  0.066 sec
     gradient                   ...        0 min,  0.069 sec
 * total energy  :   -99.2505395 Eh     change       -0.6434735E-04 Eh
   gradient norm :     0.0041483 Eh/α   predicted    -0.4693016E-04 ( -27.07%)
   displ. norm   :     0.2418264 α      lambda       -0.7156518E-04
   maximum displ.:     0.1707375 α      in ANC's #2, #17, #1, ...

........................................................................
.............................. CYCLE   36 ..............................
........................................................................

 iter      E             dE          RMSdq      gap      omega  full diag
   1   -100.6133826 -0.100613E+03  0.471E-02    0.21       0.0  T
   2   -100.6132908  0.918384E-04  0.386E-02    0.19       1.0  T
   3   -100.6129395  0.351315E-03  0.632E-02    0.24       1.0  T
   4   -100.6133896 -0.450138E-03  0.638E-03    0.21       1.8  T
   5   -100.6133931 -0.350906E-05  0.374E-03    0.20       3.2  T
   6   -100.6133943 -0.113231E-05  0.145E-03    0.21       8.1  T
   7   -100.6133944 -0.107398E-06  0.736E-04    0.21      16.0  T
   8   -100.6133944 -0.358164E-07  0.275E-04    0.21      42.8  T
     SCC iter.                  ...        0 min,  0.065 sec
     gradient                   ...        0 min,  0.069 sec
 * total energy  :   -99.2505766 Eh     change       -0.3705204E-04 Eh
   gradient norm :     0.0040001 Eh/α   predicted    -0.3788096E-04 (   2.24%)
   displ. norm   :     0.2197400 α      lambda       -0.1202767E-03
   maximum displ.:     0.1097611 α      in ANC's #12, #20, #2, ...

........................................................................
.............................. CYCLE   37 ..............................
........................................................................

 iter      E             dE          RMSdq      gap      omega  full diag
   1   -100.6146719 -0.100615E+03  0.424E-02    0.23       0.0  T
   2   -100.6145317  0.140191E-03  0.474E-02    0.18       1.0  T
   3   -100.6146086 -0.768580E-04  0.333E-02    0.23       1.0  T
   4   -100.6145433  0.652288E-04  0.348E-02    0.21       1.0  T
   5   -100.6146979 -0.154601E-03  0.557E-03    0.21       2.1  T
   6   -100.6147007 -0.277854E-05  0.154E-03    0.21       7.7  T
   7   -100.6147008 -0.807972E-07  0.101E-03    0.21      11.7  T
   8   -100.6147009 -0.102903E-06  0.299E-04    0.21      39.4  T
   9   -100.6147009 -0.686502E-08  0.126E-04    0.21      93.4  T
     SCC iter.                  ...        0 min,  0.073 sec
     gradient                   ...        0 min,  0.070 sec
 * total energy  :   -99.2505769 Eh     change       -0.2521482E-06 Eh
   gradient norm :     0.0048412 Eh/α   predicted    -0.6304570E-04 (*******%)
   displ. norm   :     0.0766478 α      lambda       -0.8181109E-04
   maximum displ.:     0.0412534 α      in ANC's #12, #20, #22, ...

........................................................................
.............................. CYCLE   38 ..............................
........................................................................

 iter      E             dE          RMSdq      gap      omega  full diag
   1   -100.6138635 -0.100614E+03  0.198E-02    0.20       0.0  T
   2   -100.6137818  0.817522E-04  0.335E-02    0.23       1.0  T
   3   -100.6138754 -0.936025E-04  0.109E-02    0.21       1.1  T
   4   -100.6138599  0.154974E-04  0.141E-02    0.21       1.0  T
   5   -100.6138829 -0.230445E-04  0.397E-03    0.21       3.0  T
   6   -100.6138844 -0.144164E-05  0.810E-04    0.21      14.6  T
   7   -100.6138844 -0.438891E-07  0.471E-04    0.21      25.0  T
   8   -100.6138844 -0.184522E-07  0.175E-04    0.21      67.2  T
     SCC iter.                  ...        0 min,  0.065 sec
     gradient                   ...        0 min,  0.075 sec
 * total energy  :   -99.2506260 Eh     change       -0.4917332E-04 Eh
   gradient norm :     0.0019738 Eh/α   predicted    -0.4115323E-04 ( -16.31%)
   displ. norm   :     0.0606850 α      lambda       -0.2105787E-04
   maximum displ.:     0.0317952 α      in ANC's #2, #7, #12, ...

   *** GEOMETRY OPTIMIZATION CONVERGED AFTER 38 ITERATIONS ***

------------------------------------------------------------------------
 total energy gain   :        -0.5584909 Eh     -350.4584 kcal/mol
 total RMSD          :         0.5944511 a0        0.3146 Å
 total power (kW/mol):       -38.5873099 (step) -229.5574 (real)
------------------------------------------------------------------------

 ANCopt (total)                0 d,  0 h,  0 min,  6.388 sec
 optimizer setup                ...        0 min,  0.000 sec (  0.004%)
 model hessian                  ...        0 min,  0.105 sec (  1.636%)
 ANC generation                 ...        0 min,  0.013 sec (  0.207%)
 coordinate transformation      ...        0 min,  0.003 sec (  0.041%)
 single point calculation       ...        0 min,  6.222 sec ( 97.400%)
 optimization log               ...        0 min,  0.010 sec (  0.151%)
 hessian update                 ...        0 min,  0.002 sec (  0.038%)
 rational function              ...        0 min,  0.015 sec (  0.237%)

================
 final structure:
================
72
 xtb: 6.6.1 (8d0f1dd)
N           -1.86080536685740        2.90773930347707        2.26030437022649
C           -1.82518257803866        2.16755299140344        1.25531251127889
C           -2.98410060146326        1.92070068900920        0.33825513190242
C           -3.44736794715479        0.47832963130863        0.43608272076450
C           -4.40453470553245        0.01988131414787       -0.43835429759765
C           -4.89988802939945       -1.25728362962327       -0.44297330882203
O           -5.83602904392636       -1.71233306025002       -1.30235487179810
C           -6.34521373688310       -0.79152340660943       -2.20197430591080
C           -4.39542065762758       -2.18358774288901        0.51962848076719
O           -4.91375644182667       -3.42350231692799        0.45369446833414
C           -4.53221318472380       -4.38215414457903        1.41325921840403
C           -3.43785056862866       -1.73471756490696        1.41970186641430
C           -2.97238677877042       -0.42611132635017        1.38511568130602
C           -2.48447280537764        2.17274371880554       -1.10792512010598
C           -1.54409668811651        1.08603099883398       -1.65766339474904
C           -0.19540911762619        1.09827291362998       -1.05401607764499
N            0.48687240183824        0.02724516124465       -0.67913280866959
C            1.87019154463546        0.13488827981607       -0.27810685538990
C            2.82857883260226       -0.33531682443712       -1.38919991562297
C            4.25126542920366       -0.13874477689579       -0.94543724879363
C            4.89385965984255        1.07074810100479       -1.15684164483543
C            6.19341665330189        1.27043307597375       -0.71864483525528
C            6.87733677146332        0.26218941925944       -0.05384439079832
O            8.13516568256269        0.34357346189525        0.41442332076692
C            8.86817029873959        1.53097135516641        0.21676487614003
C            6.22553596183906       -0.98320958112340        0.16891358840472
O            6.96219931705178       -1.90660882187112        0.81582757789625
C            6.41675485752989       -3.18209550812492        1.05519163094584
C            4.92441348157796       -1.15803517882343       -0.27665289436791
C           -0.09059844373375       -1.29574778031727       -0.70946615013208
C           -4.22332874256247        2.81676920963546        0.62855508829762
C           -4.81196389677818        2.53115560355866        2.00801071518414
C           -3.93311755079953        4.30704958465569        0.48954957709452
H           -4.38309402511109       -0.10045148774337       -3.55147286070143
H           -6.69421404266326        0.12333431674972       -1.71492837176698
H           -7.12715334153384       -1.27821052325135       -2.77753059491356
H           -5.48244643064539       -0.45446535722481       -2.93425806408663
H           -4.77737635450011       -4.05222642238483        2.42694211849680
H           -5.10481159699462       -5.27633071985018        1.17487859166633
H           -3.46304471265363       -4.60838061152252        1.35012365749270
H           -3.04899497253608       -2.40275574842622        2.17184268387900
H           -2.25126791396826       -0.10485476226404        2.12278444037093
H           -3.35899518701053        2.20594541613449       -1.75760451907646
H           -1.98316284162166        3.14006519677493       -1.15205165610484
H           -2.02420962063439        0.11356999724017       -1.56654813248793
H           -1.42220588062077        1.29412763670253       -2.72875563351922
H           -0.91257022065302        1.64096878246816        0.91175600958029
H            0.33591719496888        2.03943954947924       -1.03854723240191
H            2.03178512324798       -0.46880394132313        0.61937702395512
H            2.09710790055741        1.17492190784136       -0.03499196844977
H            2.63508648613351        0.24853906939681       -2.29060426078660
H            2.64565571593289       -1.38684795024521       -1.61266472922869
H            4.38678473452914        1.86758184020409       -1.67933159135688
H            6.66912450844719        2.21931414911432       -0.90404578204703
H            8.39450277029741        2.38166227429388        0.71611071443724
H            8.99061667920932        1.75290573372963       -0.84746581856544
H            9.84417316037713        1.34904700430746        0.66232601605034
H            7.19830850407558       -3.74330547341405        1.56353489720588
H            5.53438923510982       -3.12656082627728        1.70083230830547
H            6.15679567014462       -3.68904809178558        0.12080888023139
H            4.42406337599989       -2.10068197356712       -0.11886063586535
H           -0.28349180460122       -1.61801446514737       -1.73456104272559
H           -1.03204310214200       -1.31374067379154       -0.15467458215881
H            0.59781199090055       -1.99860406857465       -0.24758846224781
H           -4.97066715943628        2.53209393813638       -0.12277752754449
H           -4.10519515146047        2.81490748040084        2.78146391469946
H           -5.05531809427367        1.47735898297792        2.12068450528289
H           -5.72290515245377        3.10841599829669        2.14204819556723
H           -3.16960549204203        4.60942348550345        1.20027281355662
H           -3.61138766343432        4.56593060291673       -0.51546750626072
H           -4.83825615460038        4.86894558037814        0.70396045691381
H           -1.00921454370327        3.02362052715047        2.80024588357113

 Bond Distances (Angstroems)
 ---------------------------
N1-C2=1.2487         N1-H72=1.0150        C2-N1=1.2487         C2-C3=1.4983         C2-H47=1.1082        C3-C2=1.4983         
C3-C4=1.5181         C3-C14=1.5507        C3-C31=1.5566        C4-C3=1.5181         C4-C5=1.3751         C4-C13=1.3944        
C5-C4=1.3751         C5-C6=1.3699         C6-C5=1.3699         C6-O7=1.3498         C6-C9=1.4280         O7-C6=1.3498         
O7-C8=1.3844         C8-O7=1.3844         C8-H35=1.0936        C8-H36=1.0861        C8-H37=1.1808        C9-C6=1.4280         
C9-O10=1.3455        C9-C12=1.3887        O10-C9=1.3455        O10-C11=1.4090       C11-O10=1.4090       C11-H38=1.0939       
C11-H39=1.0882       C11-H40=1.0947       C12-C9=1.3887        C12-C13=1.3894       C12-H41=1.0785       C13-C4=1.3944        
C13-C12=1.3894       C13-H42=1.0805       C14-C3=1.5507        C14-C15=1.5387       C14-H43=1.0899       C14-H44=1.0904       
C15-C14=1.5387       C15-C16=1.4777       C15-H45=1.0883       C15-H46=1.0979       C16-C15=1.4777       C16-N17=1.3241       
C16-H48=1.0809       N17-C16=1.3241       N17-C18=1.4443       N17-C30=1.4439       C18-N17=1.4443       C18-C19=1.5408       
C18-H49=1.0936       C18-H50=1.0919       C19-C18=1.5408       C19-C20=1.5032       C19-H51=1.0913       C19-H52=1.0905       
C20-C19=1.5032       C20-C21=1.3858       C20-C29=1.3926       C21-C20=1.3858       C21-C22=1.3859       C21-H53=1.0794       
C22-C21=1.3859       C22-C23=1.3879       C22-H54=1.0775       C23-C22=1.3879       C23-O24=1.3446       C23-C26=1.4232       
O24-C23=1.3446       O24-C25=1.4094       C25-O24=1.4094       C25-H55=1.0942       C25-H56=1.0940       C25-H57=1.0882       
C26-C23=1.4232       C26-O27=1.3468       C26-C29=1.3864       O27-C26=1.3468       O27-C28=1.4077       C28-O27=1.4077       
C28-H58=1.0882       C28-H59=1.0948       C28-H60=1.0944       C29-C20=1.3926       C29-C26=1.3864       C29-H61=1.0788       
C30-N17=1.4439       C30-H62=1.0917       C30-H63=1.0929       C30-H64=1.0869       C31-C3=1.5566        C31-C32=1.5267       
C31-C33=1.5246       C31-H65=1.0973       C32-C31=1.5267       C32-H66=1.0855       C32-H67=1.0874       C32-H68=1.0867       
C33-C31=1.5246       C33-H69=1.0861       C33-H70=1.0865       C33-H71=1.0867       H35-C8=1.0936        H36-C8=1.0861        
H37-C8=1.1808        H38-C11=1.0939       H39-C11=1.0882       H40-C11=1.0947       H41-C12=1.0785       H42-C13=1.0805       
H43-C14=1.0899       H44-C14=1.0904       H45-C15=1.0883       H46-C15=1.0979       H47-C2=1.1082        H48-C16=1.0809       
H49-C18=1.0936       H50-C18=1.0919       H51-C19=1.0913       H52-C19=1.0905       H53-C21=1.0794       H54-C22=1.0775       
H55-C25=1.0942       H56-C25=1.0940       H57-C25=1.0882       H58-C28=1.0882       H59-C28=1.0948       H60-C28=1.0944       
H61-C29=1.0788       H62-C30=1.0917       H63-C30=1.0929       H64-C30=1.0869       H65-C31=1.0973       H66-C32=1.0855       
H67-C32=1.0874       H68-C32=1.0867       H69-C33=1.0861       H70-C33=1.0865       H71-C33=1.0867       H72-N1=1.0150        
 C  H  Rav=1.0918 sigma=0.0161  Rmin=1.0775  Rmax=1.1808    37
 C  C  Rav=1.4519 sigma=0.0683  Rmin=1.3699  Rmax=1.5566    22
 N  H  Rav=1.0150 sigma=0.0000  Rmin=1.0150  Rmax=1.0150     1
 N  C  Rav=1.3652 sigma=0.0832  Rmin=1.2487  Rmax=1.4443     4
 O  C  Rav=1.3747 sigma=0.0290  Rmin=1.3446  Rmax=1.4094     8

 selected bond angles (degree)
 --------------------
H72-N1-C2=118.16               C3-C2-N1=124.63                H47-C2-N1=123.69               H47-C2-C3=111.65               
C4-C3-C2=110.68                C14-C3-C2=107.15               C14-C3-C4=108.23               C31-C3-C2=114.00               
C31-C3-C4=106.98               C31-C3-C14=109.69              C5-C4-C3=119.22                C13-C4-C3=123.79               
C13-C4-C5=116.98               C6-C5-C4=124.38                O7-C6-C5=124.56                C9-C6-C5=118.34                
C9-C6-O7=117.10                C8-O7-C6=116.40                H35-C8-O7=112.61               H36-C8-O7=108.13               
H36-C8-H35=112.40              H37-C8-O7=108.91               H37-C8-H35=105.70              H37-C8-H36=108.99              
O10-C9-C6=115.38               C12-C9-C6=118.09               C12-C9-O10=126.53              C11-O10-C9=119.29              

 selected dihedral angles (degree)
 ---------------------------------
C3-C2-N1-H72=181.56           H47-C2-N1-H72=359.13          C4-C3-C2-N1=246.90            C4-C3-C2-H47= 69.08           
C14-C3-C2-N1=129.10           C14-C3-C2-H47=311.28          C31-C3-C2-N1=  7.55           C31-C3-C2-H47=189.73          
C5-C4-C3-C2=187.18            C5-C4-C3-C14=304.32           C5-C4-C3-C31= 62.44           C13-C4-C3-C2=  8.19           
C13-C4-C3-C14=125.33          C13-C4-C3-C31=243.45          C6-C5-C4-C3=180.13            C6-C5-C4-C13=359.19           
O7-C6-C5-C4=180.23            C9-C6-C5-C4=359.96            C8-O7-C6-C5=357.78            C8-O7-C6-C9=178.05            
H35-C8-O7-C6=308.53           H36-C8-O7-C6=183.73           H37-C8-O7-C6= 65.44           O10-C9-C6-C5=180.59           
O10-C9-C6-O7=  0.34           C12-C9-C6-C5=  0.67           C12-C9-C6-O7=180.42           C11-O10-C9-C6=183.65          
C11-O10-C9-C12=  3.57         
           -------------------------------------------------
          |                Final Singlepoint                |
           -------------------------------------------------

          ...................................................
          :                      SETUP                      :
          :.................................................:
          :  # basis functions                 171          :
          :  # atomic orbitals                 171          :
          :  # shells                          105          :
          :  # electrons                       180          :
          :  max. iterations                   250          :
          :  Hamiltonian                  GFN2-xTB          :
          :  restarted?                      false          :
          :  GBSA solvation                  false          :
          :  PC potential                    false          :
          :  electronic temp.         5000.0000000     K    :
          :  accuracy                    1.0000000          :
          :  -> integral cutoff          0.2500000E+02      :
          :  -> integral neglect         0.1000000E-07      :
          :  -> SCF convergence          0.1000000E-05 Eh   :
          :  -> wf. convergence          0.1000000E-03 e    :
          :  Broyden damping             0.4000000          :
          ...................................................

 iter      E             dE          RMSdq      gap      omega  full diag
   1   -100.6138844 -0.100614E+03  0.543E-05    0.21       0.0  T
   2   -100.6138844 -0.397904E-12  0.402E-05    0.21     293.4  T
   3   -100.6138844 -0.949285E-11  0.346E-05    0.21     340.5  T

   *** convergence criteria satisfied after 3 iterations ***

         #    Occupation            Energy/Eh            Energy/eV
      -------------------------------------------------------------
         1        2.0000           -0.8146128             -22.1667
       ...           ...                  ...                  ...
        84        1.9929           -0.5111115             -13.9081
        85        1.9767           -0.4922013             -13.3935
        86        1.9714           -0.4889019             -13.3037
        87        1.9271           -0.4737549             -12.8915
        88        1.8800           -0.4654653             -12.6660
        89        1.8290           -0.4594253             -12.5016
        90        1.1609           -0.4270413             -11.6204 (HOMO)
        91        0.9200           -0.4193612             -11.4114 (LUMO)
        92        0.3538           -0.3975537             -10.8180
        93        0.0123           -0.3413846              -9.2895
        94        0.0025           -0.3162054              -8.6044
        95        0.0025           -0.3158836              -8.5956
       ...           ...                  ...                  ...
       171                          0.5724107              15.5761
      -------------------------------------------------------------
                  HL-Gap            0.0076800 Eh            0.2090 eV
             Fermi-level           -0.4218996 Eh          -11.4805 eV

 SCC (total)                   0 d,  0 h,  0 min,  0.119 sec
 SCC setup                      ...        0 min,  0.001 sec (  0.733%)
 Dispersion                     ...        0 min,  0.002 sec (  1.318%)
 classical contributions        ...        0 min,  0.000 sec (  0.370%)
 integral evaluation            ...        0 min,  0.018 sec ( 15.173%)
 iterations                     ...        0 min,  0.026 sec ( 21.801%)
 molecular gradient             ...        0 min,  0.071 sec ( 60.057%)
 printout                       ...        0 min,  0.001 sec (  0.536%)

         :::::::::::::::::::::::::::::::::::::::::::::::::::::
         ::                     SUMMARY                     ::
         :::::::::::::::::::::::::::::::::::::::::::::::::::::
         :: total energy             -99.250626027024 Eh    ::
         :: gradient norm              0.001970202266 Eh/a0 ::
         :: HOMO-LUMO gap              0.208984186390 eV    ::
         ::.................................................::
         :: SCC energy              -100.613884416327 Eh    ::
         :: -> isotropic ES            0.108716780453 Eh    ::
         :: -> anisotropic ES          0.002567973541 Eh    ::
         :: -> anisotropic XC          0.042961335451 Eh    ::
         :: -> dispersion             -0.075697775493 Eh    ::
         :: repulsion energy           1.361906913490 Eh    ::
         :: add. restraining           0.000002106261 Eh    ::
         :: total charge               1.000000000000 e     ::
         :::::::::::::::::::::::::::::::::::::::::::::::::::::

           -------------------------------------------------
          |                Property Printout                |
           -------------------------------------------------

    * Orbital Energies and Occupations

         #    Occupation            Energy/Eh            Energy/eV
      -------------------------------------------------------------
         1        2.0000           -0.8146128             -22.1667
       ...           ...                  ...                  ...
        78        1.9981           -0.5321384             -14.4802
        79        1.9977           -0.5292373             -14.4013
        80        1.9976           -0.5285945             -14.3838
        81        1.9967           -0.5234995             -14.2451
        82        1.9947           -0.5158047             -14.0358
        83        1.9932           -0.5118340             -13.9277
        84        1.9929           -0.5111115             -13.9081
        85        1.9767           -0.4922013             -13.3935
        86        1.9714           -0.4889019             -13.3037
        87        1.9271           -0.4737549             -12.8915
        88        1.8800           -0.4654653             -12.6660
        89        1.8290           -0.4594253             -12.5016
        90        1.1609           -0.4270413             -11.6204 (HOMO)
        91        0.9200           -0.4193612             -11.4114 (LUMO)
        92        0.3538           -0.3975537             -10.8180
        93        0.0123           -0.3413846              -9.2895
        94        0.0025           -0.3162054              -8.6044
        95        0.0025           -0.3158836              -8.5956
        96        0.0022           -0.3138831              -8.5412
        97        0.0015           -0.3084880              -8.3944
        98        0.0000           -0.1914285              -5.2090
        99        0.0000           -0.1864476              -5.0735
       100                         -0.1396289              -3.7995
       101                         -0.0700766              -1.9069
       ...                                ...                  ...
       171                          0.5724107              15.5761
      -------------------------------------------------------------
                  HL-Gap            0.0076800 Eh            0.2090 eV
             Fermi-level           -0.4218996 Eh          -11.4805 eV

     #   Z          covCN         q      C6AA      α(0)
     1   7 N        1.774    -0.265    27.707     7.795
     2   6 C        2.824     0.102    25.736     8.313
     3   6 C        3.909     0.011    20.335     6.409
     4   6 C        2.976     0.014    27.685     8.631
     5   6 C        2.009    -0.123    34.454     9.480
     6   6 C        2.882     0.133    25.097     8.213
     7   8 O        1.707    -0.197    17.289     5.614
     8   6 C        3.642     0.029    20.437     6.500
     9   6 C        2.866     0.130    25.141     8.219
    10   8 O        1.706    -0.226    17.751     5.688
    11   6 C        3.645     0.027    20.450     6.499
    12   6 C        2.912    -0.079    29.984     8.979
    13   6 C        2.927    -0.050    29.253     8.870
    14   6 C        3.813    -0.065    21.737     6.636
    15   6 C        3.802    -0.070    21.830     6.652
    16   6 C        2.844     0.013    27.711     8.627
    17   7 N        2.729     0.016    20.973     6.802
    18   6 C        3.756    -0.017    20.932     6.523
    19   6 C        3.808    -0.071    21.848     6.654
    20   6 C        2.969     0.001    28.013     8.682
    21   6 C        2.922    -0.048    29.197     8.861
    22   6 C        2.914    -0.067    29.667     8.931
    23   6 C        2.865     0.134    25.062     8.206
    24   8 O        1.706    -0.219    17.640     5.671
    25   6 C        3.645     0.024    20.502     6.507
    26   6 C        2.863     0.134    25.072     8.207
    27   8 O        1.706    -0.222    17.689     5.679
    28   6 C        3.645     0.026    20.465     6.502
    29   6 C        2.919    -0.079    29.981     8.979
    30   6 C        3.700    -0.071    22.033     6.713
    31   6 C        3.855    -0.007    20.672     6.466
    32   6 C        3.756    -0.118    22.812     6.810
    33   6 C        3.755    -0.119    22.828     6.813
    34   1 H        0.000    -0.132    17.039     7.548
    35   1 H        0.924     0.067     2.123     2.278
    36   1 H        0.925     0.086     1.919     2.166
    37   1 H        0.899     0.111     1.695     2.037
    38   1 H        0.924     0.056     2.246     2.343
    39   1 H        0.925     0.083     1.953     2.185
    40   1 H        0.924     0.049     2.334     2.389
    41   1 H        0.926     0.053     2.286     2.364
    42   1 H        0.926     0.041     2.434     2.440
    43   1 H        0.925     0.073     2.049     2.238
    44   1 H        0.924     0.053     2.281     2.362
    45   1 H        0.925     0.073     2.058     2.244
    46   1 H        0.924     0.088     1.901     2.156
    47   1 H        0.922     0.004     2.984     2.701
    48   1 H        0.926     0.073     2.057     2.243
    49   1 H        0.924     0.068     2.104     2.268
    50   1 H        0.924     0.068     2.105     2.269
    51   1 H        0.924     0.057     2.235     2.338
    52   1 H        0.924     0.057     2.237     2.339
    53   1 H        0.926     0.047     2.361     2.403
    54   1 H        0.926     0.060     2.199     2.319
    55   1 H        0.924     0.055     2.254     2.348
    56   1 H        0.924     0.057     2.232     2.336
    57   1 H        0.925     0.084     1.942     2.179
    58   1 H        0.925     0.083     1.948     2.183
    59   1 H        0.924     0.049     2.328     2.386
    60   1 H        0.924     0.054     2.275     2.359
    61   1 H        0.926     0.048     2.345     2.395
    62   1 H        0.924     0.080     1.978     2.199
    63   1 H        0.924     0.080     1.975     2.198
    64   1 H        0.925     0.081     1.970     2.195
    65   1 H        0.924     0.047     2.363     2.404
    66   1 H        0.925     0.069     2.094     2.263
    67   1 H        0.925     0.036     2.498     2.472
    68   1 H        0.925     0.052     2.292     2.367
    69   1 H        0.925     0.060     2.198     2.319
    70   1 H        0.925     0.037     2.488     2.467
    71   1 H        0.925     0.056     2.248     2.345
    72   1 H        0.860     0.158     1.351     1.821

 Mol. C6AA /au·bohr⁶  :      48424.781276
 Mol. C8AA /au·bohr⁸  :    1099076.105982
 Mol. α(0) /au        :        338.996383


Wiberg/Mayer (AO) data.
largest (>0.10) Wiberg bond orders for each atom

 ---------------------------------------------------------------------------
     #   Z sym  total        # sym  WBO       # sym  WBO       # sym  WBO
 ---------------------------------------------------------------------------
     1   7 N    3.037 --     2 C    1.955    72 H    0.941
     2   6 C    3.931 --     1 N    1.955     3 C    1.000    47 H    0.900
     3   6 C    3.961 --     2 C    1.000     4 C    0.959    14 C    0.954
                            31 C    0.939
     4   6 C    3.915 --     5 C    1.400    13 C    1.356     3 C    0.959
     5   6 C    3.040 --     6 C    1.401     4 C    1.400
     6   6 C    3.864 --     5 C    1.401     9 C    1.184     7 O    1.084
     7   8 O    2.273 --     6 C    1.084     8 C    1.020
     8   6 C    3.711 --     7 O    1.020    36 H    0.969    35 H    0.960
                            37 H    0.715
     9   6 C    3.840 --    12 C    1.383     6 C    1.184    10 O    1.105
    10   8 O    2.248 --     9 C    1.105    11 C    0.973
    11   6 C    3.925 --    39 H    0.976    40 H    0.974    38 H    0.973
                            10 O    0.973
    12   6 C    3.954 --    13 C    1.414     9 C    1.383    41 H    0.959
    13   6 C    3.887 --    12 C    1.414     4 C    1.356    42 H    0.955
    14   6 C    3.969 --    15 C    0.980    44 H    0.973    43 H    0.966
                             3 C    0.954
    15   6 C    3.984 --    16 C    1.064    14 C    0.980    45 H    0.959
                            46 H    0.921
    16   6 C    3.622 --    17 N    1.420    15 C    1.064    48 H    0.956
    17   7 N    3.499 --    16 C    1.420    30 C    0.997    18 C    0.987
    18   6 C    3.955 --    17 N    0.987    50 H    0.968    19 C    0.967
                            49 H    0.963
    19   6 C    3.977 --    20 C    1.008    51 H    0.972    52 H    0.971
                            18 C    0.967
    20   6 C    3.941 --    21 C    1.407    29 C    1.381    19 C    1.008
    21   6 C    3.947 --    22 C    1.419    20 C    1.407    53 H    0.968
    22   6 C    3.957 --    21 C    1.419    23 C    1.381    54 H    0.963
    23   6 C    3.892 --    22 C    1.381    26 C    1.217    24 O    1.114
    24   8 O    2.256 --    23 C    1.114    25 C    0.975
    25   6 C    3.927 --    57 H    0.977    24 O    0.975    55 H    0.972
                            56 H    0.972
    26   6 C    3.895 --    29 C    1.393    23 C    1.217    27 O    1.107
    27   8 O    2.255 --    26 C    1.107    28 C    0.978
    28   6 C    3.931 --    27 O    0.978    58 H    0.977    59 H    0.973
                            60 H    0.973
    29   6 C    3.957 --    26 C    1.393    20 C    1.381    61 H    0.962
    30   6 C    3.956 --    17 N    0.997    64 H    0.978    62 H    0.966
                            63 H    0.960
    31   6 C    3.964 --    33 C    1.009    32 C    1.008    65 H    0.955
                             3 C    0.939
    32   6 C    3.974 --    31 C    1.008    67 H    0.981    68 H    0.980
                            66 H    0.972
    33   6 C    3.980 --    31 C    1.009    70 H    0.982    71 H    0.979
                            69 H    0.976
    34   1 H    0.337 --    37 H    0.253
    35   1 H    0.985 --     8 C    0.960
    36   1 H    0.987 --     8 C    0.969
    37   1 H    0.981 --     8 C    0.715    34 H    0.253
    38   1 H    0.992 --    11 C    0.973
    39   1 H    0.992 --    11 C    0.976
    40   1 H    0.993 --    11 C    0.974
    41   1 H    0.990 --    12 C    0.959
    42   1 H    0.986 --    13 C    0.955
    43   1 H    0.993 --    14 C    0.966
    44   1 H    0.996 --    14 C    0.973
    45   1 H    0.994 --    15 C    0.959
    46   1 H    0.969 --    15 C    0.921
    47   1 H    0.985 --     2 C    0.900
    48   1 H    0.994 --    16 C    0.956
    49   1 H    0.990 --    18 C    0.963
    50   1 H    0.995 --    18 C    0.968
    51   1 H    0.995 --    19 C    0.972
    52   1 H    0.996 --    19 C    0.971
    53   1 H    0.997 --    21 C    0.968
    54   1 H    0.995 --    22 C    0.963
    55   1 H    0.991 --    25 C    0.972
    56   1 H    0.991 --    25 C    0.972
    57   1 H    0.992 --    25 C    0.977
    58   1 H    0.992 --    28 C    0.977
    59   1 H    0.993 --    28 C    0.973
    60   1 H    0.992 --    28 C    0.973
    61   1 H    0.996 --    29 C    0.962
    62   1 H    0.985 --    30 C    0.966
    63   1 H    0.987 --    30 C    0.960
    64   1 H    0.993 --    30 C    0.978
    65   1 H    0.989 --    31 C    0.955
    66   1 H    0.989 --    32 C    0.972
    67   1 H    0.996 --    32 C    0.981
    68   1 H    0.993 --    32 C    0.980
    69   1 H    0.992 --    33 C    0.976
    70   1 H    0.996 --    33 C    0.982
    71   1 H    0.993 --    33 C    0.979
    72   1 H    0.969 --     1 N    0.941
 ---------------------------------------------------------------------------

Topologies differ in total number of bonds
Writing topology from bond orders to xtbtopo.mol

molecular dipole:
                 x           y           z       tot (Debye)
 q only:        1.128      -0.087      -0.323
   full:        1.496      -0.338      -0.290       3.967
molecular quadrupole (traceless):
                xx          xy          yy          xz          yz          zz
 q only:       54.318       4.467     -11.837       1.041     -10.373     -42.481
  q+dip:       48.146      11.925      -9.585       1.077     -13.273     -38.562
   full:       47.387      11.151     -10.080      -1.469     -13.399     -37.307

           -------------------------------------------------
          |                Geometry Summary                 |
           -------------------------------------------------

      molecular mass/u    :      455.6105846
   center of mass at/Å    :       -0.0040626       0.0107335       0.0282416
  moments of inertia/u·Å² :        0.2446796E+04   0.1095393E+05   0.1221710E+05
rotational constants/cm⁻¹ :        0.6889677E-02   0.1538958E-02   0.1379839E-02

 * 64 selected distances

     #   Z          #   Z                                           value/Å
     1   7 N        2   6 C                                       1.2486608
     4   6 C        5   6 C                                       1.3751304
     5   6 C        6   6 C                                       1.3698711
     6   6 C        7   8 O                                       1.3498026
     7   8 O        8   6 C                                       1.3843681
     6   6 C        9   6 C                                       1.4279808
     9   6 C       10   8 O                                       1.3455139
    10   8 O       11   6 C                                       1.4090257
     9   6 C       12   6 C                                       1.3887251
     4   6 C       13   6 C                                       1.3943760
    12   6 C       13   6 C                                       1.3893536
    14   6 C       15   6 C                                       1.5386567
    15   6 C       16   6 C                                       1.4776666
    16   6 C       17   7 N                                       1.3240643
    17   7 N       18   6 C                                       1.4442926
    18   6 C       19   6 C                                       1.5408203 (max)
    20   6 C       21   6 C                                       1.3858184
    21   6 C       22   6 C                                       1.3859074
    22   6 C       23   6 C                                       1.3878984
    23   6 C       24   8 O                                       1.3446308
    24   8 O       25   6 C                                       1.4093540
    23   6 C       26   6 C                                       1.4231952
    26   6 C       27   8 O                                       1.3467877
    27   8 O       28   6 C                                       1.4077185
    20   6 C       29   6 C                                       1.3926069
    26   6 C       29   6 C                                       1.3863670
    17   7 N       30   6 C                                       1.4438502
    31   6 C       32   6 C                                       1.5267497
    31   6 C       33   6 C                                       1.5246249
     8   6 C       35   1 H                                       1.0936086
     8   6 C       36   1 H                                       1.0860751
    11   6 C       38   1 H                                       1.0938512
    11   6 C       39   1 H                                       1.0882308
    11   6 C       40   1 H                                       1.0946625
    12   6 C       41   1 H                                       1.0785174
    13   6 C       42   1 H                                       1.0804507
    14   6 C       43   1 H                                       1.0899428
    14   6 C       44   1 H                                       1.0903990
    15   6 C       45   1 H                                       1.0883433
    15   6 C       46   1 H                                       1.0979073
    16   6 C       48   1 H                                       1.0808986
    18   6 C       49   1 H                                       1.0936335
    18   6 C       50   1 H                                       1.0919094
    19   6 C       51   1 H                                       1.0912639
    19   6 C       52   1 H                                       1.0904656
    21   6 C       53   1 H                                       1.0793817
    22   6 C       54   1 H                                       1.0775189 (min)
    25   6 C       55   1 H                                       1.0942497
    25   6 C       56   1 H                                       1.0939996
    25   6 C       57   1 H                                       1.0882109
    28   6 C       58   1 H                                       1.0882076
    28   6 C       59   1 H                                       1.0947627
    28   6 C       60   1 H                                       1.0943724
    29   6 C       61   1 H                                       1.0788104
    30   6 C       62   1 H                                       1.0917341
    30   6 C       63   1 H                                       1.0929024
    30   6 C       64   1 H                                       1.0868519
    31   6 C       65   1 H                                       1.0972947
    32   6 C       66   1 H                                       1.0854802
    32   6 C       67   1 H                                       1.0873841
    32   6 C       68   1 H                                       1.0867427
    33   6 C       69   1 H                                       1.0860517
    33   6 C       70   1 H                                       1.0865492
    33   6 C       71   1 H                                       1.0867269

 * 4 distinct bonds (by element types)

   Z      Z             #   av. dist./Å        max./Å        min./Å
   1 H    6 C          35     1.0887826     1.0979073     1.0775189
   6 C    6 C          17     1.4303381     1.5408203     1.3698711
   6 C    7 N           4     1.3652170     1.4442926     1.2486608
   6 C    8 O           8     1.3746502     1.4093540     1.3446308


optimized geometry written to: xtbopt.xyz


           -------------------------------------------------
          | TOTAL ENERGY              -99.250626027024 Eh   |
          | GRADIENT NORM               0.001970202266 Eh/α |
          | HOMO-LUMO GAP               0.208984186390 eV   |
           -------------------------------------------------

------------------------------------------------------------------------
 * finished run on 2024/04/06 at 11:12:17.222     
------------------------------------------------------------------------
 total:
 * wall-time:     0 d,  0 h,  0 min,  6.741 sec
 *  cpu-time:     0 d,  0 h,  0 min,  6.719 sec
 * ratio c/w:     0.997 speedup
 SCF:
 * wall-time:     0 d,  0 h,  0 min,  0.191 sec
 *  cpu-time:     0 d,  0 h,  0 min,  0.191 sec
 * ratio c/w:     0.999 speedup
 ANC optimizer:
 * wall-time:     0 d,  0 h,  0 min,  6.511 sec
 *  cpu-time:     0 d,  0 h,  0 min,  6.504 sec
 * ratio c/w:     0.999 speedup

