25
 energy: -43.832970416079 gnorm: 0.108513800598 xtb: 6.6.1 (8d0f1dd)
C            3.27898794935475        1.16886591580329        0.05461969200990
N            2.30361708866406        0.09217462614308        0.02621891782285
C            2.58792264969548       -1.22065076188833        0.02341478124972
N            1.42756790681510       -1.93204952254926        0.00015486545293
C            0.38594569734939       -1.04949586707312       -0.00949769771687
C            0.92594831921768        0.22612818055911        0.01112122565178
C            0.08453854149438        1.40190645475474       -0.00239159208712
O            0.48257527802052        2.55585708471361        0.00003414071344
N           -1.26120653116451        1.05833786123428       -0.03033413424290
C           -2.23115869390650        2.14975913236643       -0.04925670841713
C           -1.82511764664030       -0.20146630964892       -0.04703824935063
O           -3.00946239007870       -0.38175841740708       -0.07005526906039
N           -0.93267652184670       -1.30143378431008       -0.03651383157272
C           -1.47532852796183       -2.64562671319757       -0.05807519151478
H            3.76247439694619        1.19817286915425        1.01038178721078
H            4.11107487172807        1.03875643597619       -0.62325615775359
H            2.74234930578100        2.10766194526125       -0.09076298101431
H            3.56390872285363       -1.64472050268890        0.03860389350505
H           -1.68500532394271        3.08591009477166       -0.02428488901352
H           -2.83830834965763        2.09003815770648       -0.95265960313917
H           -2.89002649305400        2.07283518210003        0.81548956268844
H           -1.17726218766174       -3.19332134552731        0.83754860793774
H           -1.14805511198007       -3.17777251468767       -0.95099200906993
H           -2.56095059906007       -2.55844490155920       -0.07420417729760
H            1.37220013718176       -2.94025721662197       -0.01358470407055
25
 energy: -43.837569009400 gnorm: 0.040763564689 xtb: 6.6.1 (8d0f1dd)
C            3.27575308112532        1.17418754195863        0.07283015047435
N            2.31455290367725        0.10580538671551        0.02538956410272
C            2.60300472962178       -1.23287969660800        0.02131949984823
N            1.42206738411256       -1.93336457539757       -0.00174159868895
C            0.39615918883472       -1.04627460394389       -0.01129606435542
C            0.92981540697657        0.23366407607288        0.00663705134768
C            0.09636005499388        1.39665636803877       -0.00595754860800
O            0.48495443055648        2.56798098741180       -0.00122280716473
N           -1.26682300985595        1.05016217162030       -0.03107732011967
C           -2.23052274115250        2.14324586823341       -0.04883590331413
C           -1.82697366730339       -0.20058420117169       -0.04731781541345
O           -3.02331008122971       -0.38566641132535       -0.06994501545072
N           -0.93549829493234       -1.29738228598233       -0.03680547015106
C           -1.47300962806862       -2.63986767514076       -0.05738056218059
H            3.75603755810227        1.20816280926138        1.05064537805515
H            4.07150955600909        1.02997458591043       -0.65960459774229
H            2.73946495064484        2.10552570693011       -0.09841174100735
H            3.57622107354857       -1.66311324055961        0.03874518911207
H           -1.67104943019918        3.07466914082983       -0.02423380645910
H           -2.83725122490161        2.08848486185717       -0.95288162352637
H           -2.88878682231639        2.07141164712852        0.81696426385763
H           -1.17237507333712       -3.18967341203994        0.83708417241163
H           -1.14332587805965       -3.17424841273071       -0.95033084065407
H           -2.55855138538868       -2.55025176577244       -0.07391984367558
H            1.35612940668902       -2.93721878791148       -0.01397243177655
25
 energy: -43.838371912370 gnorm: 0.017333426575 xtb: 6.6.1 (8d0f1dd)
C            3.28339105693296        1.17112897888700        0.06560764708028
N            2.31497934801759        0.11598404677940        0.01145681455538
C            2.60439314389272       -1.23269669833237        0.01901878691145
N            1.41867741156581       -1.93232147502434        0.00109893398719
C            0.39802178144737       -1.04859589380335       -0.00916540156585
C            0.92459336416532        0.23676539057073        0.00504581639975
C            0.09962314510115        1.39141684026039       -0.00160045262544
O            0.47976614397794        2.56922032534511        0.00200526841157
N           -1.27498402843311        1.04882487195309       -0.02822278839640
C           -2.23591850664660        2.14526043527856       -0.04906063262532
C           -1.82492829965721       -0.19920570834528       -0.04577757323971
O           -3.02432291100118       -0.38736874505544       -0.07096051309474
N           -0.94038089133243       -1.29900510558884       -0.03445381218617
C           -1.47629927665745       -2.64247097387574       -0.05697563065855
H            3.76124289560461        1.19596732499763        1.04545282275322
H            4.10079944850673        1.03255610318289       -0.64601432413291
H            2.76144129577454        2.11047541568893       -0.10048341111434
H            3.57620090475080       -1.65469411056494        0.03815712600133
H           -1.68571520589093        3.08402893423389       -0.02393384950348
H           -2.84154128599235        2.09015278051190       -0.95349394715995
H           -2.89636415127439        2.07356061988299        0.81452159866409
H           -1.17847667331070       -3.19658228404577        0.83642840316196
H           -1.14807865340615       -3.17966136296957       -0.95016028699814
H           -2.56226201029951       -2.55787397704953       -0.07472076479959
H            1.36069444231169       -2.93545964953234       -0.00908955090418
25
 energy: -43.838473773210 gnorm: 0.014127952490 xtb: 6.6.1 (8d0f1dd)
C            3.26777762676243        1.17161578323785        0.06366306508664
N            2.30947250030143        0.11283873395108        0.01588493933626
C            2.60107823707546       -1.23726880306394        0.02597733564691
N            1.41642844188390       -1.93656719249283        0.00157065850179
C            0.39802254011292       -1.05523919364082       -0.00701370860925
C            0.91947700549738        0.23181306073915        0.01083108020670
C            0.10667503755759        1.38579528437825       -0.00357740561594
O            0.48352844066804        2.56318075455962       -0.00197117874570
N           -1.27369839062546        1.04857073778854       -0.03082627161615
C           -2.22732666697116        2.14813346773994       -0.04906768432611
C           -1.81911849310521       -0.19725709030543       -0.04757320482353
O           -3.01827936681342       -0.38522167617237       -0.07167932947413
N           -0.94161597383738       -1.30016974673868       -0.03584862880559
C           -1.47533794911981       -2.64212689564825       -0.05765740879550
H            3.75784778594632        1.20637901046710        1.03396558612142
H            4.08867987917206        1.04513052734653       -0.64566085914643
H            2.73209616989869        2.10543502467165       -0.09290463402225
H            3.57293144109638       -1.65261447021249        0.04197484828071
H           -1.67089111443094        3.08338422658433       -0.02489892014558
H           -2.83465065452262        2.09421030842044       -0.95229694034993
H           -2.88344595452907        2.07681848322004        0.81765505974459
H           -1.17490577634755       -3.19259522789406        0.83726480869546
H           -1.14574141984375       -3.17800741534932       -0.95141763898388
H           -2.56105890508098       -2.55642143582843       -0.07459043528940
H            1.36660804740195       -2.94041017237289       -0.01712285394967
25
 energy: -43.838674056678 gnorm: 0.006399681794 xtb: 6.6.1 (8d0f1dd)
C            3.27444301513581        1.16693654171770        0.06779366396424
N            2.31130720033918        0.11154761517442        0.01941809517585
C            2.59974904930537       -1.23617186512508        0.02479612186360
N            1.41603879630766       -1.93239302758646        0.00025187745761
C            0.39798092841453       -1.05045813828524       -0.00937635173947
C            0.92115766730069        0.23611061352858        0.01021290100232
C            0.10518876688523        1.39141002492960       -0.00491221948337
O            0.47864252280505        2.56793278954769       -0.00092635977507
N           -1.27504800408059        1.05108285807559       -0.03128568128353
C           -2.23459561503321        2.14393348247263       -0.04931246012186
C           -1.81975831265403       -0.19599072237126       -0.04753024200442
O           -3.01768909600473       -0.38629475831687       -0.06945888900882
N           -0.93976001534533       -1.29604676333936       -0.03709650709725
C           -1.47272456005521       -2.63808407757680       -0.05726867798187
H            3.76359264780139        1.20252983002318        1.03880721299015
H            4.08864525309132        1.02750840062808       -0.64625387856777
H            2.74677810206436        2.10480377094148       -0.09581848294122
H            3.57196875364669       -1.65477009885834        0.03680893692842
H           -1.67965179794672        3.07880739019829       -0.02408657359299
H           -2.84052442831160        2.08667319596475       -0.95348475798091
H           -2.89253655901469        2.06894892218904        0.81611960255344
H           -1.17147897446650       -3.18776368878056        0.83765440091899
H           -1.14348389367080       -3.17317575396413       -0.95106227339248
H           -2.55838482657447       -2.55092114650771       -0.07334936148082
H            1.36469586820781       -2.93674931129422       -0.01595981748132
25
 energy: -43.838702160700 gnorm: 0.005722752146 xtb: 6.6.1 (8d0f1dd)
C            3.27624499512451        1.17039250159508        0.06727674390504
N            2.31374390495997        0.11156773729595        0.01480049118514
C            2.60164416053485       -1.23504573286293        0.02173411542922
N            1.41808526849484       -1.93168461972566        0.00059782928428
C            0.39771069946978       -1.05145466861280       -0.01085470693274
C            0.92259386474336        0.23539950167529        0.00650015906033
C            0.10522950943442        1.39106029437576       -0.00366759770786
O            0.47823585573126        2.56717353613045        0.00144384024739
N           -1.27540275017027        1.04987428095634       -0.02946665309821
C           -2.23215679907610        2.14591437039931       -0.04864630228111
C           -1.82209487427317       -0.19823811250219       -0.04626196567415
O           -3.02029681359770       -0.38808798335004       -0.06985248552351
N           -0.94053187965455       -1.29868251637502       -0.03625796666708
C           -1.47578002809558       -2.64207821454319       -0.05738191400469
H            3.75784513088408        1.20371717512270        1.04331856319918
H            4.09107064952815        1.03519751679311       -0.64729283709208
H            2.75012603603376        2.10894016658880       -0.09926540331855
H            3.57517550362940       -1.65444365019511        0.03672551019561
H           -1.67494323800824        3.07941276906057       -0.02378401817071
H           -2.83796563016775        2.09244854598341       -0.95309664049722
H           -2.89187280675732        2.07620426646127        0.81587687501662
H           -1.17851394743370       -3.19594338427881        0.83624723272526
H           -1.14781393271073       -3.17910017564490       -0.95028254325206
H           -2.56180222475834       -2.55674279170624       -0.07516819096465
H            1.36602183428228       -2.93639472925614       -0.00856185614202
25
 energy: -43.838749524923 gnorm: 0.002370909148 xtb: 6.6.1 (8d0f1dd)
C            3.27530148744134        1.16931703494491        0.06665444473846
N            2.31342520283133        0.11087359704852        0.01603833406876
C            2.60073401191163       -1.23652247707275        0.02393053569832
N            1.41680224086992       -1.93254485195692       -0.00046966551924
C            0.39756094024832       -1.05187134629102       -0.00926499011907
C            0.92202746173694        0.23514536988554        0.00868548325427
C            0.10712395458137        1.39069455411474       -0.00352684097009
O            0.48018050487795        2.56695577106910       -0.00048172688154
N           -1.27517908584978        1.05046413650201       -0.03017363459937
C           -2.23250742037840        2.14577514898358       -0.04930253176405
C           -1.82144185045819       -0.19694689255895       -0.04668964474001
O           -3.01988671121427       -0.38635626991220       -0.07127653555557
N           -0.94088641040638       -1.29777677043274       -0.03568294264283
C           -1.47458325703997       -2.64088285812893       -0.05689264755180
H            3.76063290724142        1.20162413061513        1.04034113163616
H            4.09056754395198        1.03698025749392       -0.64823695693117
H            2.74605665883733        2.10676333134905       -0.09529913598411
H            3.57390543304238       -1.65527555689362        0.03959797462659
H           -1.67929066662537        3.08191997477146       -0.02482408095845
H           -2.83933539213525        2.09013955920993       -0.95296008679834
H           -2.89071570895883        2.07325274102950        0.81603119584741
H           -1.17466156481814       -3.19238395000913        0.83736151694781
H           -1.14534811646047       -3.17680911444965       -0.95020219633338
H           -2.56059976711200       -2.55586841941448       -0.07384788789736
H            1.36467009203236       -2.93726101651200       -0.01482883264996
25
 energy: -43.838748565803 gnorm: 0.002277654385 xtb: 6.6.1 (8d0f1dd)
C            3.27427577619294        1.16907425507986        0.06626385094889
N            2.31252203675389        0.11128259354669        0.01696758409310
C            2.60017036139606       -1.23595124458983        0.02473530677270
N            1.41690878667125       -1.93238697856300        0.00142961579469
C            0.39763162736917       -1.05213515382782       -0.00874261997443
C            0.92105149147514        0.23538046246752        0.00928724253878
C            0.10699883990065        1.39045442341391       -0.00394504221331
O            0.47848511904225        2.56711368352353       -0.00048803782930
N           -1.27573936061417        1.04966989843465       -0.03041812453768
C           -2.23211872033693        2.14503116383359       -0.04871691162944
C           -1.82109493545995       -0.19743956361707       -0.04716682282965
O           -3.01933952908024       -0.38742111112763       -0.07016006760686
N           -0.94061035323667       -1.29781751197702       -0.03623474262718
C           -1.47439861182696       -2.64026713360222       -0.05798041666234
H            3.75975282953454        1.20437265795089        1.03939818150288
H            4.09070864565494        1.03239442898060       -0.64601057999847
H            2.74545192285255        2.10629965651382       -0.09889540674454
H            3.57349967706330       -1.65351027810803        0.03760129009913
H           -1.67627715732499        3.07965838425691       -0.02324480414738
H           -2.83825148489565        2.09045953929879       -0.95298015137251
H           -2.89048676804449        2.07238605937173        0.81659665228376
H           -1.17461298738511       -3.19130606332551        0.83658238451166
H           -1.14542830133771       -3.17563686753070       -0.95177345821635
H           -2.56017207929669       -2.55310515266613       -0.07491555741585
H            1.36562566308009       -2.93719406435254       -0.01250908581885
25
 energy: -43.838757034293 gnorm: 0.001021180916 xtb: 6.6.1 (8d0f1dd)
C            3.27482444086262        1.16930714588424        0.06741125040639
N            2.31300131940965        0.11109989257984        0.01638224732575
C            2.60035504484685       -1.23593361248226        0.02320675862133
N            1.41714568554637       -1.93220013020220       -0.00018598552242
C            0.39760435395136       -1.05199012857814       -0.00980988463647
C            0.92140174582262        0.23549411804694        0.00844556853628
C            0.10716515093117        1.39084238763848       -0.00396653151430
O            0.47875373324108        2.56733298847634       -0.00002808759664
N           -1.27568541777149        1.04998950306273       -0.03039035865965
C           -2.23234511172798        2.14534513267099       -0.04934586979743
C           -1.82124893266998       -0.19731392166358       -0.04692220829383
O           -3.01945486475650       -0.38714218279043       -0.06989822306186
N           -0.94060188569753       -1.29788302946948       -0.03625477687045
C           -1.47456021421933       -2.64077577957895       -0.05694631147907
H            3.76045078497146        1.20244892807705        1.04071039756286
H            4.09009794711785        1.03441689980907       -0.64661526685631
H            2.74635533643422        2.10702640587836       -0.09548082214959
H            3.57373411745930       -1.65405487598369        0.03677639559988
H           -1.67679844133592        3.08010370904748       -0.02476083065955
H           -2.83869936451095        2.09033717079862       -0.95344158194424
H           -2.89104777222882        2.07382805094299        0.81584759507418
H           -1.17498573876323       -3.19208473647569        0.83751208416339
H           -1.14593190816519       -3.17704932739000       -0.95022479364192
H           -2.56043776425888       -2.55471856970530       -0.07372390129479
H            1.36546024365850       -2.93701995520844       -0.01361658439010
25
 energy: -43.838739891002 gnorm: 0.002574379266 xtb: 6.6.1 (8d0f1dd)
C            3.27580166955717        1.16942510968017        0.06544963412566
N            2.31402272346788        0.11039645214066        0.01602908134660
C            2.60065543852974       -1.23660057006059        0.02550479286737
N            1.41718488829149       -1.93233363355167        0.00090526209389
C            0.39757450482103       -1.05188647478045       -0.00930763879497
C            0.92218636785338        0.23538177990609        0.00837403343316
C            0.10796539110629        1.39117932515493       -0.00356367468951
O            0.48020390560346        2.56734455640116        0.00007229659453
N           -1.27531595731357        1.05063577412688       -0.02993860957659
C           -2.23285278289460        2.14566319905545       -0.04828202597310
C           -1.82144358430211       -0.19676689267776       -0.04690333742946
O           -3.01970707736631       -0.38619919830315       -0.07186797681043
N           -0.94067429479139       -1.29767859973375       -0.03604256491612
C           -1.47471808688517       -2.64095930635060       -0.05801779625307
H            3.76047277361232        1.20327857036944        1.03947248498968
H            4.09054038461287        1.03596579726558       -0.64971456909727
H            2.74693719003148        2.10665722848981       -0.09868735399914
H            3.57395710027230       -1.65580289680641        0.04247268027489
H           -1.67987126831722        3.08188528994438       -0.02333717137582
H           -2.83992036296900        2.09056912848646       -0.95187785636404
H           -2.89129415037615        2.07285016348338        0.81695625023917
H           -1.17572262576797       -3.19362118360830        0.83580284183728
H           -1.14514253314886       -3.17647028089057       -0.95133261655356
H           -2.56075626362273       -2.55636701483437       -0.07565644338847
H            1.36446913814288       -2.93714023952179       -0.01182944365924
25
 energy: -43.828238921008 gnorm: 0.097212921111 xtb: 6.6.1 (8d0f1dd)
C            3.32308876608603        1.16662492439261        0.02819770619528
N            2.30870189122210        0.10781800713858        0.01169406443908
C            2.58535969069254       -1.21683170660239        0.01178891865397
N            1.41771788264744       -1.92912419138691       -0.00063320625796
C            0.38220850501875       -1.03983547258523       -0.01102178882642
C            0.91870377405347        0.23918744581850        0.00428555539468
C            0.07438334510396        1.39935669091832       -0.00133993320126
O            0.46693639275956        2.56713207631485        0.00377200582142
N           -1.27170568688722        1.05417562409968       -0.02982545424765
C           -2.24331258148280        2.14448615706410       -0.04851590939830
C           -1.83283815892822       -0.20281789814341       -0.04712315147343
O           -3.01895655651940       -0.38522177762306       -0.07002630083230
N           -0.93910054659504       -1.30063811963117       -0.03616622085640
C           -1.48052893600340       -2.64457680375299       -0.05558297239280
H            3.81797883477259        1.17635494022653        0.96300707926038
H            4.21437757611801        1.04123890336220       -0.57321450025310
H            2.78641640668696        2.11011717253322       -0.09696732964833
H            3.55491965073527       -1.64448835145168        0.03411069476358
H           -1.69920808773998        3.07949594633567       -0.02310794560360
H           -2.85230022318129        2.08571546252067       -0.95209840800817
H           -2.90359731346216        2.06815740392058        0.81633522619883
H           -1.18390677090629       -3.19064858459981        0.84263216323979
H           -1.15037164619175       -3.18023908820319       -0.94495221632466
H           -2.56638515175686       -2.56034695955572       -0.07393468161937
H            1.36330504203321       -2.93710676722088       -0.01325244331464
25
 energy: -43.833544466360 gnorm: 0.040832743784 xtb: 6.6.1 (8d0f1dd)
C            3.31022066097714        1.16855661509427        0.06106345946090
N            2.32141863013029        0.11585230396430        0.01176568868033
C            2.60112575407442       -1.22826797010442        0.00780690348819
N            1.41730387975073       -1.92716504177697       -0.00432587612014
C            0.39572050593124       -1.03673636736701       -0.01406032869843
C            0.92920430471562        0.24517711931631       -0.00231254282778
C            0.08994933655249        1.39804676630892       -0.00663116393831
O            0.47100893846781        2.57444132412679        0.00248782140006
N           -1.27421704540962        1.04983688054304       -0.03079901744110
C           -2.24142136779140        2.13999948132181       -0.04792877812112
C           -1.83096616460135       -0.20044926025496       -0.04713188095666
O           -3.02707359933756       -0.38841658885868       -0.06960160082709
N           -0.93746108633297       -1.29437040468492       -0.03634203351195
C           -1.47468451596265       -2.63732947089978       -0.05444600226084
H            3.79330834171607        1.18869073316504        1.03560742488029
H            4.13779397970597        1.01622834465554       -0.64374101496952
H            2.78517232275154        2.10624449965467       -0.11095001503960
H            3.57063406556351       -1.66259482881302        0.03500460283144
H           -1.68528793287147        3.07252320976203       -0.02316424231674
H           -2.84924449902676        2.08362548202223       -0.95170074901236
H           -2.90042546763839        2.06618074605358        0.81763439331036
H           -1.17745691548191       -3.18603972745676        0.84231032125006
H           -1.14415812633993       -3.17560269849405       -0.94466362665755
H           -2.56058064883184       -2.54937156398090       -0.07344063089384
H            1.35200274756451       -2.93107454940799       -0.01438015999997
25
 energy: -43.834886837793 gnorm: 0.020169051843 xtb: 6.6.1 (8d0f1dd)
C            3.32269463291472        1.16563284159978        0.04913066157838
N            2.32461920413037        0.12349244175106       -0.00692103587998
C            2.60010387502674       -1.22726322169315        0.00410339091994
N            1.41338724225455       -1.92440525602709       -0.00063675967405
C            0.39513371309170       -1.03768703609843       -0.01167626590283
C            0.92726278302028        0.24787116553643       -0.00471994138882
C            0.09018601857873        1.39601525441879       -0.00244613943625
O            0.46211287976742        2.57526696947547        0.00448297939340
N           -1.28268898349732        1.04776611275162       -0.02783738671617
C           -2.24825712191679        2.13963508966379       -0.04803511949088
C           -1.83293890352630       -0.20104506930553       -0.04558290077899
O           -3.03093743413510       -0.39143617832717       -0.07067752806885
N           -0.94299787701905       -1.29568774020699       -0.03354443180944
C           -1.47940572943738       -2.64019602263532       -0.05375348306527
H            3.80380662569307        1.17638943416131        1.02442352905200
H            4.17779010851296        1.02954749775897       -0.61895825114388
H            2.81272179230409        2.11258014857083       -0.11005451351835
H            3.56845065895537       -1.65769481407605        0.03390332209245
H           -1.69675095860823        3.07636307953793       -0.02264611518834
H           -2.85468514230999        2.08404551680580       -0.95239502759942
H           -2.90888972105059        2.06704541777307        0.81577277735994
H           -1.18464825313925       -3.19222921457507        0.84194057286826
H           -1.14977682879479       -3.18039121842158       -0.94420957116988
H           -2.56604339960014       -2.55727759372332       -0.07423757833242
H            1.35163691706046       -2.92835257082605       -0.00736423239188
25
 energy: -43.834933719966 gnorm: 0.013662113733 xtb: 6.6.1 (8d0f1dd)
C            3.30599600373608        1.16619222775093        0.04205623135103
N            2.31915059216881        0.12009730473232       -0.00171493183274
C            2.59632675058131       -1.23208599783297        0.01458375348261
N            1.41122816809199       -1.92986764663589        0.00116844553316
C            0.39422883143134       -1.04560195027783       -0.00710411506702
C            0.92218262385822        0.24185269361431        0.00532029641809
C            0.09743703459706        1.39133079640122       -0.00140157248934
O            0.46711490884290        2.56964833054788        0.00392824587174
N           -1.28144126792294        1.04727666287180       -0.02957367519349
C           -2.23914738534211        2.14361972217196       -0.04857679430924
C           -1.82824189836751       -0.19952259928540       -0.04753234577913
O           -3.02643165316547       -0.38839537506108       -0.07275924832312
N           -0.94525830423622       -1.29775839947909       -0.03462619616595
C           -1.47870547675468       -2.64149787473683       -0.05522130952852
H            3.80475535017028        1.18830617797774        1.00332393583770
H            4.17054590914579        1.04459165414052       -0.61457300884772
H            2.77927175220245        2.10682067756795       -0.10320912753745
H            3.56542637808625       -1.65491745492028        0.03995882612349
H           -1.68375307144858        3.07849324163618       -0.02389450386806
H           -2.84672509031642        2.09015388330918       -0.95199364341153
H           -2.89616404167051        2.07259853919053        0.81770097858130
H           -1.18082046204671       -3.19003771343092        0.84165054518501
H           -1.14683929426896       -3.18014234791597       -0.94618853698403
H           -2.56519156309931       -2.55829157778815       -0.07510958561406
H            1.35694130400246       -2.93487794065903       -0.01815171172410
25
 energy: -43.835253283003 gnorm: 0.006939112817 xtb: 6.6.1 (8d0f1dd)
C            3.31165151419534        1.16097410403269        0.04968061578811
N            2.32017624903634        0.12175599201303        0.00036193772279
C            2.59632348472374       -1.23006677944815        0.01129440933045
N            1.41160067102701       -1.92571894243862       -0.00127097165174
C            0.39543496082347       -1.04132292744922       -0.01123679246533
C            0.92248178740588        0.24682969264949        0.00196669316439
C            0.09727329602926        1.39602462303561       -0.00607742930580
O            0.46355807249921        2.57497833753520        0.00131976196417
N           -1.28321342197068        1.04948308095455       -0.03129396720364
C           -2.24669765154543        2.13975161443527       -0.04844864352597
C           -1.82729060727155       -0.19788198415142       -0.04765533057880
O           -3.02505360296049       -0.38944979723225       -0.06895536290128
N           -0.94330256065092       -1.29393940176727       -0.03649882951591
C           -1.47620872071862       -2.63742273715134       -0.05388574372401
H            3.80742798427165        1.18083184192972        1.01384666414483
H            4.16991021713798        1.02150516787933       -0.61428904756961
H            2.79525894030413        2.10682637040905       -0.10479938702422
H            3.56585745981904       -1.65349802362510        0.03242167460539
H           -1.69583759573241        3.07656552216422       -0.02320436679528
H           -2.85422902534061        2.08242692606247       -0.95181464903471