25
 energy: 0.000000000000 xtb: 6.6.1 (8d0f1dd)
C            3.23720132972391        1.16630909158653        0.08434468864950
N            2.29877796055224        0.07527476373246        0.03981602671198
C            2.58028186251803       -1.21425391179017        0.03006175752192
N            1.43813944744728       -1.93419254010258        0.00098261751768
C            0.39035684826767       -1.05887462812143       -0.00790371763344
C            0.93510047688824        0.21347817468824        0.01709077332874
C            0.09450143016486        1.40504290868848       -0.00410946993748
O            0.49712746915594        2.54126690785742       -0.00342325656480
N           -1.25076628431515        1.06271869620815       -0.03085477937476
C           -2.21907191394203        2.15522079838987       -0.05001256521996
C           -1.81739470187490       -0.20012724136556       -0.04692818139228
O           -2.99983858926755       -0.37846413507442       -0.07008877579474
N           -0.92618577614240       -1.30210203518959       -0.03682761236648
C           -1.46982251276835       -2.64643077634382       -0.06029819901142
H            3.71247229913541        1.21471443890471        1.06488839270555
H            4.00791460421487        1.03430799217987       -0.67357688121503
H            2.69909982127087        2.09770098766290       -0.09130154035862
H            3.56654087521359       -1.63682977417947        0.04233139674524
H           -1.67107945562430        3.09322822573871       -0.02552706696334
H           -2.82428927394145        2.09428605349656       -0.95318074103337
H           -2.87644002486466        2.07745706351925        0.81450059976605
H           -1.17061985538665       -3.19584861009707        0.83242224714061
H           -1.14560246782873       -3.17511580834413       -0.95688266944647
H           -2.55549768731684       -2.55659960601237       -0.07459039105944
H            1.38130842369251       -2.94313824728853       -0.01389874052104
25
 energy: -6.017981628273 xtb: 6.6.1 (8d0f1dd)
C            3.27527285615257        1.16937825712069        0.06629653528875
N            2.31354486391199        0.11068865373789        0.01622489328832
C            2.60048904932319       -1.23629325774165        0.02444414114914
N            1.41720479099778       -1.93230619030842        0.00041019938751
C            0.39756469179378       -1.05203883227165       -0.00917977895168
C            0.92172455340843        0.23538193164438        0.00864631601965
C            0.10767492966333        1.39087251024682       -0.00361573243527
O            0.47940489631321        2.56723731702748       -0.00030406945029
N           -1.27560131571638        1.05015099974436       -0.03008075615213
C           -2.23247434722620        2.14544332891169       -0.04883629975299
C           -1.82146114970318       -0.19711844356914       -0.04672700636231
O           -3.01969984476684       -0.38682540993054       -0.07103512515162
N           -0.94066455125086       -1.29779348704344       -0.03585313482749
C           -1.47466884394053       -2.64075191055467       -0.05748411379845
H            3.75983276612577        1.20318560202795        1.04023593911344
H            4.09081198250623        1.03516817632735       -0.64766902355928
H            2.74644269096425        2.10664863637751       -0.09790262627154
H            3.57387413959496       -1.65489471519053        0.03941747042577
H           -1.67828674798940        3.08100323418855       -0.02380067464335
H           -2.83903747917446        2.09049919236006       -0.95279060665427
H           -2.89099560331191        2.07297473470144        0.81636752856245
H           -1.17517974685813       -3.19264310937620        0.83665143879907
H           -1.14550920641879       -3.17632503777213       -0.95097441719916
H           -2.56061083826072       -2.55512182304904       -0.07463114532122
H            1.36489995200913       -2.93711427422377       -0.01312967258159
25
 energy: -4.691263329360 xtb: 6.6.1 (8d0f1dd)
C            3.31306430876510        1.16340638090250        0.04873151477656
N            2.32284589864856        0.12065813406765       -0.00253168777257
C            2.59676692918966       -1.23131173642417        0.01113963542961
N            1.41177382599434       -1.92547229229030       -0.00121109562581
C            0.39501274172000       -1.04232666263603       -0.01092697403110
C            0.92297214899425        0.24638034353167        0.00085549153826
C            0.09983884441233        1.39521734257248       -0.00335306563742
O            0.46330463300043        2.57432437315431        0.00369275526691
N           -1.28424957104651        1.04841329005890       -0.02932106599462
C           -2.24491426886834        2.14054034434843       -0.04823386415943
C           -1.82880011371080       -0.19875694075188       -0.04649982380466
O           -3.02689184633345       -0.39022178250683       -0.07122780823223
N           -0.94423903874611       -1.29496702215216       -0.03491955231568
C           -1.47780523753211       -2.63923256073082       -0.05422892541288
H            3.80479980177648        1.18272210778029        1.01598846199892
H            4.17043269025783        1.03109392788641       -0.61953327059400
H            2.79626993691782        2.10866851382849       -0.10717939160858
H            3.56676305455631       -1.65613062939099        0.03552772565574
H           -1.69232884132479        3.07634428612314       -0.02307356629533
H           -2.85228061810963        2.08524880325084       -0.95203681802998
H           -2.90409913050524        2.06778440046249        0.81676281326973
H           -1.18121079186387       -3.18938422158007        0.84202524591077
H           -1.14703695162947       -3.17814822301101       -0.94498670714724
H           -2.56437856735184       -2.55591922712483       -0.07414989315465
H            1.35627626106456       -2.93094591547943       -0.01324918232169
25
 energy: -2.413949059644 xtb: 6.6.1 (8d0f1dd)
C            3.35339760870858        1.15490386133544        0.03592717079033
N            2.33228092322336        0.13038711775924       -0.02141144320133
C            2.59246216083765       -1.22551781000041        0.00110847218560
N            1.40666309829618       -1.91812579698082       -0.00249854515279
C            0.39248664721371       -1.03261760703294       -0.01299728962482
C            0.92410408559855        0.25741700870773       -0.00763348717286
C            0.09139911029373        1.39883540269972       -0.00369790862138
O            0.44594188404482        2.58029156942545        0.00770004198993
N           -1.29333032630281        1.04659376407066       -0.02887412657459
C           -2.25735353882386        2.13597660169287       -0.04747891430064
C           -1.83628235062214       -0.20054843296886       -0.04643545334697
O           -3.03412083071816       -0.39414948654408       -0.07123634536096
N           -0.94777703118825       -1.29210440938791       -0.03416553710483
C           -1.48084695308729       -2.63758172979795       -0.05101074917539
H            3.84990296870914        1.15440976962352        0.99943482517108
H            4.24994703814092        1.02443191865991       -0.58792254462337
H            2.84801781352976        2.10845158524700       -0.11185976929451
H            3.55972244470384       -1.65561074042466        0.03093544824426
H           -1.70670622378714        3.07240174847725       -0.02210961695683
H           -2.86565504039553        2.08026325559978       -0.95097098937430
H           -2.91687890660662        2.06250154370696        0.81743620980275
H           -1.18715676670478       -3.18599513311544        0.84730735326183
H           -1.14867119466979       -3.17994447454445       -0.93908930860676
H           -2.56804727418789       -2.55672496985092       -0.07378665900685
H            1.34852092088618       -2.92430436140374       -0.01318649445816
25
 energy: 0.595714580522 xtb: 6.6.1 (8d0f1dd)
C            3.39641776481708        1.14332793299074        0.03056533661448
N            2.34220041983193        0.13942609968482       -0.04107001939765
C            2.58822580874763       -1.21975476426003       -0.00832873138580
N            1.40187368841974       -1.91038357664671       -0.00366466581792
C            0.39019727168483       -1.02272971109768       -0.01547006024190
C            0.92575897130180        0.26858453492440       -0.01655554282150
C            0.08296783486179        1.40238489078278       -0.00430755851517
O            0.42772537176524        2.58609479054657        0.01211839062543
N           -1.30241752354115        1.04478765185171       -0.02845860270266
C           -2.26965264454105        2.13163429272635       -0.04654516584790
C           -1.84369783697241       -0.20237377671961       -0.04631307541220
O           -3.04119339452817       -0.39852438281054       -0.07117343950775
N           -0.95108971308155       -1.28903219672393       -0.03334949605423
C           -1.48362143826933       -2.63570770212858       -0.04768818931507
H            3.89199621606322        1.11024762323993        0.99478635051201
H            4.32924371284890        1.01740445349272       -0.55207695920050
H            2.90196824007733        2.10589596328268       -0.10987785626120
H            3.55348246116705       -1.65349725527339        0.02646414106030
H           -1.72097710571064        3.06872549993872       -0.02089236478479
H           -2.87887445495976        2.07557963028654       -0.94969121796897
H           -2.92949523518421        2.05736159311615        0.81826061622525
H           -1.19285137644654       -3.18246550964315        0.85263460967282
H           -1.14978765492926       -3.18140953873342       -0.93307612709024
H           -2.57153683808537       -2.55727199839927       -0.07353376871622
H            1.34126204517688       -2.91719426444121       -0.01285717721531
25
 energy: 4.265750778730 xtb: 6.6.1 (8d0f1dd)
C            3.43819076532695        1.12986536426039        0.02260992383358
N            2.35121895914426        0.14724789194599       -0.06384142358596
C            2.58387498360286       -1.21414833996078       -0.01746351559779
N            1.39728386168855       -1.90258387408908       -0.00485322192766
C            0.38801510992791       -1.01278798099699       -0.01830482438473
C            0.92740190776849        0.27986949802477       -0.02638774300327
C            0.07476907306140        1.40668296387808       -0.00500946470972
O            0.40954190603047        2.59242849224309        0.01686682973830
N           -1.31133957406165        1.04321411423953       -0.02785808688710
C           -2.28175137019202        2.12757370418121       -0.04584648659268
C           -1.85090804462977       -0.20404478699911       -0.04603343267545
O           -3.04797362908325       -0.40330870434309       -0.07118591739502
N           -0.95419246386950       -1.28570415693047       -0.03226320447577
C           -1.48610586731843       -2.63344118044292       -0.04391738876182
H            3.91584863463790        1.05204378092488        0.99061928200528
H            4.40825598184623        1.01164270121433       -0.51774574624125
H            2.95475277028652        2.10213034944450       -0.10640236809757
H            3.54811926491175       -1.64926514297473        0.02199633290315
H           -1.73520414383098        3.06552602213237       -0.01996901797954
H           -2.89155009463663        2.07088288942733       -0.94883814651311
H           -2.94212902772144        2.05247219667347        0.81864517045225
H           -1.19831169833331       -3.17838387331404        0.85844212691291
H           -1.15060550295788       -3.18250466203089       -0.92659084983575
H           -2.57492579268706       -2.55665117024850       -0.07298624015463
H            1.33427215968759       -2.90987004120809       -0.01250395233242
25
 energy: 8.929677961713 xtb: 6.6.1 (8d0f1dd)
C            3.47100221630586        1.11788705025954       -0.00040761133153
N            2.35748916057720        0.15417737570235       -0.08901887057026
C            2.57896436221003       -1.20812953321028       -0.02487329907779
N            1.39259217776863       -1.89472540479278       -0.00588371878745
C            0.38534080567571       -1.00318158412201       -0.02203526531794
C            0.92767545391817        0.29084539146084       -0.03818449119999
C            0.06650823981554        1.41184759099109       -0.00643844951612
O            0.39189334628323        2.59937909913455        0.02129325783482
N           -1.32031571441030        1.04214196508902       -0.02744408957091
C           -2.29410494208555        2.12372090633866       -0.04522646218368
C           -1.85802548287374       -0.20540766527382       -0.04600757042737
O           -3.05458702727925       -0.40830502702412       -0.07129730242454
N           -0.95736242528188       -1.28222649739719       -0.03143453721899
C           -1.48816062266871       -2.63087582706249       -0.03971058126184
H            3.92868769955576        0.99649509225554        0.96851430330461
H            4.48377164662072        1.00390615465797       -0.49252113486056
H            3.00311990453338        2.10089882347024       -0.10363230830281
H            3.54275490648864       -1.64358702062286        0.02147197329421
H           -1.75016790494878        3.06296908876361       -0.01929056551473
H           -2.90447251751814        2.06578939949658       -0.94800940568770
H           -2.95481743064563        2.04721771417970        0.81902246289062
H           -1.20306945636991       -3.17371331583237        0.86467700545225
H           -1.15117272559599       -3.18342700902551       -0.91978271668415
H           -2.57771265075107       -2.55498150645908       -0.07101685954313
H            1.32753906816440       -2.90238998452943       -0.01162069096444
25
 energy: 14.671544809592 xtb: 6.6.1 (8d0f1dd)
C            3.48234973364981        1.11287518259008       -0.02829662099254
N            2.35842108532331        0.16017337996923       -0.11399908280386
C            2.57320830561160       -1.20158305305456       -0.02881913420602
N            1.38730314611413       -1.88686818669879       -0.00685024666764
C            0.38127721917351       -0.99455627151441       -0.02704146216874
C            0.92505410527790        0.30054220619271       -0.05185431118607
C            0.05763528921061        1.41709186441762       -0.00856751203525
O            0.37449189107830        2.60620084212240        0.02561587017303
N           -1.32988207717693        1.04153842834194       -0.02721667872536
C           -2.30713211682045        2.12001558299460       -0.04496486679023
C           -1.86547890399285       -0.20655336936906       -0.04603132781939
O           -3.06148532207065       -0.41334952877648       -0.07110329940746
N           -0.96123802462219       -1.27900769218382       -0.03079826771692
C           -1.48962032484374       -2.62894324191828       -0.03504830895164
H            3.93785803182927        0.95407931744531        0.93285670189633
H            4.54830314824936        1.00411830195061       -0.47213096934350
H            3.03042951809871        2.10493492613472       -0.09145331259178
H            3.53708288264651       -1.63691509353611        0.01995622399522
H           -1.76628099982065        3.06090874564571       -0.01875242049896
H           -2.91761800213164        2.06020552838046       -0.94775207129003
H           -2.96831894511275        2.04153748865185        0.81883085404766
H           -1.20623792516588       -3.16901100266637        0.87131457301114
H           -1.15096811932690       -3.18435553410394       -0.91284975028842
H           -2.57984708877859       -2.55535132160575       -0.06737292304980
H            1.32076800105560       -2.89482694405971       -0.01020704592412
25
 energy: 22.374493141340 xtb: 6.6.1 (8d0f1dd)
C            3.47943203507701        1.11723109379585       -0.05405990548567
N            2.35711601276637        0.16470509492341       -0.13691010600463
C            2.56697375696899       -1.19496561365003       -0.03096753068361
N            1.38189886649048       -1.87946066770159       -0.00758778713047
C            0.37587853209719       -0.98767589585341       -0.03264872831617
C            0.92024088960726        0.30822091047460       -0.06638731861363
C            0.04821123673841        1.42157626004065       -0.01207921293552
O            0.35697695309050        2.61213441219773        0.02932851640422
N           -1.33990547546933        1.04078380075812       -0.02744188923375
C           -2.31996325393454        2.11657628994756       -0.04482302080219
C           -1.87338851206315       -0.20807931344645       -0.04644460838657
O           -3.06876241946055       -0.41882871856325       -0.07083449185170
N           -0.96604284001544       -1.27657557567610       -0.03045452098421
C           -1.49161983157529       -2.62824198395515       -0.03046439917306
H            3.95049908885587        0.92950524328149        0.89127636498685
H            4.61172447133298        1.01548457057595       -0.45596516330304
H            3.00578402449327        2.10599734390292       -0.08874715438792
H            3.53143783205738       -1.62927767072834        0.01727680940748
H           -1.78167303690854        3.05881702697702       -0.01815634072491
H           -2.93048034871808        2.05516969657102       -0.94764712359774
H           -2.98145346874413        2.03629883963885        0.81859777061918
H           -1.20966101990356       -3.16488306688558        0.87813323260976
H           -1.15069761154971       -3.18619881732131       -0.90591986508783
H           -2.58256053671247       -2.55826718183708       -0.06474506853333
H            1.31458949383148       -2.88752345195238       -0.00812202611259
25
 energy: 31.692440159497 xtb: 6.6.1 (8d0f1dd)
C            3.46765522630075        1.12389962536382       -0.06889773522276
N            2.35245286083045        0.16799551008635       -0.15563879602096
C            2.56090432855242       -1.18900563538797       -0.03300140719467
N            1.37717630979311       -1.87351258858387       -0.01118719055124
C            0.36964506391743       -0.98383758543695       -0.03915179141587
C            0.91284407216475        0.31284002930069       -0.08056853475987
C            0.03931675938192        1.42495518535818       -0.01762024654218
O            0.34099098929271        2.61642434162275        0.03157145546891
N           -1.34966208822183        1.03991529770120       -0.02845901017481
C           -2.33205230119007        2.11331458635001       -0.04640183932497
C           -1.88081434040573       -0.20980913790739       -0.04661476591056
O           -3.07550082897566       -0.42441952715911       -0.07058321441119
N           -0.97127044001698       -1.27540185511054       -0.03012718117823
C           -1.49512666919016       -2.62856597402942       -0.02466523735904
H            3.97224821881012        0.90729581954256        0.84617114076808
H            4.67557248533831        1.04258247114042       -0.44736743149001
H            2.97873516891614        2.10853271338145       -0.06775789723707
H            3.52677300631428       -1.62105463828335        0.01475446922400
H           -1.79591209971032        3.05687354226145       -0.02126228094892
H           -2.94303307157889        2.04875641724643       -0.94882070929829
H           -2.99352217441085        2.03259575620918        0.81702509387561
H           -1.21479626926491       -3.16095497080040        0.88674337344921
H           -1.15333508421162       -3.19003201035682       -0.89749873857616
H           -2.58628543921694       -2.56013475703738       -0.06052114151670
H            1.31032295266090       -2.88132495933608       -0.01001713711474
25
 energy: 66.327630823786 xtb: 6.6.1 (8d0f1dd)
C            3.29697513015623        1.12954820058651       -0.04839601598426
N            2.30707211657357        0.16697912186105       -0.11229967451305
C            2.54002074492758       -1.16506574422526       -0.02819941954487
N            1.36419748888093       -1.86996586931966       -0.00832826765319
C            0.35012045703978       -0.98771494823023       -0.04626407727061
C            0.88926349780524        0.30233262871999       -0.10083191881890
C            0.01644989642691        1.43103359030021       -0.02551913982577
O            0.31981771753623        2.60965074834122        0.03380287069302
N           -1.35899595754217        1.04186126207479       -0.02778987567160
C           -2.34718170750457        2.11094985947766       -0.04410859252339
C           -1.89168205628602       -0.21499724884871       -0.04779354216320
O           -3.08354390051972       -0.42802459586724       -0.07139218942937
N           -0.98275927886056       -1.27684515040297       -0.03281315829388
C           -1.50181901523597       -2.63244377222596       -0.02278664846092
H            4.01155897900793        0.89225486457348        0.70154935802380
H            5.05996973488200        1.05941098637096       -0.39549773930844
H            2.89677531655881        2.13373230202184       -0.06556217616376
H            3.51093208183994       -1.59917930864042        0.01334713913690
H           -1.81558544347795        3.05677184605852       -0.01772882834147
H           -2.95686889059965        2.04371697077498       -0.94692066242565
H           -3.00789383330910        2.02508047163552        0.81845028503496
H           -1.21921944706506       -3.15759246003364        0.89155264509035
H           -1.15417686335538       -3.19269432322303       -0.89297563421071
H           -2.59245740205169       -2.56743185021085       -0.06111286930198
H            1.30523735459656       -2.87725396927700       -0.00519259804899
25
 energy: 68.428145602935 xtb: 6.6.1 (8d0f1dd)
C            3.19525698767968        1.14033537077091       -0.05165809509680
N            2.27922710175291        0.16981625520275       -0.09200280576697
C            2.52691359780105       -1.15203791428250       -0.02459880217381
N            1.35155146293686       -1.86835375554607       -0.00547049077238
C            0.33537618390501       -0.99364482948658       -0.04495658516363
C            0.86746914249687        0.29581658450419       -0.09618849086270
C           -0.00111610416699        1.43225353285292       -0.02627359435208
O            0.30104833451213        2.60507780402902        0.03665856497799
N           -1.36949160892314        1.04227709681161       -0.02916017738961
C           -2.36095363035629        2.10826412634817       -0.04430200391821
C           -1.90114614650103       -0.22049369016523       -0.04784521587431
O           -3.09207670740452       -0.43279560391630       -0.07098587056743
N           -0.99445358885264       -1.27933586010451       -0.03264428167342
C           -1.50860531080705       -2.63645883803606       -0.01977005190885
H            4.07970245826165        0.89955130379935        0.52681089287832
H            5.27200681213186        1.06684274930942       -0.28168803425234
H            2.83119300484211        2.15089634971034       -0.05325537028838
H            3.50079184069697       -1.58509648495078        0.01265611214987
H           -1.83199425125684        3.05581013056099       -0.01798335267108
H           -2.97043853939173        2.03853328742908       -0.94676028768328
H           -3.02085347936470        2.01986373199517        0.81836300859430
H           -1.22534871920907       -3.15642977334870        0.89718129708276
H           -1.15713334675773       -3.19672474528567       -0.88782869809483
H           -2.59819204406548       -2.57376742302401       -0.06221361295358
H            1.30120600457823       -2.87405466898326       -0.00406618556830
25
 energy: 66.491436548031 xtb: 6.6.1 (8d0f1dd)
C            3.16148420833292        1.14767129286349       -0.06137781878156
N            2.26537914681705        0.17213609239307       -0.08120066483020
C            2.52003770661069       -1.14732769353687       -0.01941780501208
N            1.34430184763273       -1.86692480815168       -0.00018180251842
C            0.32641049069841       -0.99677179806487       -0.04024629463683
C            0.85379119191026        0.29381788599043       -0.08568574163687
C           -0.01359842219723        1.43149135551815       -0.02372117943632
O            0.28427423708704        2.60505789947346        0.03935392687517
N           -1.38103168779729        1.04065764989597       -0.03013618204885
C           -2.37449946125915        2.10454417499687       -0.04465562789469
C           -1.90939812399148       -0.22408009822137       -0.04728395334424
O           -3.09991581378132       -0.43926017574153       -0.07026789864994
N           -1.00240598819190       -1.28186710434252       -0.03215993559670
C           -1.51346124444232       -2.63977842499652       -0.01921648790630
H            4.11777753493885        0.91466282623201        0.43074771909150
H            5.36926676624651        1.07691823239034       -0.21563105497726
H            2.78904036109066        2.15484046239795       -0.04673984376704
H            3.49532684301901       -1.57714982136328        0.01095239904804
H           -1.84838781687671        3.05406508057741       -0.01814956850712
H           -2.98413733437691        2.03251156441860       -0.94669363509989
H           -3.03396871322439        2.01355024004366        0.81811317095119
H           -1.23236906622788       -3.15790471940042        0.89975647179413
H           -1.16026493854523       -3.19965843659376       -0.88664760401734
H           -2.60170467280335       -2.57729427899679       -0.06611709681442
H            1.29900894780651       -2.87104122282796       -0.00063118130399
25
 energy: 64.490633673180 xtb: 6.6.1 (8d0f1dd)
C            3.13520027161322        1.15302418770171       -0.07229033261196
N            2.25415362333159        0.17145071372214       -0.07096149174118
C            2.51549962059573       -1.14551188983547       -0.01152459774937
N            1.34038038028708       -1.86856284729690        0.00361304133228
C            0.32031418127431       -1.00200012988421       -0.03551572132866
C            0.84399484090654        0.28924281139927       -0.07429683527847
C           -0.02305130492375        1.42804757120321       -0.01673271169299
O            0.26936559835201        2.60297512718197        0.04335212195941
N           -1.39138302560478        1.03819799000646       -0.03019989293576
C           -2.38689299753270        2.10066333837136       -0.04467770337968
C           -1.91689118932848       -0.22757646749144       -0.04553532923291
O           -3.10702111699104       -0.44560534335561       -0.06760964177198
N           -1.00858250756897       -1.28448455343362       -0.03115913900646
C           -1.51610780179115       -2.64282285569418       -0.02266054413310
H            4.13837874173462        0.93230848140253        0.35169920506229
H            5.45632818164819        1.08906017712503       -0.15851720642882
H            2.74459755069589        2.15205173409860       -0.04507525658201
H            3.49219462693835       -1.57037245018018        0.00916550983824
H           -1.86384832236135        3.05218925171308       -0.01812243390015
H           -2.99698254645322        2.02668211246498       -0.94620658111379
H           -3.04639115721276        2.00741039436972        0.81802993564695
H           -1.23036468733307       -3.16217057607127        0.89426258032245
H           -1.16038666376151       -3.19739029225967       -0.89270615848388
H           -2.60467095172507       -2.58233744206484       -0.06930926215096
H            1.29978442697392       -2.87067545488478       -0.00086465896728
25
 energy: 62.823948650423 xtb: 6.6.1 (8d0f1dd)
C            3.10951595731752        1.15830196827808       -0.09085398406718
N            2.24302883141558        0.16824301490220       -0.05773213496846
C            2.51164187962127       -1.14795117574393        0.00260339625365
N            1.33795168247613       -1.87620692402354        0.00583370119380
C            0.31547971363498       -1.01082653883762       -0.03181278920293
C            0.83511454783246        0.28107633023505       -0.06167157283811
C           -0.03106324396987        1.42159178913569       -0.00916760035192
O            0.25672649083183        2.59736795532604        0.04874452712400
N           -1.40132877945760        1.03496774617125       -0.02997064470182
C           -2.39907508100426        2.09649669807248       -0.04347167618238
C           -1.92419012844784       -0.23136781957942       -0.04401274996743
O           -3.11394967123997       -0.45187645611083       -0.06362662620116
N           -1.01415330367639       -1.28793967201711       -0.03139310404751
C           -1.51809242497176       -2.64614147689881       -0.02754356961986
H            4.14060501863219        0.95575475955757        0.28270250830350
H            5.54287545132964        1.10016188241258       -0.10707271858097
H            2.70565615857906        2.15070072883168       -0.04114098197920
H            3.49230631464844       -1.56252590491232        0.00949475944129
H           -1.87939242239488        3.05011169739174       -0.01769705755882
H           -3.01047378225033        2.02129020870970       -0.94393958862766
H           -3.05837101985231        2.00156325845505        0.81973741991957
H           -1.22604372260033       -3.16608982899103        0.88695637673070
H           -1.16085358180194       -3.19594093672675       -0.89997997279665
H           -2.60672402076893       -2.58679132135337       -0.07022852984561
H            1.30199002309730       -2.87837109385283       -0.00466944138691
25