25
 energy: -42.140172541610 gnorm: 0.007301545629 xtb: 6.6.1 (8d0f1dd)
C            4.02628001636816        0.74962077918353        0.18414929626450
N            2.71267633468331        0.21690361095240        0.14809540506689
C            2.46583141723854       -1.01472473563252        0.03407778670064
N            1.19302924809649       -1.50900607449720       -0.01327199346658
C            0.05291876470609       -0.76012784474115        0.05328718748097
C           -0.11467134380059        0.58428453668828        0.25398804151542
C           -1.85687995114832        3.00073162789863       -0.66554323503525
O           -1.40226145546121        3.59955621718144       -1.53811915237164
N           -1.47095658209322        0.82865748166130        0.23790605897176
C           -2.18934940610177        2.08031049574749        0.36873371630453
C           -2.15841706858999       -0.35691283056327        0.01014869157352
O           -3.35597656547514       -0.46509500157208       -0.07311940926071
N           -1.19086671351639       -1.33344610239470       -0.08593714230883
C           -1.50329059417400       -2.72284240586615       -0.29978492672327
H            4.13695939843273        1.33560296243418        1.09757748912534
H            4.80811041739809       -0.01718983610844        0.14646370998885
H            4.14647041417416        1.42905228225917       -0.66157074823319
H            3.23589228855429       -1.79035322858125       -0.03983853142524
H            0.62863438018774        1.34323000303920        0.39149440636614
H           -3.26046142459633        1.80015951507864        0.30788884394713
H           -2.01489693081409        2.54216903740293        1.35369525007837
H           -1.16132889572098       -3.33190211258031        0.53873701371487
H           -1.06060384202183       -3.08367259824247       -1.22958432401721
H           -2.58754999754199       -2.79911458658031       -0.37143098067744
H            1.08113960531438       -2.50765265056726       -0.11687083568942
