      -----------------------------------------------------------      
     |                   =====================                   |     
     |                           x T B                           |     
     |                   =====================                   |     
     |                         S. Grimme                         |     
     |          Mulliken Center for Theoretical Chemistry        |     
     |                    University of Bonn                     |     
      -----------------------------------------------------------      

   * xtb version 6.6.1 (8d0f1dd) compiled by 'conda@1efc2f54142f' on 2023-08-01

   xtb is free software: you can redistribute it and/or modify it under
   the terms of the GNU Lesser General Public License as published by
   the Free Software Foundation, either version 3 of the License, or
   (at your option) any later version.
   
   xtb is distributed in the hope that it will be useful,
   but WITHOUT ANY WARRANTY; without even the implied warranty of
   MERCHANTABILITY or FITNESS FOR A PARTICULAR PURPOSE.  See the
   GNU Lesser General Public License for more details.
   
   Cite this work as:
   * C. Bannwarth, E. Caldeweyher, S. Ehlert, A. Hansen, P. Pracht,
     J. Seibert, S. Spicher, S. Grimme, WIREs Comput. Mol. Sci., 2020, 11,
     e01493. DOI: 10.1002/wcms.1493
   
   for GFN2-xTB:
   * C. Bannwarth, S. Ehlert and S. Grimme., J. Chem. Theory Comput., 2019,
     15, 1652-1671. DOI: 10.1021/acs.jctc.8b01176
   for GFN1-xTB:
   * S. Grimme, C. Bannwarth, P. Shushkov, J. Chem. Theory Comput., 2017,
     13, 1989-2009. DOI: 10.1021/acs.jctc.7b00118
   for GFN0-xTB:
   * P. Pracht, E. Caldeweyher, S. Ehlert, S. Grimme, ChemRxiv, 2019, preprint.
     DOI: 10.26434/chemrxiv.8326202.v1
   for GFN-FF:
   * S. Spicher and S. Grimme, Angew. Chem. Int. Ed., 2020, 59, 15665-15673.
     DOI: 10.1002/anie.202004239
   
   for ALPB and GBSA implicit solvation:
   * S. Ehlert, M. Stahn, S. Spicher, S. Grimme, J. Chem. Theory Comput.,
     2021, 17, 4250-4261. DOI: 10.1021/acs.jctc.1c00471
   
   for DFT-D4:
   * E. Caldeweyher, C. Bannwarth and S. Grimme, J. Chem. Phys., 2017,
     147, 034112. DOI: 10.1063/1.4993215
   * E. Caldeweyher, S. Ehlert, A. Hansen, H. Neugebauer, S. Spicher,
     C. Bannwarth and S. Grimme, J. Chem. Phys., 2019, 150, 154122.
     DOI: 10.1063/1.5090222
   * E. Caldeweyher, J.-M. Mewes, S. Ehlert and S. Grimme, Phys. Chem. Chem. Phys.
     2020, 22, 8499-8512. DOI: 10.1039/D0CP00502A
   
   for sTDA-xTB:
   * S. Grimme and C. Bannwarth, J. Chem. Phys., 2016, 145, 054103.
     DOI: 10.1063/1.4959605
   
   in the mass-spec context:
   * V. Asgeirsson, C. Bauer and S. Grimme, Chem. Sci., 2017, 8, 4879.
     DOI: 10.1039/c7sc00601b
   * J. Koopman and S. Grimme, ACS Omega 2019, 4, 12, 15120-15133.
     DOI: 10.1021/acsomega.9b02011
   
   for metadynamics refer to:
   * S. Grimme, J. Chem. Theory Comput., 2019, 155, 2847-2862
     DOI: 10.1021/acs.jctc.9b00143
   
   for SPH calculations refer to:
   * S. Spicher and S. Grimme, J. Chem. Theory Comput., 2021, 17, 1701-1714
     DOI: 10.1021/acs.jctc.0c01306
   
   with help from (in alphabetical order)
   P. Atkinson, C. Bannwarth, F. Bohle, G. Brandenburg, E. Caldeweyher
   M. Checinski, S. Dohm, S. Ehlert, S. Ehrlich, I. Gerasimov, C. Hölzer
   A. Katbashev, J. Koopman, C. Lavigne, S. Lehtola, F. März, M. Müller,
   F. Musil, H. Neugebauer, J. Pisarek, C. Plett, P. Pracht, F. Pultar,
   J. Seibert, P. Shushkov, S. Spicher, M. Stahn, M. Steiner, T. Strunk,
   J. Stückrath, T. Rose, and J. Unsleber
   
 * started run on 2024/06/05 at 19:57:59.591     

           -------------------------------------------------
          |                Calculation Setup                |
           -------------------------------------------------

          program call               : xtb struc.xyz --opt loose --input .xc1 --gfn2
          hostname                   : n-62-21-71
          coordinate file            : struc.xyz
          omp threads                :                     1

   ID    Z sym.   atoms
    1    6 C      1, 3, 5-7, 10, 11, 14
    2    7 N      2, 4, 9, 13
    3    8 O      8, 12
    4    1 H      15-25
constraining bond 6 18 to    5.1400000 Å, actual value:    3.2169490 Å

           -------------------------------------------------
          |                 G F N 2 - x T B                 |
           -------------------------------------------------

        Reference                      10.1021/acs.jctc.8b01176
      * Hamiltonian:
        H0-scaling (s, p, d)           1.850000    2.230000    2.230000
        zeta-weighting                 0.500000
      * Dispersion:
        s8                             2.700000
        a1                             0.520000
        a2                             5.000000
        s9                             5.000000
      * Repulsion:
        kExp                           1.500000    1.000000
        rExp                           1.000000
      * Coulomb:
        alpha                          2.000000
        third order                    shell-resolved
        anisotropic                    true
        a3                             3.000000
        a5                             4.000000
        cn-shift                       1.200000
        cn-exp                         4.000000
        max-rad                        5.000000


          ...................................................
          :                      SETUP                      :
          :.................................................:
          :  # basis functions                  67          :
          :  # atomic orbitals                  67          :
          :  # shells                           39          :
          :  # electrons                        74          :
          :  max. iterations                   250          :
          :  Hamiltonian                  GFN2-xTB          :
          :  restarted?                      false          :
          :  GBSA solvation                  false          :
          :  PC potential                    false          :
          :  electronic temp.         2500.0000000     K    :
          :  accuracy                    1.0000000          :
          :  -> integral cutoff          0.2500000E+02      :
          :  -> integral neglect         0.1000000E-07      :
          :  -> SCF convergence          0.1000000E-05 Eh   :
          :  -> wf. convergence          0.1000000E-03 e    :
          :  Broyden damping             0.4000000          :
          ...................................................

 iter      E             dE          RMSdq      gap      omega  full diag
   1    -42.5894761 -0.425895E+02  0.446E+00    3.52       0.0  T
   2    -42.7660496 -0.176573E+00  0.253E+00    3.37       1.0  T
   3    -42.7736311 -0.758158E-02  0.147E+00    3.27       1.0  T
   4    -42.7712089  0.242228E-02  0.522E-01    3.20       1.0  T
   5    -42.7763755 -0.516665E-02  0.115E-01    3.24       1.0  T
   6    -42.7764786 -0.103096E-03  0.599E-02    3.22       1.0  T
   7    -42.7764977 -0.190557E-04  0.265E-02    3.24       1.0  T
   8    -42.7765022 -0.458752E-05  0.826E-03    3.24       2.4  T
   9    -42.7765028 -0.511866E-06  0.435E-03    3.24       4.6  T
  10    -42.7765028 -0.741126E-07  0.110E-03    3.24      18.2  T
  11    -42.7765028 -0.615289E-08  0.514E-04    3.24      38.9  T
  12    -42.7765028 -0.131732E-08  0.162E-04    3.24     123.6  T

   *** convergence criteria satisfied after 12 iterations ***

         #    Occupation            Energy/Eh            Energy/eV
      -------------------------------------------------------------
         1        2.0000           -0.9218663             -25.0853
       ...           ...                  ...                  ...
        31        2.0000           -0.6245728             -16.9955
        32        2.0000           -0.6188521             -16.8398
        33        2.0000           -0.5946289             -16.1807
        34        1.9999           -0.5766508             -15.6915
        35        1.9996           -0.5616187             -15.2824
        36        1.9994           -0.5584494             -15.1962
        37        1.9993           -0.5575820             -15.1726 (HOMO)
        38        0.0017           -0.4385664             -11.9340 (LUMO)
        39        0.0000           -0.4059970             -11.0477
        40        0.0000           -0.3720875             -10.1250
        41                         -0.2883077              -7.8453
        42                         -0.2064013              -5.6165
       ...                                ...                  ...
        67                          0.5638960              15.3444
      -------------------------------------------------------------
                  HL-Gap            0.1190156 Eh            3.2386 eV
             Fermi-level           -0.4943591 Eh          -13.4522 eV

 SCC (total)                   0 d,  0 h,  0 min,  0.038 sec
 SCC setup                      ...        0 min,  0.000 sec (  0.730%)
 Dispersion                     ...        0 min,  0.000 sec (  0.966%)
 classical contributions        ...        0 min,  0.000 sec (  0.263%)
 integral evaluation            ...        0 min,  0.007 sec ( 17.121%)
 iterations                     ...        0 min,  0.018 sec ( 46.552%)
 molecular gradient             ...        0 min,  0.013 sec ( 33.941%)
 printout                       ...        0 min,  0.000 sec (  0.391%)

         :::::::::::::::::::::::::::::::::::::::::::::::::::::
         ::                     SUMMARY                     ::
         :::::::::::::::::::::::::::::::::::::::::::::::::::::
         :: total energy             -35.642162367791 Eh    ::
         :: gradient norm              5.139358627806 Eh/a0 ::
         :: HOMO-LUMO gap              3.238579380711 eV    ::
         ::.................................................::
         :: SCC energy               -42.776502838750 Eh    ::
         :: -> isotropic ES            0.143394945287 Eh    ::
         :: -> anisotropic ES         -0.005231236584 Eh    ::
         :: -> anisotropic XC          0.012162721064 Eh    ::
         :: -> dispersion             -0.022660936007 Eh    ::
         :: repulsion energy           0.531105277918 Eh    ::
         :: add. restraining           6.603121034032 Eh    ::
         :: total charge               1.000000000000 e     ::
         :::::::::::::::::::::::::::::::::::::::::::::::::::::

      ----------------------------------------------------------- 
     |                   =====================                   |
     |                        A N C O P T                        |
     |                   =====================                   |
     |               Approximate Normal Coordinate               |
     |                Rational Function Optimizer                |
      ----------------------------------------------------------- 

          ...................................................
          :                      SETUP                      :
          :.................................................:
          :   optimization level             loose          :
          :   max. optcycles                   200          :
          :   ANC micro-cycles                  20          :
          :   degrees of freedom                69          :
          :.................................................:
          :   RF solver                   davidson          :
          :   write xtbopt.log                true          :
          :   linear?                        false          :
          :   energy convergence         0.5000000E-04 Eh   :
          :   grad. convergence          0.4000000E-02 Eh/α :
          :   maxmium RF displ.          1.0000000          :
          :   Hlow (freq-cutoff)         0.1000000E-01      :
          :   Hmax (freq-cutoff)         5.0000000          :
          :   S6 in model hess.         20.0000000          :
          ...................................................

generating ANC from model Hessian ...
Using Lindh-Hessian (1995)
 Shifting diagonal of input Hessian by    1.0491692086590030     
 Lowest  eigenvalues of input Hessian
    0.010000    0.261472    0.000000    0.000000    0.000000    0.000000
    0.000000    0.000000    1.052283    1.054753    1.056487    1.058678
    1.059558    1.061455    1.061485    1.063374    1.071451    1.074885
 Highest eigenvalues
    3.116629    3.271128    3.326456    3.409521    3.582538    4.272467


........................................................................
.............................. CYCLE    1 ..............................
........................................................................

 iter      E             dE          RMSdq      gap      omega  full diag
   1    -42.7765028 -0.427765E+02  0.540E-05    3.24       0.0  T
   2    -42.7765028 -0.643041E-11  0.289E-05    3.24     692.1  T
   3    -42.7765028  0.881073E-12  0.138E-05    3.24    1448.6  T
     SCC iter.                  ...        0 min,  0.005 sec
     gradient                   ...        0 min,  0.013 sec
 * total energy  :   -35.6421624 Eh     change       -0.6633627E-10 Eh
   gradient norm :     5.1393593 Eh/α   predicted     0.0000000E+00 (-100.00%)
   displ. norm   :     0.6998825 α      lambda       -0.3570889E+01
   maximum displ.:     0.5864636 α      in ANC's #69, #60, #49, ...

........................................................................
.............................. CYCLE    2 ..............................
........................................................................

 iter      E             dE          RMSdq      gap      omega  full diag
   1    -42.6858343 -0.426858E+02  0.121E+00    2.63       0.0  T
   2    -42.6907190 -0.488466E-02  0.659E-01    2.49       1.0  T
   3    -42.6917547 -0.103574E-02  0.464E-01    2.71       1.0  T
   4    -42.6927131 -0.958418E-03  0.143E-01    2.56       1.0  T
   5    -42.6933435 -0.630403E-03  0.294E-02    2.61       1.0  T
   6    -42.6933535 -0.998959E-05  0.139E-02    2.61       1.4  T
   7    -42.6933539 -0.422976E-06  0.490E-03    2.61       4.1  T
   8    -42.6933542 -0.236517E-06  0.191E-03    2.61      10.5  T
   9    -42.6933542 -0.310928E-07  0.746E-04    2.61      26.8  T
  10    -42.6933542 -0.243397E-08  0.280E-04    2.61      71.4  T
     SCC iter.                  ...        0 min,  0.014 sec
     gradient                   ...        0 min,  0.013 sec
 * total energy  :   -38.6363805 Eh     change       -0.2994218E+01 Eh
   gradient norm :     3.4723750 Eh/α   predicted    -0.2660155E+01 ( -11.16%)
   displ. norm   :     0.7270310 α      lambda       -0.2503439E+01
   maximum displ.:     0.5875011 α      in ANC's #69, #60, #49, ...

........................................................................
.............................. CYCLE    3 ..............................
........................................................................

 iter      E             dE          RMSdq      gap      omega  full diag
   1    -42.5585224 -0.425585E+02  0.110E+00    2.15       0.0  T
   2    -42.5666259 -0.810356E-02  0.736E-01    2.19       1.0  T
   3    -42.5713719 -0.474602E-02  0.378E-01    2.18       1.0  T
   4    -42.5713008  0.710917E-04  0.156E-01    2.24       1.0  T
   5    -42.5718518 -0.550954E-03  0.375E-02    2.18       1.0  T
   6    -42.5718772 -0.254143E-04  0.231E-02    2.20       1.0  T
   7    -42.5718852 -0.798726E-05  0.852E-03    2.20       2.3  T
   8    -42.5718856 -0.347078E-06  0.309E-03    2.20       6.5  T
   9    -42.5718857 -0.171009E-06  0.846E-04    2.20      23.6  T
  10    -42.5718857 -0.193495E-09  0.331E-04    2.20      60.3  T
     SCC iter.                  ...        0 min,  0.014 sec
     gradient                   ...        0 min,  0.013 sec
 * total energy  :   -40.5666874 Eh     change       -0.1930307E+01 Eh
   gradient norm :     1.9140174 Eh/α   predicted    -0.1913347E+01 (  -0.88%)
   displ. norm   :     0.6871407 α      lambda       -0.1281689E+01
   maximum displ.:     0.4088916 α      in ANC's #69, #60, #57, ...

........................................................................
.............................. CYCLE    4 ..............................
........................................................................

 iter      E             dE          RMSdq      gap      omega  full diag
   1    -42.4575358 -0.424575E+02  0.888E-01    1.35       0.0  T
   2    -42.4689439 -0.114081E-01  0.688E-01    2.36       1.0  T
   3    -42.4782255 -0.928162E-02  0.380E-01    2.05       1.0  T
   4    -42.4791676 -0.942081E-03  0.233E-01    2.05       1.0  T
   5    -42.4794731 -0.305510E-03  0.917E-02    1.97       1.0  T
   6    -42.4797372 -0.264113E-03  0.232E-02    2.01       1.0  T
   7    -42.4797475 -0.102720E-04  0.813E-03    2.02       2.5  T
   8    -42.4797477 -0.232630E-06  0.511E-03    2.03       3.9  T
   9    -42.4797479 -0.224939E-06  0.183E-03    2.03      10.9  T
  10    -42.4797480 -0.693588E-07  0.471E-04    2.03      42.4  T
  11    -42.4797480 -0.163887E-08  0.222E-04    2.03      90.2  T
     SCC iter.                  ...        0 min,  0.015 sec
     gradient                   ...        0 min,  0.013 sec
 * total energy  :   -41.5237494 Eh     change       -0.9570619E+00 Eh
   gradient norm :     0.9330314 Eh/α   predicted    -0.9434603E+00 (  -1.42%)
   displ. norm   :     0.5316866 α      lambda       -0.4808042E+00
   maximum displ.:     0.2944466 α      in ANC's #69, #42, #2, ...

........................................................................
.............................. CYCLE    5 ..............................
........................................................................

 iter      E             dE          RMSdq      gap      omega  full diag
   1    -42.4095747 -0.424096E+02  0.791E-01    1.41       0.0  T
   2    -42.4132193 -0.364455E-02  0.620E-01    1.84       1.0  T
   3    -42.4225580 -0.933876E-02  0.333E-01    1.63       1.0  T
   4    -42.4236614 -0.110340E-02  0.146E-01    1.64       1.0  T
   5    -42.4233576  0.303809E-03  0.141E-01    1.66       1.0  T
   6    -42.4238527 -0.495080E-03  0.265E-02    1.65       1.0  T
   7    -42.4238758 -0.231363E-04  0.820E-03    1.65       2.4  T
   8    -42.4238759 -0.797499E-07  0.473E-03    1.65       4.2  T
   9    -42.4238761 -0.248931E-06  0.201E-03    1.65      10.0  T
  10    -42.4238762 -0.784893E-07  0.648E-04    1.65      30.9  T
  11    -42.4238762 -0.172806E-08  0.388E-04    1.65      51.6  T
     SCC iter.                  ...        0 min,  0.015 sec
     gradient                   ...        0 min,  0.013 sec
 * total energy  :   -41.8316080 Eh     change       -0.3078587E+00 Eh
   gradient norm :     0.2886851 Eh/α   predicted    -0.3083616E+00 (   0.16%)
   displ. norm   :     0.2478081 α      lambda       -0.6843013E-01
   maximum displ.:     0.0988995 α      in ANC's #69, #50, #42, ...

........................................................................
.............................. CYCLE    6 ..............................
........................................................................

 iter      E             dE          RMSdq      gap      omega  full diag
   1    -42.4133570 -0.424134E+02  0.411E-01    1.37       0.0  T
   2    -42.4109580  0.239897E-02  0.416E-01    1.51       1.0  T
   3    -42.4148240 -0.386597E-02  0.215E-01    1.42       1.0  T
   4    -42.4153928 -0.568750E-03  0.109E-01    1.42       1.0  T
   5    -42.4155878 -0.194992E-03  0.350E-02    1.44       1.0  T
   6    -42.4156110 -0.232291E-04  0.133E-02    1.43       1.5  T
   7    -42.4156161 -0.514010E-05  0.508E-03    1.43       3.9  T
   8    -42.4156162 -0.958698E-07  0.270E-03    1.43       7.4  T
   9    -42.4156163 -0.996380E-07  0.875E-04    1.43      22.9  T
  10    -42.4156163 -0.964724E-08  0.325E-04    1.43      61.6  T
     SCC iter.                  ...        0 min,  0.014 sec
     gradient                   ...        0 min,  0.013 sec
 * total energy  :   -41.8752677 Eh     change       -0.4365969E-01 Eh
   gradient norm :     0.1728341 Eh/α   predicted    -0.3631792E-01 ( -16.82%)
   displ. norm   :     0.2133949 α      lambda       -0.2593207E-01
   maximum displ.:     0.0941156 α      in ANC's #1, #50, #37, ...

........................................................................
.............................. CYCLE    7 ..............................
........................................................................

 iter      E             dE          RMSdq      gap      omega  full diag
   1    -42.4263609 -0.424264E+02  0.342E-01    1.25       0.0  T
   2    -42.4266868 -0.325860E-03  0.327E-01    1.32       1.0  T
   3    -42.4282212 -0.153442E-02  0.176E-01    1.28       1.0  T
   4    -42.4281904  0.307675E-04  0.134E-01    1.29       1.0  T
   5    -42.4285972 -0.406780E-03  0.405E-02    1.29       1.0  T
   6    -42.4286324 -0.352131E-04  0.915E-03    1.29       2.2  T
   7    -42.4286339 -0.148353E-05  0.584E-03    1.29       3.4  T
   8    -42.4286346 -0.715128E-06  0.224E-03    1.29       8.9  T
   9    -42.4286347 -0.540661E-07  0.482E-04    1.29      41.5  T
  10    -42.4286347 -0.842398E-09  0.267E-04    1.29      75.0  T
     SCC iter.                  ...        0 min,  0.014 sec
     gradient                   ...        0 min,  0.013 sec
 * total energy  :   -41.8962765 Eh     change       -0.2100875E-01 Eh
   gradient norm :     0.1612342 Eh/α   predicted    -0.1355650E-01 ( -35.47%)
   displ. norm   :     0.3986762 α      lambda       -0.4112909E-01
   maximum displ.:     0.1956823 α      in ANC's #2, #50, #37, ...

........................................................................
.............................. CYCLE    8 ..............................
........................................................................

 iter      E             dE          RMSdq      gap      omega  full diag
   1    -42.4452975 -0.424453E+02  0.693E-01    1.01       0.0  T
   2    -42.4380923  0.720520E-02  0.855E-01    1.06       1.0  T
   3    -42.4534870 -0.153947E-01  0.454E-01    1.10       1.0  T
   4    -42.4556600 -0.217306E-02  0.344E-01    1.04       1.0  T
   5    -42.4575422 -0.188217E-02  0.144E-01    1.05       1.0  T
   6    -42.4581006 -0.558399E-03  0.269E-02    1.06       1.0  T
   7    -42.4581241 -0.234930E-04  0.966E-03    1.06       2.1  T
   8    -42.4581247 -0.621327E-06  0.514E-03    1.06       3.9  T
   9    -42.4581251 -0.345988E-06  0.139E-03    1.06      14.4  T
  10    -42.4581251 -0.152451E-07  0.483E-04    1.06      41.4  T
  11    -42.4581251 -0.135350E-08  0.251E-04    1.06      79.7  T
     SCC iter.                  ...        0 min,  0.015 sec
     gradient                   ...        0 min,  0.013 sec
 * total energy  :   -41.9263970 Eh     change       -0.3012058E-01 Eh
   gradient norm :     0.1450494 Eh/α   predicted    -0.2383302E-01 ( -20.87%)
   displ. norm   :     0.3964588 α      lambda       -0.2767844E-01
   maximum displ.:     0.2391559 α      in ANC's #2, #33, #50, ...

........................................................................
.............................. CYCLE    9 ..............................
........................................................................

 iter      E             dE          RMSdq      gap      omega  full diag
   1    -42.4600669 -0.424601E+02  0.744E-01    0.92       0.0  T
   2    -42.3818827  0.781842E-01  0.165E+00    0.77       1.0  T
   3    -42.4732530 -0.913703E-01  0.398E-01    0.92       1.0  T
   4    -42.4747345 -0.148147E-02  0.225E-01    0.88       1.0  T
   5    -42.4745598  0.174637E-03  0.160E-01    0.88       1.0  T
   6    -42.4754625 -0.902669E-03  0.239E-02    0.89       1.0  T
   7    -42.4754716 -0.909220E-05  0.822E-03    0.89       2.4  T
   8    -42.4754721 -0.476249E-06  0.385E-03    0.89       5.2  T
   9    -42.4754722 -0.143670E-06  0.118E-03    0.89      16.9  T
  10    -42.4754722 -0.225297E-07  0.533E-04    0.89      37.5  T
  11    -42.4754722 -0.340561E-08  0.237E-04    0.89      84.4  T
     SCC iter.                  ...        0 min,  0.015 sec
     gradient                   ...        0 min,  0.013 sec
 * total energy  :   -41.9474026 Eh     change       -0.2100553E-01 Eh
   gradient norm :     0.1397466 Eh/α   predicted    -0.1601437E-01 ( -23.76%)
   displ. norm   :     0.4079602 α      lambda       -0.2375258E-01
   maximum displ.:     0.2633779 α      in ANC's #2, #33, #50, ...

........................................................................
.............................. CYCLE   10 ..............................
........................................................................

 iter      E             dE          RMSdq      gap      omega  full diag
   1    -42.4672305 -0.424672E+02  0.778E-01    0.85       0.0  T
   2    -42.3518204  0.115410E+00  0.193E+00    0.55       1.0  T
   3    -42.4784186 -0.126598E+00  0.368E-01    0.82       1.0  T
   4    -42.4795261 -0.110748E-02  0.192E-01    0.78       1.0  T
   5    -42.4798070 -0.280850E-03  0.859E-02    0.78       1.0  T
   6    -42.4799988 -0.191845E-03  0.312E-02    0.79       1.0  T
   7    -42.4800388 -0.399661E-04  0.139E-02    0.79       1.4  T
   8    -42.4800436 -0.487979E-05  0.633E-03    0.79       3.2  T
   9    -42.4800443 -0.665658E-06  0.159E-03    0.79      12.6  T
  10    -42.4800443 -0.373144E-07  0.681E-04    0.79      29.4  T
  11    -42.4800443 -0.529293E-08  0.311E-04    0.79      64.2  T
     SCC iter.                  ...        0 min,  0.015 sec
     gradient                   ...        0 min,  0.013 sec
 * total energy  :   -41.9651802 Eh     change       -0.1777764E-01 Eh
   gradient norm :     0.1378562 Eh/α   predicted    -0.1385280E-01 ( -22.08%)
   displ. norm   :     0.3537953 α      lambda       -0.2135241E-01
   maximum displ.:     0.2177463 α      in ANC's #2, #33, #17, ...

........................................................................
.............................. CYCLE   11 ..............................
........................................................................

 iter      E             dE          RMSdq      gap      omega  full diag
   1    -42.4770248 -0.424770E+02  0.698E-01    0.80       0.0  T
   2    -42.4036190  0.734058E-01  0.153E+00    0.57       1.0  T
   3    -42.4762665 -0.726475E-01  0.500E-01    0.82       1.0  T
   4    -42.4811228 -0.485630E-02  0.191E-01    0.72       1.0  T
   5    -42.4816640 -0.541152E-03  0.113E-01    0.76       1.0  T
   6    -42.4823517 -0.687701E-03  0.272E-02    0.74       1.0  T
   7    -42.4823624 -0.106907E-04  0.156E-02    0.74       1.3  T
   8    -42.4823667 -0.429921E-05  0.592E-03    0.74       3.4  T
   9    -42.4823672 -0.562075E-06  0.132E-03    0.74      15.1  T
  10    -42.4823673 -0.476809E-07  0.501E-04    0.74      39.9  T
  11    -42.4823673 -0.110908E-08  0.228E-04    0.74      87.6  T
     SCC iter.                  ...        0 min,  0.015 sec
     gradient                   ...        0 min,  0.013 sec
 * total energy  :   -41.9817372 Eh     change       -0.1655694E-01 Eh
   gradient norm :     0.1420688 Eh/α   predicted    -0.1201252E-01 ( -27.45%)
   displ. norm   :     0.3556562 α      lambda       -0.2835384E-01
   maximum displ.:     0.1689155 α      in ANC's #2, #33, #17, ...

........................................................................
.............................. CYCLE   12 ..............................
........................................................................

 iter      E             dE          RMSdq      gap      omega  full diag
   1    -42.4891865 -0.424892E+02  0.784E-01    0.74       0.0  T
   2    -42.4193602  0.698263E-01  0.150E+00    0.71       1.0  T
   3    -42.4790853 -0.597251E-01  0.737E-01    0.87       1.0  T
   4    -42.4665730  0.125123E-01  0.711E-01    0.43       1.0  T
   5    -42.4929829 -0.264099E-01  0.173E-01    0.76       1.0  T
   6    -42.4938799 -0.896972E-03  0.853E-02    0.74       1.0  T
   7    -42.4940716 -0.191719E-03  0.423E-02    0.74       1.0  T
   8    -42.4941172 -0.456225E-04  0.125E-02    0.73       1.6  T
   9    -42.4941200 -0.278049E-05  0.407E-03    0.73       4.9  T
  10    -42.4941208 -0.773746E-06  0.816E-04    0.73      24.5  T
  11    -42.4941208  0.331436E-08  0.648E-04    0.73      30.9  T
     SCC iter.                  ...        0 min,  0.015 sec
     gradient                   ...        0 min,  0.013 sec
 * total energy  :   -42.0035429 Eh     change       -0.2180573E-01 Eh
   gradient norm :     0.1526717 Eh/α   predicted    -0.1597041E-01 ( -26.76%)
   displ. norm   :     0.3571445 α      lambda       -0.3006900E-01
   maximum displ.:     0.1405710 α      in ANC's #60, #37, #17, ...

........................................................................
.............................. CYCLE   13 ..............................
........................................................................

 iter      E             dE          RMSdq      gap      omega  full diag
   1    -42.5057263 -0.425057E+02  0.775E-01    0.62       0.0  T
   2    -42.4303472  0.753791E-01  0.149E+00    0.66       1.0  T
   3    -42.4931989 -0.628518E-01  0.807E-01    0.85       1.0  T
   4    -42.4839544  0.924450E-02  0.753E-01    0.40       1.0  T
   5    -42.5098544 -0.259000E-01  0.276E-01    0.74       1.0  T
   6    -42.5122647 -0.241027E-02  0.129E-01    0.70       1.0  T
   7    -42.5127308 -0.466121E-03  0.585E-02    0.67       1.0  T
   8    -42.5128204 -0.895645E-04  0.177E-02    0.66       1.1  T
   9    -42.5128340 -0.136116E-04  0.495E-03    0.66       4.0  T
  10    -42.5128351 -0.116193E-05  0.124E-03    0.66      16.1  T
  11    -42.5128352 -0.333560E-07  0.789E-04    0.66      25.4  T
  12    -42.5128352 -0.168492E-07  0.205E-04    0.66      97.5  T
     SCC iter.                  ...        0 min,  0.016 sec
     gradient                   ...        0 min,  0.013 sec
 * total energy  :   -42.0241312 Eh     change       -0.2058833E-01 Eh
   gradient norm :     0.1580672 Eh/α   predicted    -0.1695266E-01 ( -17.66%)
   displ. norm   :     0.2068423 α      lambda       -0.1737346E-01
   maximum displ.:     0.0930331 α      in ANC's #37, #60, #47, ...

........................................................................
.............................. CYCLE   14 ..............................
........................................................................

 iter      E             dE          RMSdq      gap      omega  full diag
   1    -42.5226424 -0.425226E+02  0.405E-01    0.55       0.0  T
   2    -42.5009197  0.217227E-01  0.799E-01    0.59       1.0  T
   3    -42.5190986 -0.181789E-01  0.445E-01    0.68       1.0  T
   4    -42.5220671 -0.296848E-02  0.268E-01    0.48       1.0  T
   5    -42.5245593 -0.249223E-02  0.153E-01    0.62       1.0  T
   6    -42.5253720 -0.812682E-03  0.388E-02    0.58       1.0  T
   7    -42.5254072 -0.351865E-04  0.166E-02    0.58       1.2  T
   8    -42.5254143 -0.710387E-05  0.578E-03    0.57       3.5  T
   9    -42.5254155 -0.121921E-05  0.141E-03    0.57      14.1  T
  10    -42.5254155 -0.554499E-07  0.590E-04    0.57      33.9  T
  11    -42.5254156 -0.972344E-08  0.238E-04    0.57      84.1  T
     SCC iter.                  ...        0 min,  0.015 sec
     gradient                   ...        0 min,  0.013 sec
 * total energy  :   -42.0365219 Eh     change       -0.1239064E-01 Eh
   gradient norm :     0.1189081 Eh/α   predicted    -0.9058456E-02 ( -26.89%)
   displ. norm   :     0.1952504 α      lambda       -0.1489790E-01
   maximum displ.:     0.1197498 α      in ANC's #2, #37, #49, ...

........................................................................
.............................. CYCLE   15 ..............................
........................................................................

 iter      E             dE          RMSdq      gap      omega  full diag
   1    -42.5348163 -0.425348E+02  0.304E-01    0.60       0.0  T
   2    -42.5123511  0.224652E-01  0.810E-01    0.39       1.0  T
   3    -42.5341749 -0.218238E-01  0.273E-01    0.63       1.0  T
   4    -42.5361145 -0.193961E-02  0.878E-02    0.54       1.0  T
   5    -42.5352333  0.881258E-03  0.144E-01    0.61       1.0  T
   6    -42.5362976 -0.106428E-02  0.119E-02    0.56       1.7  T
   7    -42.5362996 -0.206712E-05  0.559E-03    0.56       3.6  T
   8    -42.5363000 -0.398689E-06  0.248E-03    0.56       8.1  T
   9    -42.5363002 -0.139987E-06  0.631E-04    0.56      31.7  T
  10    -42.5363002 -0.977055E-08  0.292E-04    0.56      68.5  T
     SCC iter.                  ...        0 min,  0.014 sec
     gradient                   ...        0 min,  0.013 sec
 * total energy  :   -42.0459947 Eh     change       -0.9472807E-02 Eh
   gradient norm :     0.0794457 Eh/α   predicted    -0.7733003E-02 ( -18.37%)
   displ. norm   :     0.1023334 α      lambda       -0.5781099E-02
   maximum displ.:     0.0464124 α      in ANC's #50, #2, #57, ...

........................................................................
.............................. CYCLE   16 ..............................
........................................................................

 iter      E             dE          RMSdq      gap      omega  full diag
   1    -42.5396824 -0.425397E+02  0.128E-01    0.54       0.0  T
   2    -42.5397869 -0.104465E-03  0.902E-02    0.56       1.0  T
   3    -42.5394329  0.353941E-03  0.114E-01    0.53       1.0  T
   4    -42.5394706 -0.376882E-04  0.109E-01    0.58       1.0  T
   5    -42.5397185 -0.247815E-03  0.531E-02    0.53       1.0  T
   6    -42.5398588 -0.140360E-03  0.183E-02    0.56       1.1  T
   7    -42.5398740 -0.151702E-04  0.268E-03    0.55       7.5  T
   8    -42.5398740 -0.404751E-07  0.142E-03    0.55      14.1  T
   9    -42.5398740 -0.216315E-07  0.479E-04    0.55      41.7  T
  10    -42.5398741 -0.551398E-08  0.200E-04    0.55      99.8  T
     SCC iter.                  ...        0 min,  0.014 sec
     gradient                   ...        0 min,  0.013 sec
 * total energy  :   -42.0501813 Eh     change       -0.4186582E-02 Eh
   gradient norm :     0.0680467 Eh/α   predicted    -0.2921127E-02 ( -30.23%)
   displ. norm   :     0.1496031 α      lambda       -0.5628076E-02
   maximum displ.:     0.0650605 α      in ANC's #2, #1, #19, ...

........................................................................
.............................. CYCLE   17 ..............................
........................................................................

 iter      E             dE          RMSdq      gap      omega  full diag
   1    -42.5454121 -0.425454E+02  0.184E-01    0.55       0.0  T
   2    -42.5433312  0.208095E-02  0.265E-01    0.59       1.0  T
   3    -42.5442495 -0.918324E-03  0.212E-01    0.51       1.0  T
   4    -42.5445612 -0.311741E-03  0.155E-01    0.62       1.0  T
   5    -42.5456656 -0.110435E-02  0.381E-02    0.55       1.0  T
   6    -42.5457119 -0.463685E-04  0.758E-03    0.56       2.6  T
   7    -42.5457132 -0.128718E-05  0.333E-03    0.56       6.0  T
   8    -42.5457133 -0.338694E-07  0.152E-03    0.56      13.2  T
   9    -42.5457133 -0.523907E-07  0.457E-04    0.56      43.7  T
  10    -42.5457133 -0.690843E-08  0.163E-04    0.56     122.8  T
     SCC iter.                  ...        0 min,  0.014 sec
     gradient                   ...        0 min,  0.013 sec
 * total energy  :   -42.0538688 Eh     change       -0.3687532E-02 Eh
   gradient norm :     0.0599754 Eh/α   predicted    -0.2877135E-02 ( -21.98%)
   displ. norm   :     0.2025709 α      lambda       -0.3726446E-02
   maximum displ.:     0.1708148 α      in ANC's #1, #19, #58, ...

........................................................................
.............................. CYCLE   18 ..............................
........................................................................

 iter      E             dE          RMSdq      gap      omega  full diag
   1    -42.5496620 -0.425497E+02  0.216E-01    0.50       0.0  T
   2    -42.5366280  0.130340E-01  0.598E-01    0.73       1.0  T
   3    -42.5502784 -0.136504E-01  0.117E-01    0.53       1.0  T
   4    -42.5503829 -0.104439E-03  0.776E-02    0.54       1.0  T
   5    -42.5501439  0.238972E-03  0.844E-02    0.57       1.0  T
   6    -42.5505157 -0.371825E-03  0.136E-02    0.54       1.5  T
   7    -42.5505235 -0.778880E-05  0.303E-03    0.54       6.6  T
   8    -42.5505234  0.651966E-07  0.239E-03    0.54       8.4  T
   9    -42.5505236 -0.139563E-06  0.431E-04    0.54      46.4  T
  10    -42.5505236 -0.557641E-08  0.128E-04    0.54     156.1  T
     SCC iter.                  ...        0 min,  0.014 sec
     gradient                   ...        0 min,  0.013 sec
 * total energy  :   -42.0558309 Eh     change       -0.1962123E-02 Eh
   gradient norm :     0.0483916 Eh/α   predicted    -0.1939713E-02 (  -1.14%)
   displ. norm   :     0.2430760 α      lambda       -0.3077457E-02
   maximum displ.:     0.2203552 α      in ANC's #1, #19, #42, ...

........................................................................
.............................. CYCLE   19 ..............................
........................................................................

 iter      E             dE          RMSdq      gap      omega  full diag
   1    -42.5551102 -0.425551E+02  0.200E-01    0.48       0.0  T
   2    -42.5442851  0.108251E-01  0.540E-01    0.71       1.0  T
   3    -42.5555296 -0.112445E-01  0.114E-01    0.52       1.0  T
   4    -42.5550386  0.490936E-03  0.131E-01    0.50       1.0  T
   5    -42.5556432 -0.604589E-03  0.478E-02    0.54       1.0  T
   6    -42.5557554 -0.112150E-03  0.568E-03    0.52       3.5  T
   7    -42.5557559 -0.536940E-06  0.333E-03    0.52       6.0  T
   8    -42.5557559 -0.436946E-07  0.193E-03    0.52      10.4  T
   9    -42.5557560 -0.977524E-07  0.271E-04    0.52      73.7  T
  10    -42.5557560 -0.511186E-09  0.156E-04    0.52     128.2  T
     SCC iter.                  ...        0 min,  0.014 sec
     gradient                   ...        0 min,  0.013 sec
 * total energy  :   -42.0569826 Eh     change       -0.1151639E-02 Eh
   gradient norm :     0.0437667 Eh/α   predicted    -0.1629771E-02 (  41.52%)
   displ. norm   :     0.1232247 α      lambda       -0.1785415E-02
   maximum displ.:     0.1052437 α      in ANC's #1, #50, #17, ...

........................................................................
.............................. CYCLE   20 ..............................
........................................................................

 iter      E             dE          RMSdq      gap      omega  full diag
   1    -42.5582337 -0.425582E+02  0.124E-01    0.55       0.0  T
   2    -42.5580035  0.230185E-03  0.107E-01    0.50       1.0  T
   3    -42.5569056  0.109787E-02  0.190E-01    0.60       1.0  T
   4    -42.5580925 -0.118690E-02  0.862E-02    0.53       1.0  T
   5    -42.5581978 -0.105241E-03  0.496E-02    0.52       1.0  T
   6    -42.5583259 -0.128093E-03  0.660E-03    0.54       3.0  T
   7    -42.5583272 -0.130460E-05  0.173E-03    0.54      11.5  T
   8    -42.5583272  0.158169E-07  0.927E-04    0.54      21.6  T
   9    -42.5583272 -0.234491E-07  0.192E-04    0.54     104.0  T
     SCC iter.                  ...        0 min,  0.012 sec
     gradient                   ...        0 min,  0.013 sec
 * total energy  :   -42.0580299 Eh     change       -0.1047381E-02 Eh
   gradient norm :     0.0308638 Eh/α   predicted    -0.9063303E-03 ( -13.47%)
   displ. norm   :     0.0644002 α      lambda       -0.9834572E-03
   maximum displ.:     0.0510937 α      in ANC's #1, #19, #44, ...
 * RMSD in coord.:     0.7074500 α      energy gain  -0.6415868E+01 Eh

generating ANC from model Hessian ...
Using Lindh-Hessian (1995)
 Shifting diagonal of input Hessian by    1.1082423375627766E-002
 Lowest  eigenvalues of input Hessian
    0.010000    0.010045    0.000000    0.000000    0.000000    0.000000
    0.000000    0.000000    0.013896    0.015240    0.016587    0.019790
    0.020811    0.022749    0.022912    0.025106    0.032381    0.034860
 Highest eigenvalues
    1.966160    2.126698    2.227956    2.357278    2.534557    3.065909


........................................................................
.............................. CYCLE   21 ..............................
........................................................................

 iter      E             dE          RMSdq      gap      omega  full diag
   1    -42.5597198 -0.425597E+02  0.688E-02    0.51       0.0  T
   2    -42.5593963  0.323504E-03  0.949E-02    0.56       1.0  T
   3    -42.5594974 -0.101075E-03  0.858E-02    0.50       1.0  T
   4    -42.5596148 -0.117361E-03  0.657E-02    0.52       1.0  T
   5    -42.5597619 -0.147174E-03  0.136E-02    0.53       1.5  T
   6    -42.5597682 -0.621964E-05  0.413E-03    0.53       4.8  T
   7    -42.5597687 -0.493324E-06  0.138E-03    0.52      14.5  T
   8    -42.5597687 -0.184918E-07  0.689E-04    0.52      29.0  T
   9    -42.5597687 -0.972698E-08  0.132E-04    0.52     151.6  T
     SCC iter.                  ...        0 min,  0.013 sec
     gradient                   ...        0 min,  0.013 sec
 * total energy  :   -42.0587130 Eh     change       -0.6831129E-03 Eh
   gradient norm :     0.0222145 Eh/α   predicted     0.0000000E+00 (-100.00%)
   displ. norm   :     0.1873273 α      lambda       -0.2393095E-02
   maximum displ.:     0.1126428 α      in ANC's #17, #12, #19, ...

........................................................................
.............................. CYCLE   22 ..............................
........................................................................

 iter      E             dE          RMSdq      gap      omega  full diag
   1    -42.5630256 -0.425630E+02  0.137E-01    0.52       0.0  T
   2    -42.5628531  0.172460E-03  0.110E-01    0.51       1.0  T
   3    -42.5609825  0.187062E-02  0.241E-01    0.57       1.0  T
   4    -42.5627556 -0.177307E-02  0.819E-02    0.48       1.0  T
   5    -42.5629865 -0.230897E-03  0.376E-02    0.53       1.0  T
   6    -42.5630636 -0.771718E-04  0.775E-03    0.52       2.6  T
   7    -42.5630653 -0.167455E-05  0.328E-03    0.52       6.1  T
   8    -42.5630655 -0.216408E-06  0.727E-04    0.52      27.5  T
   9    -42.5630655 -0.104755E-07  0.254E-04    0.52      78.9  T
     SCC iter.                  ...        0 min,  0.013 sec
     gradient                   ...        0 min,  0.013 sec
 * total energy  :   -42.0603388 Eh     change       -0.1625742E-02 Eh
   gradient norm :     0.0091486 Eh/α   predicted    -0.1238555E-02 ( -23.82%)
   displ. norm   :     0.1604661 α      lambda       -0.6923169E-03
   maximum displ.:     0.0903178 α      in ANC's #6, #17, #1, ...

........................................................................
.............................. CYCLE   23 ..............................
........................................................................

 iter      E             dE          RMSdq      gap      omega  full diag
   1    -42.5657765 -0.425658E+02  0.724E-02    0.51       0.0  T
   2    -42.5656990  0.775543E-04  0.663E-02    0.51       1.0  T
   3    -42.5654168  0.282161E-03  0.106E-01    0.53       1.0  T
   4    -42.5656016 -0.184786E-03  0.646E-02    0.48       1.0  T
   5    -42.5657636 -0.161987E-03  0.250E-02    0.52       1.0  T
   6    -42.5657962 -0.325917E-04  0.413E-03    0.51       4.8  T
   7    -42.5657966 -0.427624E-06  0.187E-03    0.51      10.7  T
   8    -42.5657967 -0.643026E-07  0.555E-04    0.51      36.1  T
   9    -42.5657967 -0.747325E-08  0.156E-04    0.51     128.4  T
     SCC iter.                  ...        0 min,  0.012 sec
     gradient                   ...        0 min,  0.013 sec
 * total energy  :   -42.0607592 Eh     change       -0.4203806E-03 Eh
   gradient norm :     0.0052131 Eh/α   predicted    -0.3551092E-03 ( -15.53%)
   displ. norm   :     0.1019321 α      lambda       -0.1527773E-03
   maximum displ.:     0.0703109 α      in ANC's #6, #1, #9, ...

........................................................................
.............................. CYCLE   24 ..............................
........................................................................

 iter      E             dE          RMSdq      gap      omega  full diag
   1    -42.5665415 -0.425665E+02  0.294E-02    0.51       0.0  T
   2    -42.5665139  0.275905E-04  0.326E-02    0.50       1.0  T
   3    -42.5664767  0.371330E-04  0.446E-02    0.52       1.0  T
   4    -42.5665238 -0.470210E-04  0.216E-02    0.50       1.0  T
   5    -42.5665412 -0.174431E-04  0.926E-03    0.51       2.2  T
   6    -42.5665454 -0.420693E-05  0.130E-03    0.51      15.4  T
   7    -42.5665455 -0.403696E-07  0.604E-04    0.51      33.1  T
   8    -42.5665455 -0.425096E-08  0.196E-04    0.51     102.2  T
     SCC iter.                  ...        0 min,  0.011 sec
     gradient                   ...        0 min,  0.013 sec
 * total energy  :   -42.0608730 Eh     change       -0.1138601E-03 Eh
   gradient norm :     0.0038481 Eh/α   predicted    -0.7718394E-04 ( -32.21%)
   displ. norm   :     0.1232270 α      lambda       -0.1233215E-03
   maximum displ.:     0.0824297 α      in ANC's #6, #1, #9, ...

........................................................................
.............................. CYCLE   25 ..............................
........................................................................

 iter      E             dE          RMSdq      gap      omega  full diag
   1    -42.5664806 -0.425665E+02  0.390E-02    0.51       0.0  T
   2    -42.5664240  0.565224E-04  0.449E-02    0.50       1.0  T
   3    -42.5663586  0.654024E-04  0.593E-02    0.52       1.0  T
   4    -42.5664703 -0.111632E-03  0.184E-02    0.50       1.1  T
   5    -42.5664806 -0.103445E-04  0.967E-03    0.51       2.1  T
   6    -42.5664852 -0.452827E-05  0.117E-03    0.51      17.0  T
   7    -42.5664852 -0.281740E-07  0.591E-04    0.51      33.8  T
   8    -42.5664852 -0.295030E-08  0.171E-04    0.51     117.1  T
     SCC iter.                  ...        0 min,  0.011 sec
     gradient                   ...        0 min,  0.013 sec
 * total energy  :   -42.0609501 Eh     change       -0.7704160E-04 Eh
   gradient norm :     0.0024269 Eh/α   predicted    -0.6261278E-04 ( -18.73%)
   displ. norm   :     0.0506348 α      lambda       -0.2397291E-04
   maximum displ.:     0.0409031 α      in ANC's #1, #6, #9, ...

........................................................................
.............................. CYCLE   26 ..............................
........................................................................

 iter      E             dE          RMSdq      gap      omega  full diag
   1    -42.5661559 -0.425662E+02  0.161E-02    0.51       0.0  T
   2    -42.5661262  0.296729E-04  0.294E-02    0.50       1.0  T
   3    -42.5661507 -0.245272E-04  0.149E-02    0.51       1.3  T
   4    -42.5661560 -0.523395E-05  0.620E-03    0.51       3.2  T
   5    -42.5661567 -0.722535E-06  0.372E-03    0.50       5.4  T
   6    -42.5661574 -0.703737E-06  0.377E-04    0.51      53.1  T
   7    -42.5661574 -0.252835E-08  0.180E-04    0.51     110.9  T
     SCC iter.                  ...        0 min,  0.010 sec
     gradient                   ...        0 min,  0.013 sec
 * total energy  :   -42.0609666 Eh     change       -0.1657027E-04 Eh
   gradient norm :     0.0015439 Eh/α   predicted    -0.1208828E-04 ( -27.05%)
   displ. norm   :     0.0455038 α      lambda       -0.9498687E-05
   maximum displ.:     0.0432557 α      in ANC's #1, #12, #6, ...

   *** GEOMETRY OPTIMIZATION CONVERGED AFTER 26 ITERATIONS ***

------------------------------------------------------------------------
 total energy gain   :        -6.4188043 Eh    -4027.8605 kcal/mol
 total RMSD          :         0.7068379 a0        0.3740 Å
 total power (kW/mol):      -648.1757045 (step)********** (real)
------------------------------------------------------------------------

 ANCopt (total)                0 d,  0 h,  0 min,  0.844 sec
 optimizer setup                ...        0 min,  0.000 sec (  0.034%)
 model hessian                  ...        0 min,  0.014 sec (  1.618%)
 ANC generation                 ...        0 min,  0.002 sec (  0.207%)
 coordinate transformation      ...        0 min,  0.000 sec (  0.030%)
 single point calculation       ...        0 min,  0.822 sec ( 97.338%)
 optimization log               ...        0 min,  0.002 sec (  0.296%)
 hessian update                 ...        0 min,  0.000 sec (  0.040%)
 rational function              ...        0 min,  0.002 sec (  0.285%)

================
 final structure:
================
25
 xtb: 6.6.1 (8d0f1dd)
C            3.15506075517846        1.19952374034727        0.01703027158595
N            2.20980688384797        0.11599412552181       -0.00076267923925
C            2.51870337325117       -1.18812421890889       -0.00719074528838
N            1.35674171945867       -1.88051001901911       -0.00724469049258
C            0.30211752676955       -1.01286857852304        0.00041665417668
C            0.84152647136311        0.26976140025866        0.00637349473011
C            0.00408882487981        1.45126165191866       -0.00187831791937
O            0.38875125291289        2.59513203841808       -0.01452811693923
N           -1.34869810455251        1.10861696451138        0.00207431674279
C           -2.31633381920505        2.19765623935168        0.00000052110035
C           -1.90707323079169       -0.15546676036673        0.00380775363885
O           -3.09232859443273       -0.33681909513946        0.00612555337308
N           -1.01662073694960       -1.25520816050641        0.00130087133427
C           -1.55915876173454       -2.59603629273225       -0.00351231095547
H            3.65440128144892        1.24578142588089        0.98595563503409
H            3.90907975901506        1.04645941293216       -0.75365549453211
H            2.62826033200801        2.13700729800782       -0.15592435067660
H            4.92769372196418       -2.84177293414032       -0.01920181832889
H           -1.77158831870834        3.13833195861614        0.00838121776561
H           -2.94486440822810        2.13172539859903       -0.88810033410720
H           -2.95769590246503        2.12214400811044        0.87802418560039
H           -1.23236621261368       -3.14164621006972        0.88265056622866
H           -1.24735204056248       -3.12975553056130       -0.90235311175215
H           -2.64551445812601       -2.51464877070415        0.00572990294136
H            1.30379420037196       -2.88830055020259       -0.01234735612096

 Bond Distances (Angstroems)
 ---------------------------
C1-N2=1.4380         C1-H15=1.0910        C1-H16=1.0890        C1-H17=1.0892        N2-C1=1.4380         N2-C3=1.3402         
N2-C6=1.3769         C3-N2=1.3402         C3-N4=1.3526         N4-C3=1.3526         N4-C5=1.3657         N4-H25=1.0092        
C5-N4=1.3657         C5-C6=1.3915         C5-N13=1.3408        C6-N2=1.3769         C6-C5=1.3915         C6-C7=1.4482         
C7-C6=1.4482         C7-O8=1.2069         C7-N9=1.3955         O8-C7=1.2069         N9-C7=1.3955         N9-C10=1.4568        
N9-C11=1.3819        C10-N9=1.4568        C10-H19=1.0871       C10-H20=1.0900       C10-H21=1.0899       C11-N9=1.3819        
C11-O12=1.1991       C11-N13=1.4150       O12-C11=1.1991       N13-C5=1.3408        N13-C11=1.4150       N13-C14=1.4464       
C14-N13=1.4464       C14-H22=1.0908       C14-H23=1.0909       C14-H24=1.0894       H15-C1=1.0910        H16-C1=1.0890        
H17-C1=1.0892        H19-C10=1.0871       H20-C10=1.0900       H21-C10=1.0899       H22-C14=1.0908       H23-C14=1.0909       
H24-C14=1.0894       H25-N4=1.0092        
 C  H  Rav=1.0897 sigma=0.0012  Rmin=1.0871  Rmax=1.0910     9
 C  C  Rav=1.4198 sigma=0.0284  Rmin=1.3915  Rmax=1.4482     2
 N  H  Rav=1.0092 sigma=0.0000  Rmin=1.0092  Rmax=1.0092     1
 N  C  Rav=1.3918 sigma=0.0401  Rmin=1.3402  Rmax=1.4568    11
 O  C  Rav=1.2030 sigma=0.0039  Rmin=1.1991  Rmax=1.2069     2

 selected bond angles (degree)
 --------------------
H15-C1-N2=110.11               H16-C1-N2=109.91               H16-C1-H15=108.52              H17-C1-N2=109.19               
H17-C1-H15=109.02              H17-C1-H16=110.09              C3-N2-C1=125.57                C6-N2-C1=124.68                
C6-N2-C3=109.74                N4-C3-N2=107.46                C5-N4-C3=109.77                H25-N4-C3=123.80               
H25-N4-C5=126.44               C6-C5-N4=106.64                N13-C5-N4=130.14               N13-C5-C6=123.22               
C5-C6-N2=106.40                C7-C6-N2=131.74                C7-C6-C5=121.86                O8-C7-C6=126.09                
N9-C7-C6=111.11                N9-C7-O8=122.80                C10-N9-C7=117.41               C11-N9-C7=128.05               
C11-N9-C10=114.55              H19-C10-N9=108.30              H20-C10-N9=109.81              H20-C10-H19=110.34             
H21-C10-N9=109.75              H21-C10-H19=110.40             H21-C10-H20=108.23             

 selected dihedral angles (degree)
 ---------------------------------
C3-N2-C1-H15=289.90           C3-N2-C1-H16= 49.39           C3-N2-C1-H17=170.24           C6-N2-C1-H15=108.88           
C6-N2-C1-H16=228.37           C6-N2-C1-H17=349.22           N4-C3-N2-C1=179.24            N4-C3-N2-C6=  0.13            
C5-N4-C3-N2=359.94            H25-N4-C3-N2=179.94           C6-C5-N4-C3=359.96            C6-C5-N4-H25=179.96           
N13-C5-N4-C3=179.90           N13-C5-N4-H25=359.90          C5-C6-N2-C1=180.72            C5-C6-N2-C3=359.84            
C7-C6-N2-C1=  1.77            C7-C6-N2-C3=180.89            N2-C6-C5-N4=  0.12            N2-C6-C5-N13=180.18           
C7-C6-C5-N4=179.20            C7-C6-C5-N13=359.26           O8-C7-C6-N2=359.82            O8-C7-C6-C5=181.00            
N9-C7-C6-N2=179.61            N9-C7-C6-C5=  0.79            C10-N9-C7-C6=179.76           C10-N9-C7-O8=359.57           
C11-N9-C7-C6=359.55           C11-N9-C7-O8=179.35           H19-C10-N9-C7=359.28          H19-C10-N9-C11=179.47         
H20-C10-N9-C7=119.83          H20-C10-N9-C11=300.02         H21-C10-N9-C7=238.69          H21-C10-N9-C11= 58.88         
           -------------------------------------------------
          |                Final Singlepoint                |
           -------------------------------------------------

          ...................................................
          :                      SETUP                      :
          :.................................................:
          :  # basis functions                  67          :
          :  # atomic orbitals                  67          :
          :  # shells                           39          :
          :  # electrons                        74          :
          :  max. iterations                   250          :
          :  Hamiltonian                  GFN2-xTB          :
          :  restarted?                      false          :
          :  GBSA solvation                  false          :
          :  PC potential                    false          :
          :  electronic temp.         2500.0000000     K    :
          :  accuracy                    1.0000000          :
          :  -> integral cutoff          0.2500000E+02      :
          :  -> integral neglect         0.1000000E-07      :
          :  -> SCF convergence          0.1000000E-05 Eh   :
          :  -> wf. convergence          0.1000000E-03 e    :
          :  Broyden damping             0.4000000          :
          ...................................................

 iter      E             dE          RMSdq      gap      omega  full diag
   1    -42.5661574 -0.425662E+02  0.548E-05    0.51       0.0  T
   2    -42.5661574  0.448928E-09  0.105E-04    0.51     189.9  T
   3    -42.5661574 -0.419732E-09  0.616E-05    0.51     324.7  T

   *** convergence criteria satisfied after 3 iterations ***

         #    Occupation            Energy/Eh            Energy/eV
      -------------------------------------------------------------
         1        2.0000           -0.8964379             -24.3933
       ...           ...                  ...                  ...
        31        1.9995           -0.6052620             -16.4700
        32        1.9994           -0.6047413             -16.4558
        33        1.9957           -0.5885556             -16.0154
        34        1.9737           -0.5741273             -15.6228
        35        1.9460           -0.5683145             -15.4646
        36        1.8146           -0.5579934             -15.1838
        37        1.6499           -0.5522100             -15.0264 (HOMO)
        38        0.6214           -0.5336262             -14.5207 (LUMO)
        39        0.0000           -0.4208116             -11.4509
        40                         -0.3920183             -10.6674
        41                         -0.3736921             -10.1687
        42                         -0.2923603              -7.9555
       ...                                ...                  ...
        67                          0.5501146              14.9694
      -------------------------------------------------------------
                  HL-Gap            0.0185838 Eh            0.5057 eV
             Fermi-level           -0.5399355 Eh          -14.6924 eV

 SCC (total)                   0 d,  0 h,  0 min,  0.023 sec
 SCC setup                      ...        0 min,  0.000 sec (  0.855%)
 Dispersion                     ...        0 min,  0.000 sec (  0.830%)
 classical contributions        ...        0 min,  0.000 sec (  0.308%)
 integral evaluation            ...        0 min,  0.005 sec ( 21.658%)
 iterations                     ...        0 min,  0.005 sec ( 20.074%)
 molecular gradient             ...        0 min,  0.013 sec ( 55.700%)
 printout                       ...        0 min,  0.000 sec (  0.520%)

         :::::::::::::::::::::::::::::::::::::::::::::::::::::
         ::                     SUMMARY                     ::
         :::::::::::::::::::::::::::::::::::::::::::::::::::::
         :: total energy             -42.060966643939 Eh    ::
         :: gradient norm              0.001543284201 Eh/a0 ::
         :: HOMO-LUMO gap              0.505691435636 eV    ::
         ::.................................................::
         :: SCC energy               -42.566157412469 Eh    ::
         :: -> isotropic ES            0.128711284086 Eh    ::
         :: -> anisotropic ES         -0.004488878852 Eh    ::
         :: -> anisotropic XC          0.010870174622 Eh    ::
         :: -> dispersion             -0.022554454808 Eh    ::
         :: repulsion energy           0.505069114407 Eh    ::
         :: add. restraining           0.000027779034 Eh    ::
         :: total charge               1.000000000188 e     ::
         :::::::::::::::::::::::::::::::::::::::::::::::::::::

           -------------------------------------------------
          |                Property Printout                |
           -------------------------------------------------

    * Orbital Energies and Occupations

         #    Occupation            Energy/Eh            Energy/eV
      -------------------------------------------------------------
         1        2.0000           -0.8964379             -24.3933
       ...           ...                  ...                  ...
        25        2.0000           -0.6652079             -18.1012
        26        2.0000           -0.6628276             -18.0365
        27        2.0000           -0.6364860             -17.3197
        28        2.0000           -0.6320933             -17.2001
        29        1.9999           -0.6233201             -16.9614
        30        1.9999           -0.6162789             -16.7698
        31        1.9995           -0.6052620             -16.4700
        32        1.9994           -0.6047413             -16.4558
        33        1.9957           -0.5885556             -16.0154
        34        1.9737           -0.5741273             -15.6228
        35        1.9460           -0.5683145             -15.4646
        36        1.8146           -0.5579934             -15.1838
        37        1.6499           -0.5522100             -15.0264 (HOMO)
        38        0.6214           -0.5336262             -14.5207 (LUMO)
        39        0.0000           -0.4208116             -11.4509
        40                         -0.3920183             -10.6674
        41                         -0.3736921             -10.1687
        42                         -0.2923603              -7.9555
        43                         -0.2090909              -5.6897
        44                         -0.1683932              -4.5822
        45                         -0.1423322              -3.8731
        46                         -0.1294593              -3.5228
        47                         -0.0692926              -1.8855
        48                         -0.0371450              -1.0108
       ...                                ...                  ...
        67                          0.5501146              14.9694
      -------------------------------------------------------------
                  HL-Gap            0.0185838 Eh            0.5057 eV
             Fermi-level           -0.5399355 Eh          -14.6924 eV

     #   Z          covCN         q      C6AA      α(0)
     1   6 C        3.692    -0.085    22.319     6.760
     2   7 N        2.851     0.077    19.899     6.625
     3   6 C        2.059    -0.052    32.355     9.188
     4   7 N        2.808    -0.062    22.439     7.035
     5   6 C        3.019     0.118    25.390     8.265
     6   6 C        3.079    -0.010    28.180     8.703
     7   6 C        2.764     0.275    22.346     7.742
     8   8 O        0.858    -0.341    20.540     6.076
     9   7 N        2.746    -0.079    22.771     7.087
    10   6 C        3.710    -0.062    21.834     6.678
    11   6 C        2.728     0.319    21.580     7.605
    12   8 O        0.860    -0.343    20.571     6.081
    13   7 N        2.738    -0.044    22.085     6.980
    14   6 C        3.697    -0.071    22.033     6.714
    15   1 H        0.924     0.107     1.723     2.053
    16   1 H        0.925     0.107     1.726     2.055
    17   1 H        0.925     0.121     1.605     1.981
    18   1 H        0.000     0.172     3.121     3.230
    19   1 H        0.925     0.116     1.650     2.009
    20   1 H        0.925     0.104     1.751     2.069
    21   1 H        0.925     0.104     1.749     2.068
    22   1 H        0.924     0.092     1.859     2.132
    23   1 H        0.924     0.092     1.856     2.131
    24   1 H        0.925     0.129     1.545     1.944
    25   1 H        0.860     0.217     1.025     1.586

 Mol. C6AA /au·bohr⁶  :       6657.182929
 Mol. C8AA /au·bohr⁸  :     152537.322885
 Mol. α(0) /au        :        124.797827


Wiberg/Mayer (AO) data.
largest (>0.10) Wiberg bond orders for each atom

 ---------------------------------------------------------------------------
     #   Z sym  total        # sym  WBO       # sym  WBO       # sym  WBO
 ---------------------------------------------------------------------------
     1   6 C    3.915 --     2 N    0.995    17 H    0.962    16 H    0.960
                            15 H    0.952
     2   7 N    3.653 --     3 C    1.357     6 C    1.178     1 C    0.995
     3   6 C    2.994 --     2 N    1.357     4 N    1.294    18 H    0.174
     4   7 N    3.590 --     3 C    1.294     5 C    1.189    25 H    0.924
     5   6 C    3.908 --     6 C    1.314    13 N    1.226     4 N    1.189
     6   6 C    3.821 --     5 C    1.314     2 N    1.178     7 C    1.063
     7   6 C    3.953 --     8 O    1.694     9 N    1.099     6 C    1.063
     8   8 O    2.012 --     7 C    1.694     9 N    0.138
     9   7 N    3.537 --    11 C    1.128     7 C    1.099    10 C    0.970
                             8 O    0.138    12 O    0.131
    10   6 C    3.899 --     9 N    0.970    19 H    0.968    21 H    0.958
                            20 H    0.958
    11   6 C    3.955 --    12 O    1.706     9 N    1.128    13 N    1.030
    12   8 O    2.025 --    11 C    1.706     9 N    0.131    13 N    0.106
    13   7 N    3.488 --     5 C    1.226    11 C    1.030    14 C    0.980
                            12 O    0.106
    14   6 C    3.913 --    13 N    0.980    24 H    0.964    22 H    0.961
                            23 H    0.961
    15   1 H    0.979 --     1 C    0.952
    16   1 H    0.982 --     1 C    0.960
    17   1 H    0.982 --     1 C    0.962
    18   1 H    0.199 --     3 C    0.174
    19   1 H    0.986 --    10 C    0.968
    20   1 H    0.977 --    10 C    0.958
    21   1 H    0.977 --    10 C    0.958
    22   1 H    0.978 --    14 C    0.961
    23   1 H    0.978 --    14 C    0.961
    24   1 H    0.983 --    14 C    0.964
    25   1 H    0.952 --     4 N    0.924
 ---------------------------------------------------------------------------

Topologies differ in total number of bonds
Writing topology from bond orders to xtbtopo.mol

molecular dipole:
                 x           y           z       tot (Debye)
 q only:        2.471      -2.174       0.004
   full:        2.292      -2.463       0.010       8.552
molecular quadrupole (traceless):
                xx          xy          yy          xz          yz          zz
 q only:       17.514     -13.591       5.367       0.032       0.197     -22.881
  q+dip:       11.416     -13.860       6.103       0.112       0.242     -17.520
   full:       10.402     -13.564       5.339       0.115       0.247     -15.741

           -------------------------------------------------
          |                Geometry Summary                 |
           -------------------------------------------------

      molecular mass/u    :      195.1988581
   center of mass at/Å    :       -0.0527637       0.0442500       0.0000553
  moments of inertia/u·Å² :        0.4836172E+03   0.7297073E+03   0.1203794E+04
rotational constants/cm⁻¹ :        0.3485739E-01   0.2310191E-01   0.1400375E-01

 * 24 selected distances

     #   Z          #   Z                                           value/Å
     1   6 C        2   7 N                                       1.4380050
     2   7 N        3   6 C                                       1.3402177
     3   6 C        4   7 N                                       1.3526098
     4   7 N        5   6 C                                       1.3656840
     2   7 N        6   6 C                                       1.3769121
     5   6 C        6   6 C                                       1.3914516
     7   6 C        8   8 O                                       1.2068823
     7   6 C        9   7 N                                       1.3955120
     9   7 N       10   6 C                                       1.4568219 (max)
     9   7 N       11   6 C                                       1.3819167
    11   6 C       12   8 O                                       1.1990515
     5   6 C       13   7 N                                       1.3408207
    11   6 C       13   7 N                                       1.4150419
    13   7 N       14   6 C                                       1.4464409
     1   6 C       15   1 H                                       1.0910075
     1   6 C       16   1 H                                       1.0890042
     1   6 C       17   1 H                                       1.0891775
    10   6 C       19   1 H                                       1.0870552
    10   6 C       20   1 H                                       1.0900096
    10   6 C       21   1 H                                       1.0899418
    14   6 C       22   1 H                                       1.0907651
    14   6 C       23   1 H                                       1.0908688
    14   6 C       24   1 H                                       1.0894394
     4   7 N       25   1 H                                       1.0091935 (min)

 * 5 distinct bonds (by element types)

   Z      Z             #   av. dist./Å        max./Å        min./Å
   1 H    6 C           9     1.0896966     1.0910075     1.0870552
   6 C    6 C           1     1.3914516     1.3914516     1.3914516
   1 H    7 N           1     1.0091935     1.0091935     1.0091935
   6 C    7 N          11     1.3918166     1.4568219     1.3402177
   6 C    8 O           2     1.2029669     1.2068823     1.1990515


optimized geometry written to: xtbopt.xyz


           -------------------------------------------------
          | TOTAL ENERGY              -42.060966643939 Eh   |
          | GRADIENT NORM               0.001543284201 Eh/α |
          | HOMO-LUMO GAP               0.505691435636 eV   |
           -------------------------------------------------

------------------------------------------------------------------------
 * finished run on 2024/06/05 at 19:58:00.531     
------------------------------------------------------------------------
 total:
 * wall-time:     0 d,  0 h,  0 min,  0.939 sec
 *  cpu-time:     0 d,  0 h,  0 min,  0.919 sec
 * ratio c/w:     0.979 speedup
 SCF:
 * wall-time:     0 d,  0 h,  0 min,  0.038 sec
 *  cpu-time:     0 d,  0 h,  0 min,  0.038 sec
 * ratio c/w:     1.000 speedup
 ANC optimizer:
 * wall-time:     0 d,  0 h,  0 min,  0.872 sec
 *  cpu-time:     0 d,  0 h,  0 min,  0.868 sec
 * ratio c/w:     0.996 speedup

