25
 energy: 0.000000000000 xtb: 6.6.1 (8d0f1dd)
C            3.23720132972391        1.16630909158653        0.08434468864950
N            2.29877796055224        0.07527476373246        0.03981602671198
C            2.58028186251803       -1.21425391179017        0.03006175752192
N            1.43813944744728       -1.93419254010258        0.00098261751768
C            0.39035684826767       -1.05887462812143       -0.00790371763344
C            0.93510047688824        0.21347817468824        0.01709077332874
C            0.09450143016486        1.40504290868848       -0.00410946993748
O            0.49712746915594        2.54126690785742       -0.00342325656480
N           -1.25076628431515        1.06271869620815       -0.03085477937476
C           -2.21907191394203        2.15522079838987       -0.05001256521996
C           -1.81739470187490       -0.20012724136556       -0.04692818139228
O           -2.99983858926755       -0.37846413507442       -0.07008877579474
N           -0.92618577614240       -1.30210203518959       -0.03682761236648
C           -1.46982251276835       -2.64643077634382       -0.06029819901142
H            3.71247229913541        1.21471443890471        1.06488839270555
H            4.00791460421487        1.03430799217987       -0.67357688121503
H            2.69909982127087        2.09770098766290       -0.09130154035862
H            3.56654087521359       -1.63682977417947        0.04233139674524
H           -1.67107945562430        3.09322822573871       -0.02552706696334
H           -2.82428927394145        2.09428605349656       -0.95318074103337
H           -2.87644002486466        2.07745706351925        0.81450059976605
H           -1.17061985538665       -3.19584861009707        0.83242224714061
H           -1.14560246782873       -3.17511580834413       -0.95688266944647
H           -2.55549768731684       -2.55659960601237       -0.07459039105944
H            1.38130842369251       -2.94313824728853       -0.01389874052104
25
 energy: -4.990172248846 xtb: 6.6.1 (8d0f1dd)
C            3.23024516398680        1.17966405056664        0.08587397833428
N            2.30099308131234        0.09263087862733        0.03658442328990
C            2.59982231660951       -1.23361993334454        0.03034640824006
N            1.43145692796682       -1.94709464422292        0.00064717112464
C            0.39526909666492       -1.06731940061290       -0.00902489800768
C            0.92256027913212        0.21330470686510        0.01358616428863
C            0.09028800576334        1.38480853241818       -0.00676721940538
O            0.48716774605924        2.55010543939886       -0.00626129577249
N           -1.27342975889908        1.04737299197501       -0.03155238157529
C           -2.20994398410818        2.17888981744238       -0.04755639084850
C           -1.82979145540509       -0.21204367289993       -0.04778808697258
O           -3.02488977939353       -0.40314030376092       -0.07015495633911
N           -0.93500428613189       -1.31413447653910       -0.03766375983321
C           -1.46070415527734       -2.66307554068984       -0.06036400047127
H            3.69937657237765        1.23427105540512        1.07160818606869
H            4.00521325961974        1.04469458285835       -0.66981805945794
H            2.67921718269188        2.09966420761617       -0.10009340034512
H            3.58077172076424       -1.65394388361248        0.04287084628419
H           -1.62869538008283        3.10084757451622       -0.02172489954083
H           -2.82039459407433        2.16004117525137       -0.95107059933006
H           -2.87230325860332        2.14107360761882        0.81778865518979
H           -1.15255208300540       -3.21407378680254        0.83088792885691
H           -1.12728955278991       -3.19396234667863       -0.95482638941047
H           -2.54657847616421       -2.58455594445762       -0.07504026950659
H            1.37140971595895       -2.95137589819413       -0.01345324266602
25
 energy: -4.206256092676 xtb: 6.6.1 (8d0f1dd)
C            3.20806696617252        1.19434933653396        0.08683682189624
N            2.29298864868021        0.10460848765673        0.02919757874942
C            2.61266502810648       -1.25266772748616        0.03128713050022
N            1.42152608164299       -1.95987259934252        0.00059773646926
C            0.39570463350577       -1.08371380076822       -0.01154519111838
C            0.90009133000483        0.20562949852561        0.00680850713015
C            0.07751054629910        1.34858043715088       -0.01210035534128
O            0.45968073668268        2.53447422333516       -0.01307058291272
N           -1.31238103576115        1.02893157587315       -0.03280854526108
C           -2.18844094261983        2.22738835748547       -0.04224538636391
C           -1.84828136315559       -0.23092483381437       -0.04893573790555
O           -3.04742539985179       -0.44624789227043       -0.06967613930050
N           -0.94773530922739       -1.33288596310202       -0.03942166620028
C           -1.44035465907242       -2.69417027054399       -0.06068665671424
H            3.66349171511118        1.27152682975854        1.08041470531228
H            3.99764857720405        1.06438156869616       -0.65699963434777
H            2.64107975122740        2.10067154292473       -0.11901038889744
H            3.59030809870156       -1.66642090020674        0.04356769868788
H           -1.53612656952806        3.11145486642357       -0.01295489904240
H           -2.80427350000070        2.28431314772420       -0.94664754617224
H           -2.85529296038840        2.26004620508201        0.82545974418995
H           -1.11604078109163       -3.24540993985806        0.82806630500149
H           -1.09019647852812       -3.22680939264568       -0.95110400754461
H           -2.52764945001922       -2.64617388627277       -0.07615629340094
H            1.36565064087803       -2.96203008211519       -0.01183928521898
25
 energy: 1.866029032985 xtb: 6.6.1 (8d0f1dd)
C            3.16946894947712        1.20877905422303        0.08657271641761
N            2.27541535035418        0.10594895263556        0.01901256456411
C            2.61471203132798       -1.26926982356942        0.03239440975499
N            1.41378345040109       -1.97589871824442        0.00090446989422
C            0.39019066739913       -1.10898272305694       -0.01507155299126
C            0.87335565239413        0.18826142682538       -0.00182079223740
C            0.05716659929986        1.31203524411689       -0.01951061647531
O            0.43133094033480        2.50680147883121       -0.02364614926069
N           -1.35905885626114        1.01700523405690       -0.03427577342174
C           -2.15764087132942        2.29532242071034       -0.03434690171755
C           -1.87238490501331       -0.25244377841308       -0.04984438639449
O           -3.06899055028209       -0.50027746422602       -0.06862183950154
N           -0.96114771773971       -1.35662494561499       -0.04184499805126
C           -1.41120696567239       -2.73623110449275       -0.06128660288328
H            3.59914274672597        1.31987484352132        1.09151266032137
H            3.98274826205474        1.08745254274645       -0.63489202949585
H            2.58549600271364        2.09942487373694       -0.14940320094190
H            3.59410457749110       -1.67260179224613        0.04293181200314
H           -1.41662219662373        3.12501677286582       -0.00018712501842
H           -2.77246761899813        2.44642508727253       -0.93847611318316
H           -2.82253564974926        2.41402223450346        0.83583174690911
H           -1.06482541163496       -3.28305854284335        0.82523193123196
H           -1.03794915525328       -3.26664211933081       -0.94703617137058
H           -2.50036605197736       -2.73646161284691       -0.07794280764157
H            1.37049502553349       -2.97884875241699       -0.00915133831593
25
 energy: 12.559614031466 xtb: 6.6.1 (8d0f1dd)
C            3.11632447693101        1.22137758949744        0.08535617271008
N            2.25086762402069        0.09633414664022        0.00680794182345
C            2.60838335902989       -1.28379450320042        0.03322695802926
N            1.41021429150616       -1.99663990541751        0.00146301052469
C            0.38037680478995       -1.14288073129589       -0.01900634331869
C            0.84494857542052        0.16062644112215       -0.01108135054009
C            0.03310362538448        1.27812792357613       -0.02834398244098
O            0.41756004236401        2.46802497384791       -0.03809550242584
N           -1.41030019201968        1.01702241617427       -0.03519383325894
C           -2.12328354083580        2.38218159978498       -0.02412703362443
C           -1.89910405434585       -0.27277487258885       -0.04970396982479
O           -3.08669214657367       -0.56174549144179       -0.06663230818866
N           -0.97368873248962       -1.38400039744345       -0.04444496272274
C           -1.37521709426143       -2.78617064634172       -0.06216672913572
H            3.50583904579134        1.37509063440694        1.10493141928051
H            3.96102041590074        1.10938072510189       -0.60281761538821
H            2.51476048094467        2.09265166845716       -0.19182177791451
H            3.59405945771683       -1.67248339829378        0.03914359380555
H           -1.30186565282441        3.14946295721114        0.01482631600744
H           -2.72501522697572        2.63357343349805       -0.92478125090552
H           -2.77574323427475        2.59172281555696        0.84646455795043
H           -1.00310441881170       -3.32443030588924        0.82255180402071
H           -0.97446751160982       -3.31026842983524       -0.94309890489550
H           -2.46464800990799       -2.84899861583612       -0.08045405468737
H            1.38788592010263       -3.00236123854726       -0.00596824268552
25
 energy: 23.540078615126 xtb: 6.6.1 (8d0f1dd)
C            3.06194198447617        1.22583658731952        0.08335600383523
N            2.22526216022136        0.07491312278467       -0.00370831864414
C            2.59327138203024       -1.28860287330868        0.03382553307220
N            1.41538207784440       -2.01664096715125        0.00231779662832
C            0.36882886384294       -1.17867592559159       -0.02156956376060
C            0.82329312093094        0.12743060703878       -0.01697674285804
C            0.01164865497200        1.25695260702766       -0.03613097501782
O            0.43092009648908        2.42397283251254       -0.05483537049121
N           -1.45192212733573        1.03489633136225       -0.03448456708182
C           -2.09848589587087        2.47107007903971       -0.01409652427724
C           -1.91956472730258       -0.28486430283122       -0.04760672759057
O           -3.09054687281665       -0.61497284627486       -0.06368649567378
N           -0.97985180050615       -1.40914919447435       -0.04597954541588
C           -1.34254579585855       -2.83124722915507       -0.06321798621584
H            3.40341595250674        1.41838313665452        1.11523409419885
H            3.93728246833392        1.12049645737114       -0.56608190754643
H            2.45094667038750        2.07857466904274       -0.23630651654862
H            3.58938032131675       -1.66098186509218        0.03100004758826
H           -1.24334086696723        3.18715661395728        0.02743255119984
H           -2.67121046405317        2.79305916907919       -0.90645375401725
H           -2.72624616198175        2.74436580439667        0.85215422627934
H           -0.94997621213411       -3.35838953179187        0.82081660832398
H           -0.91876051948541       -3.34512343438627       -0.94093195835599
H           -2.42714393881747       -2.95290873517437       -0.08334852535993
H            1.42023593475010       -3.02652232361093       -0.00368747007624
25
 energy: 33.668088024242 xtb: 6.6.1 (8d0f1dd)
C            3.02031399621775        1.22352085348696        0.08108124558520
N            2.20332539329925        0.05710549700374       -0.00945200801960
C            2.57794067531196       -1.27580897857037        0.03579494251462
N            1.42943748444187       -2.02995090253410        0.00335456681760
C            0.35973064010246       -1.20729901060785       -0.02165371896585
C            0.80748500330079        0.10090133362939       -0.01823763175728
C           -0.01115420812126        1.24521374267835       -0.04280215450767
O            0.44184307098903        2.39269599315620       -0.07499531232972
N           -1.47445060586997        1.05004351862080       -0.03267409497742
C           -2.08151513626745        2.54155891531749       -0.00582057633191
C           -1.93302055918719       -0.29517212197899       -0.04450457113630
O           -3.08855125051469       -0.64987383541087       -0.05888338743247
N           -0.98017951455160       -1.43422138326466       -0.04566729614372
C           -1.32310795757027       -2.86695567625688       -0.06432512850408
H            3.30963604029910        1.43785575707099        1.12113594971508
H            3.91857713784252        1.11289044291584       -0.52959380050220
H            2.41223938593964        2.05966231374898       -0.27756077167687
H            3.58365704903183       -1.63208525664698        0.01952041759979
H           -1.20924873778026        3.21884750158256        0.03908757127491
H           -2.62565219641530        2.90570915975217       -0.89046501238580
H           -2.68775107696267        2.85149288674859        0.85512083161163
H           -0.91842404382733       -3.38248215239396        0.82010352053052
H           -0.88398804981896       -3.36726255311031       -0.94146618893632
H           -2.39720994874183       -3.02599977555511       -0.08657507361330
H            1.46228171382505       -3.04135748063794       -0.00348840623426
25
 energy: 42.188931968042 xtb: 6.6.1 (8d0f1dd)
C            2.99652173134299        1.22510399408044        0.08024021297775
N            2.18871728804740        0.05526783080662       -0.01356318566159
C            2.57505560994711       -1.26582254386058        0.03934452576106
N            1.43807145401910       -2.03883350569846        0.00366970474447
C            0.35675073708564       -1.22413623575873       -0.02169406216248
C            0.79270238304035        0.08775806187633       -0.02039269564401
C           -0.02969105247718        1.23062891157677       -0.04974627420204
O            0.43861853167058        2.37712758896011       -0.09528197222334
N           -1.48571279645885        1.04873857149823       -0.03095985207173
C           -2.06822042767569        2.58643427938232        0.00155572066005
C           -1.94290329945379       -0.30621049293206       -0.04186772828285
O           -3.09496327224766       -0.66998870253065       -0.05300920255330
N           -0.98212719953746       -1.45523211170965       -0.04512125785947
C           -1.31311535886975       -2.89327623337964       -0.06566605302585
H            3.24374592986211        1.45613642075588        1.12869205244710
H            3.91469741757167        1.10184143450041       -0.49835995086988
H            2.39232082553457        2.04835948309433       -0.31453485522267
H            3.58448067699336       -1.61072050077435        0.01100727601089
H           -1.16400176385842        3.23578335229061        0.05201391761814
H           -2.60134156627711        2.98766088426901       -0.88271184211410
H           -2.66960671874084        2.92603404633965        0.86169087892015
H           -0.89938834922292       -3.40411706454220        0.81771457565142
H           -0.86282149151888       -3.38609928734373       -0.94194948366189
H           -2.38263228428788       -3.07501266177188       -0.08973056905135
H            1.48705730048407       -3.04839673038481       -0.00430596798989
25
 energy: 44.244336485760 xtb: 6.6.1 (8d0f1dd)
C            2.99386548747712        1.22143054819822        0.08067102297065
N            2.18242198483873        0.05590774508653       -0.01285505217852
C            2.57505725393147       -1.25125568430052        0.04470139321420
N            1.44877746635255       -2.04090954238977        0.00407591893235
C            0.35895845816788       -1.22979395231691       -0.01996030424184
C            0.78826773043647        0.08347132811161       -0.01834391054193
C           -0.04118118356403        1.22770185646237       -0.05501102285294
O            0.44137345927807        2.37206302519773       -0.11527027083083
N           -1.47633638736759        1.04972821276997       -0.02777494638444
C           -2.07021929814444        2.60878101360079        0.00641241135108
C           -1.94111297417257       -0.30939251392529       -0.03807880341158
O           -3.09225858207846       -0.66747414490703       -0.04685020321400
N           -0.97760958287489       -1.46839913775600       -0.04341677050074
C           -1.31594962078644       -2.90317905116749       -0.06741629352915
H            3.21373760292233        1.45645455582003        1.12796641229128
H            3.92080122779975        1.08181098718213       -0.47368238686824
H            2.40718351095543        2.04043010267465       -0.33639975407963
H            3.58611955024626       -1.59064214521128        0.00153742942527
H           -1.17876535462410        3.25592067236647        0.05935314803277
H           -2.59315090230777        2.99863753650573       -0.87688256206668
H           -2.67052219385971        2.93511069449857        0.86300916159244
H           -0.90523458235820       -3.41486043781491        0.81511045751326
H           -0.86702838754240       -3.39253219665850       -0.94442740256467
H           -2.38089507360803       -3.08229661501620       -0.09289739689186
H            1.50591469585508       -3.04768406826693       -0.00653636297163
25
 energy: 46.015157573683 xtb: 6.6.1 (8d0f1dd)
C            2.99552046738367        1.22272547054016        0.08199148912727
N            2.18022255839353        0.05992579715050       -0.01286302819821
C            2.58094098989265       -1.24974977683418        0.05083333079023
N            1.45227050480562       -2.04369589167368        0.00439502027874
C            0.36336808073556       -1.23203672766593       -0.01978596943649
C            0.78553572712305        0.08198779155331       -0.01854014779752
C           -0.04825058773241        1.22232077033211       -0.06082225973438
O            0.43763527900829        2.36910979464518       -0.12932068112874
N           -1.46986664080199        1.04439512417885       -0.02559928071482
C           -2.07424680655518        2.62403477585723        0.01067327152365
C           -1.93914595808437       -0.31325353509700       -0.03592353124698
O           -3.09390248235666       -0.66692891994605       -0.04207275155829
N           -0.97466023733662       -1.47690198966476       -0.04297146652898
C           -1.31666788830358       -2.90933040949944       -0.06888439020420
H            3.19862126466206        1.46948339367640        1.12947507498697
H            3.93098823125041        1.07048053621822       -0.45412216544820
H            2.41963736706993        2.03898616413850       -0.35524361266430
H            3.59105383544983       -1.58743499599845       -0.00657431786566
H           -1.17789260927627        3.26856048210116        0.06812106417301
H           -2.59608620191682        3.01194097317982       -0.87661245807200
H           -2.68126442883019        2.94309767875567        0.86690544437869
H           -0.90837950491859       -3.42533437539685        0.81275573725040
H           -0.86971401691237       -3.40068289141660       -0.94601144736146
H           -2.38331197945937       -3.08395179589710       -0.09508559212678
H            1.50980934168229       -3.04871865449311       -0.00768342022735
25
 energy: 48.652342366127 xtb: 6.6.1 (8d0f1dd)
C            2.99902851572065        1.22427253923744        0.08369697596731
N            2.18021966900475        0.06212714044551       -0.01135498057090
C            2.58867269362722       -1.25343618499932        0.06098735774636
N            1.45444927054728       -2.04703615708231        0.00559223318201
C            0.36922410587356       -1.23450917993025       -0.01952184549124
C            0.78610481334240        0.07905748371937       -0.01722591102120
C           -0.05444919805273        1.21686669916969       -0.06696515797206
O            0.43114699783245        2.36404410547916       -0.14131966761446
N           -1.46365259434737        1.03702824321884       -0.02270704889822
C           -2.08254975738011        2.64622185441763        0.01437654222013
C           -1.93521041116308       -0.31920714927704       -0.03336909142642
O           -3.09281166662590       -0.67074136807844       -0.03826515846318
N           -0.96950783392875       -1.48518633752902       -0.04267992925187
C           -1.31491877340015       -2.91536129584934       -0.07047584163052
H            3.18793681711349        1.48744258429369        1.12910817140859
H            3.94149869456256        1.06073336438349       -0.43393335822537
H            2.43547848103769        2.03806736158185       -0.37283407470438
H            3.59729036630346       -1.59043400751529       -0.02189915529502
H           -1.18386709844155        3.28889576608537        0.07665601972651
H           -2.60368525939701        3.02736796038750       -0.87800994915076
H           -2.69963591388439        2.95420479024165        0.86990968344139
H           -0.91150697556256       -3.43783529839529        0.81081734627317
H           -0.87232093959042       -3.41146877716422       -0.94814558109335
H           -2.38541878526763       -3.07995359669144       -0.09702531718184
H            1.51069908704866       -3.05213175140521       -0.00837834978009
25
 energy: 52.786097816991 xtb: 6.6.1 (8d0f1dd)
C            2.99905978381932        1.22492629190825        0.08446284846840
N            2.18035589944870        0.06140382074607       -0.00885619852248
C            2.59443822535147       -1.25768542315413        0.07353040974434
N            1.45707627120314       -2.05082829285706        0.00720937229741
C            0.37341113475032       -1.23931754359621       -0.01909062824120
C            0.78745390518486        0.07400077507297       -0.01439468460525
C           -0.06014002922117        1.21125412944774       -0.06985569030922
O            0.42324141578029        2.35697706933648       -0.14865898528249
N           -1.46304276054377        1.02925490793266       -0.02065158329915
C           -2.08965688212093        2.67605308654349        0.01646488715753
C           -1.93292199805809       -0.32847303141930       -0.03180925171587
O           -3.09016080279108       -0.68338498303841       -0.03703919590633
N           -0.96443380674162       -1.49398418093860       -0.04255634827627
C           -1.31030367922238       -2.92362208712841       -0.07136748318919
H            3.17549427687490        1.50212526456222        1.12819007764804
H            3.94752599359242        1.05440798564466       -0.41804713784527
H            2.44349218774418        2.03508745479446       -0.38763499128294
H            3.60180752037564       -1.59262583587736       -0.04143954814836
H           -1.18764640003303        3.31328404685058        0.08347495226628
H           -2.60879429280910        3.05392546908468       -0.87943280024789
H           -2.71341193151149        2.97701327551227        0.87068616247089
H           -0.91045619558474       -3.45021105846968        0.81000240268444
H           -0.87085806437250       -3.42312207866048       -0.94955255344757
H           -2.38355098078663       -3.08065703396673       -0.09798388333281
H            1.51423551464383       -3.05677323958622       -0.00861623689041
25
 energy: 65.220519973752 xtb: 6.6.1 (8d0f1dd)
C            2.99656338753843        1.22555951297498        0.08624790432343
N            2.18118449914049        0.05700976391929        0.00191224637065
C            2.61092555786259       -1.26920129922756        0.11875581557269
N            1.46769850261646       -2.06287849820070        0.01146649106151
C            0.38521271042600       -1.25658554896875       -0.01763160263222
C            0.79216971888507        0.05675552519750       -0.00261559601024
C           -0.07730193366042        1.19233863598661       -0.07296763993443
O            0.39481864791109        2.33407962944341       -0.16376294718734
N           -1.46546647907521        0.99983628889655       -0.01706314721509
C           -2.11109068548280        2.78012034999273        0.01959637061237
C           -1.92725882247519       -0.36418466942287       -0.02843522681434
O           -3.08066960933753       -0.73337243469922       -0.03694004334678
N           -0.94818321888478       -1.52346933524090       -0.04243182973545
C           -1.29494493897533       -2.95193700102138       -0.07326019709581
H            3.14443286235461        1.53600423207573        1.12165289533999
H            3.95654633207139        1.04123097576695       -0.38040609787335
H            2.46005758913036        2.02392639810784       -0.42152782373510
H            3.61269513364923       -1.59515406618471       -0.10660721148106
H           -1.19768352262921        3.39608158815687        0.09760760744163
H           -2.62429053340743        3.14586420990451       -0.88466631483295
H           -2.74998813958696        3.06284709182733        0.87120293339806
H           -0.90409782108263       -3.48723035607060        0.80878072892963
H           -0.86402865831385       -3.45948772253494       -0.95285418694553
H           -2.37508265536358       -3.08827892685070       -0.09949372222696
H            1.52999638166174       -3.07084555508397       -0.00952549378869
25
 energy: 74.401173975845 xtb: 6.6.1 (8d0f1dd)
C            2.99464208876393        1.22712514935525        0.08892438389644
N            2.18088163077520        0.05074726875095        0.01605388888712
C            2.63840331618152       -1.27962340789016        0.18394816082394
N            1.48932849453332       -2.08213579841340        0.01141045548139
C            0.40510902362825       -1.28498310336696       -0.01953152199217
C            0.80066462380274        0.02527330421607        0.01398722092876
C           -0.11473554101098        1.15535279298692       -0.08080584107357
O            0.34396698955745        2.28682570675964       -0.18661203431978
N           -1.45402403592306        0.93096284618807       -0.01770415581637
C           -2.14888244565289        2.97428536124514        0.02547595579979
C           -1.91199813354965       -0.43023306668438       -0.02451552192444
O           -3.06059799621259       -0.80708785166010       -0.03662949486825
N           -0.91630835154059       -1.58158965837684       -0.04302387622977
C           -1.27303311571342       -3.00116888347966       -0.07554044775235
H            3.09877787424468        1.58132431899255        1.10535707228571
H            3.96642098872088        1.02489728768691       -0.32376701030668
H            2.48911603686768        2.00613716201746       -0.46662418727723
H            3.62504841564067       -1.58935393055806       -0.18849859578722
H           -1.21428583201694        3.54706827151056        0.11896344385035
H           -2.65607208605055        3.28994353181493       -0.89228034293671
H           -2.80771242942545        3.19632061409732        0.87809999036448
H           -0.89780040866633       -3.54571186415637        0.80988885985911
H           -0.85810990250807       -3.51800103529383       -0.95902711336034
H           -2.36554435293163       -3.09618228479880       -0.10068257726796
H            1.55895945345839       -3.09116394219927       -0.00983279906959
25
 energy: 75.732155361726 xtb: 6.6.1 (8d0f1dd)
C            2.98917815444854        1.22410755717120        0.09036683076977
N            2.18006875135718        0.03791261607872        0.02058956272360
C            2.65839695802828       -1.28394896134161        0.18543185157256
N            1.51733814026195       -2.09881626185078        0.00610194574147
C            0.42203802964682       -1.31417121421097       -0.02395540052497
C            0.80974077888917       -0.00425164597941        0.02097229389339
C           -0.15282106482882        1.11894116753007       -0.08004558499220
O            0.29806718011996        2.24445012805583       -0.19617850501304
N           -1.45049589759689        0.85796870344659       -0.01811985966419
C           -2.17882372038924        3.15696664769544        0.03003845903382
C           -1.89821787801616       -0.49057265488619       -0.02525429332206
O           -3.04124632814070       -0.87528976668160       -0.03679112484649
N           -0.88731276302875       -1.63672962125412       -0.04388552414343
C           -1.25211694584130       -3.04746716355815       -0.07543056969547
H            3.06097773899725        1.60794486148910        1.09555449997994
H            3.97074375712384        1.01700888085613       -0.28768629908226
H            2.49588470035450        1.98728902461048       -0.49596339370972
H            3.62468238673798       -1.57696555848540       -0.20632037139989
H           -1.22787349897758        3.68715438383438        0.13097650380503
H           -2.68478088627500        3.43161953427481       -0.89613040607059
H           -2.84682764519065        3.32959002799413        0.88481932814215
H           -0.88856567960340       -3.59572420091582        0.81250718455007
H           -0.85024410140445       -3.56804482536221       -0.96219812820011
H           -2.35121146929763       -3.11160122848604       -0.09944558888039
H            1.59563560759770       -3.10834164128058       -0.00291949847239
25