      -----------------------------------------------------------      
     |                   =====================                   |     
     |                           x T B                           |     
     |                   =====================                   |     
     |                         S. Grimme                         |     
     |          Mulliken Center for Theoretical Chemistry        |     
     |                    University of Bonn                     |     
      -----------------------------------------------------------      

   * xtb version 6.6.1 (8d0f1dd) compiled by 'conda@1efc2f54142f' on 2023-08-01

   xtb is free software: you can redistribute it and/or modify it under
   the terms of the GNU Lesser General Public License as published by
   the Free Software Foundation, either version 3 of the License, or
   (at your option) any later version.
   
   xtb is distributed in the hope that it will be useful,
   but WITHOUT ANY WARRANTY; without even the implied warranty of
   MERCHANTABILITY or FITNESS FOR A PARTICULAR PURPOSE.  See the
   GNU Lesser General Public License for more details.
   
   Cite this work as:
   * C. Bannwarth, E. Caldeweyher, S. Ehlert, A. Hansen, P. Pracht,
     J. Seibert, S. Spicher, S. Grimme, WIREs Comput. Mol. Sci., 2020, 11,
     e01493. DOI: 10.1002/wcms.1493
   
   for GFN2-xTB:
   * C. Bannwarth, S. Ehlert and S. Grimme., J. Chem. Theory Comput., 2019,
     15, 1652-1671. DOI: 10.1021/acs.jctc.8b01176
   for GFN1-xTB:
   * S. Grimme, C. Bannwarth, P. Shushkov, J. Chem. Theory Comput., 2017,
     13, 1989-2009. DOI: 10.1021/acs.jctc.7b00118
   for GFN0-xTB:
   * P. Pracht, E. Caldeweyher, S. Ehlert, S. Grimme, ChemRxiv, 2019, preprint.
     DOI: 10.26434/chemrxiv.8326202.v1
   for GFN-FF:
   * S. Spicher and S. Grimme, Angew. Chem. Int. Ed., 2020, 59, 15665-15673.
     DOI: 10.1002/anie.202004239
   
   for ALPB and GBSA implicit solvation:
   * S. Ehlert, M. Stahn, S. Spicher, S. Grimme, J. Chem. Theory Comput.,
     2021, 17, 4250-4261. DOI: 10.1021/acs.jctc.1c00471
   
   for DFT-D4:
   * E. Caldeweyher, C. Bannwarth and S. Grimme, J. Chem. Phys., 2017,
     147, 034112. DOI: 10.1063/1.4993215
   * E. Caldeweyher, S. Ehlert, A. Hansen, H. Neugebauer, S. Spicher,
     C. Bannwarth and S. Grimme, J. Chem. Phys., 2019, 150, 154122.
     DOI: 10.1063/1.5090222
   * E. Caldeweyher, J.-M. Mewes, S. Ehlert and S. Grimme, Phys. Chem. Chem. Phys.
     2020, 22, 8499-8512. DOI: 10.1039/D0CP00502A
   
   for sTDA-xTB:
   * S. Grimme and C. Bannwarth, J. Chem. Phys., 2016, 145, 054103.
     DOI: 10.1063/1.4959605
   
   in the mass-spec context:
   * V. Asgeirsson, C. Bauer and S. Grimme, Chem. Sci., 2017, 8, 4879.
     DOI: 10.1039/c7sc00601b
   * J. Koopman and S. Grimme, ACS Omega 2019, 4, 12, 15120-15133.
     DOI: 10.1021/acsomega.9b02011
   
   for metadynamics refer to:
   * S. Grimme, J. Chem. Theory Comput., 2019, 155, 2847-2862
     DOI: 10.1021/acs.jctc.9b00143
   
   for SPH calculations refer to:
   * S. Spicher and S. Grimme, J. Chem. Theory Comput., 2021, 17, 1701-1714
     DOI: 10.1021/acs.jctc.0c01306
   
   with help from (in alphabetical order)
   P. Atkinson, C. Bannwarth, F. Bohle, G. Brandenburg, E. Caldeweyher
   M. Checinski, S. Dohm, S. Ehlert, S. Ehrlich, I. Gerasimov, C. Hölzer
   A. Katbashev, J. Koopman, C. Lavigne, S. Lehtola, F. März, M. Müller,
   F. Musil, H. Neugebauer, J. Pisarek, C. Plett, P. Pracht, F. Pultar,
   J. Seibert, P. Shushkov, S. Spicher, M. Stahn, M. Steiner, T. Strunk,
   J. Stückrath, T. Rose, and J. Unsleber
   
 * started run on 2024/06/05 at 19:57:51.204     

           -------------------------------------------------
          |                Calculation Setup                |
           -------------------------------------------------

          program call               : xtb xtbopt.xyz --opt crude --input .xc2 --gfn2
          hostname                   : n-62-30-26
          coordinate file            : xtbopt.xyz
          omp threads                :                     1

   ID    Z sym.   atoms
    1    6 C      1, 3, 5-7, 10, 11, 14
    2    7 N      2, 4, 9, 13
    3    8 O      8, 12
    4    1 H      15-25
########################################################################
[WARNING] Please study the warnings concerning your input carefully
-1- readin_getIntValue: could not parse ''
########################################################################

           -------------------------------------------------
          |                 G F N 2 - x T B                 |
           -------------------------------------------------

        Reference                      10.1021/acs.jctc.8b01176
      * Hamiltonian:
        H0-scaling (s, p, d)           1.850000    2.230000    2.230000
        zeta-weighting                 0.500000
      * Dispersion:
        s8                             2.700000
        a1                             0.520000
        a2                             5.000000
        s9                             5.000000
      * Repulsion:
        kExp                           1.500000    1.000000
        rExp                           1.000000
      * Coulomb:
        alpha                          2.000000
        third order                    shell-resolved
        anisotropic                    true
        a3                             3.000000
        a5                             4.000000
        cn-shift                       1.200000
        cn-exp                         4.000000
        max-rad                        5.000000

q/qsh data taken from xtbrestart
CAMM data taken from xtbrestart

          ...................................................
          :                      SETUP                      :
          :.................................................:
          :  # basis functions                  67          :
          :  # atomic orbitals                  67          :
          :  # shells                           39          :
          :  # electrons                        74          :
          :  max. iterations                   250          :
          :  Hamiltonian                  GFN2-xTB          :
          :  restarted?                       true          :
          :  GBSA solvation                  false          :
          :  PC potential                    false          :
          :  electronic temp.         5000.0000000     K    :
          :  accuracy                    1.0000000          :
          :  -> integral cutoff          0.2500000E+02      :
          :  -> integral neglect         0.1000000E-07      :
          :  -> SCF convergence          0.1000000E-05 Eh   :
          :  -> wf. convergence          0.1000000E-03 e    :
          :  Broyden damping             0.4000000          :
          ...................................................

 iter      E             dE          RMSdq      gap      omega  full diag
   1    -42.6387613 -0.426388E+02  0.199E-05    1.73       0.0  T
   2    -42.6387613  0.623857E-11  0.230E-05    1.73     868.8  T
   3    -42.6387613 -0.145448E-10  0.547E-06    1.73    3656.5  T

   *** convergence criteria satisfied after 3 iterations ***

         #    Occupation            Energy/Eh            Energy/eV
      -------------------------------------------------------------
         1        2.0000           -0.9433470             -25.6698
       ...           ...                  ...                  ...
        31        1.9975           -0.6162348             -16.7686
        32        1.9961           -0.6088764             -16.5684
        33        1.9876           -0.5904810             -16.0678
        34        1.9870           -0.5897315             -16.0474
        35        1.9316           -0.5630258             -15.3207
        36        1.9110           -0.5587022             -15.2031
        37        1.8423           -0.5490522             -14.9405 (HOMO)
        38        0.3461           -0.4853675             -13.2075 (LUMO)
        39        0.0033           -0.4088949             -11.1266
        40        0.0005           -0.3795775             -10.3288
        41        0.0000           -0.2990432              -8.1374
        42        0.0000           -0.2799472              -7.6178
       ...           ...                  ...                  ...
        67                          0.5377314              14.6324
      -------------------------------------------------------------
                  HL-Gap            0.0636847 Eh            1.7329 eV
             Fermi-level           -0.5101339 Eh          -13.8815 eV

 SCC (total)                   0 d,  0 h,  0 min,  0.023 sec
 SCC setup                      ...        0 min,  0.000 sec (  0.965%)
 Dispersion                     ...        0 min,  0.000 sec (  1.130%)
 classical contributions        ...        0 min,  0.000 sec (  0.299%)
 integral evaluation            ...        0 min,  0.005 sec ( 20.565%)
 iterations                     ...        0 min,  0.006 sec ( 24.804%)
 molecular gradient             ...        0 min,  0.012 sec ( 51.496%)
 printout                       ...        0 min,  0.000 sec (  0.691%)

         :::::::::::::::::::::::::::::::::::::::::::::::::::::
         ::                     SUMMARY                     ::
         :::::::::::::::::::::::::::::::::::::::::::::::::::::
         :: total energy             -42.126856377766 Eh    ::
         :: gradient norm              0.011407181900 Eh/a0 ::
         :: HOMO-LUMO gap              1.732949573331 eV    ::
         ::.................................................::
         :: SCC energy               -42.638761301661 Eh    ::
         :: -> isotropic ES            0.120751495023 Eh    ::
         :: -> anisotropic ES         -0.003657565582 Eh    ::
         :: -> anisotropic XC          0.022496225234 Eh    ::
         :: -> dispersion             -0.022550742842 Eh    ::
         :: repulsion energy           0.511762810214 Eh    ::
         :: add. restraining           0.000000000000 Eh    ::
         :: total charge               1.000000000260 e     ::
         :::::::::::::::::::::::::::::::::::::::::::::::::::::

      ----------------------------------------------------------- 
     |                   =====================                   |
     |                        A N C O P T                        |
     |                   =====================                   |
     |               Approximate Normal Coordinate               |
     |                Rational Function Optimizer                |
      ----------------------------------------------------------- 

          ...................................................
          :                      SETUP                      :
          :.................................................:
          :   optimization level             crude          :
          :   max. optcycles                   200          :
          :   ANC micro-cycles                  20          :
          :   degrees of freedom                69          :
          :.................................................:
          :   RF solver                   davidson          :
          :   write xtbopt.log                true          :
          :   linear?                        false          :
          :   energy convergence         0.5000000E-03 Eh   :
          :   grad. convergence          0.1000000E-01 Eh/α :
          :   maxmium RF displ.          1.0000000          :
          :   Hlow (freq-cutoff)         0.1000000E-01      :
          :   Hmax (freq-cutoff)         5.0000000          :
          :   S6 in model hess.         20.0000000          :
          ...................................................

generating ANC from model Hessian ...
Using Lindh-Hessian (1995)
 Shifting diagonal of input Hessian by    7.3362695255313887E-003
 Lowest  eigenvalues of input Hessian
    0.000000    0.000000    0.000000    0.000000    0.000000    0.000000
    0.010000    0.012215    0.012712    0.015546    0.018159    0.018973
    0.019495    0.022586    0.029742    0.033406    0.037319    0.044523
 Highest eigenvalues
    1.922206    1.982175    2.062126    2.160274    2.298074    2.535071


........................................................................
.............................. CYCLE    1 ..............................
........................................................................

 iter      E             dE          RMSdq      gap      omega  full diag
   1    -42.6387613 -0.426388E+02  0.307E-06    1.73       0.0  T
   2    -42.6387613  0.639488E-13  0.228E-06    1.73    8773.7  T
   3    -42.6387613 -0.852651E-13  0.154E-06    1.73   13005.1  T
     SCC iter.                  ...        0 min,  0.018 sec
     gradient                   ...        0 min,  0.017 sec
 * total energy  :   -42.1268564 Eh     change       -0.1278977E-12 Eh
   gradient norm :     0.0114072 Eh/α   predicted     0.0000000E+00 (-100.00%)
   displ. norm   :     0.1843768 α      lambda       -0.1011416E-02
   maximum displ.:     0.1041478 α      in ANC's #4, #10, #2, ...

........................................................................
.............................. CYCLE    2 ..............................
........................................................................

 iter      E             dE          RMSdq      gap      omega  full diag
   1    -42.6363450 -0.426363E+02  0.827E-02    1.75       0.0  T
   2    -42.6363490 -0.396228E-05  0.501E-02    1.74       1.0  T
   3    -42.6363139  0.351171E-04  0.358E-02    1.77       1.0  T
   4    -42.6363526 -0.387381E-04  0.812E-03    1.74       2.5  T
   5    -42.6363539 -0.131303E-05  0.292E-03    1.74       6.9  T
   6    -42.6363539 -0.241100E-07  0.140E-03    1.74      14.3  T
   7    -42.6363540 -0.295138E-07  0.637E-04    1.74      31.4  T
   8    -42.6363540 -0.733437E-08  0.258E-04    1.74      77.5  T
     SCC iter.                  ...        0 min,  0.025 sec
     gradient                   ...        0 min,  0.021 sec
 * total energy  :   -42.1276189 Eh     change       -0.7625073E-03 Eh
   gradient norm :     0.0055192 Eh/α   predicted    -0.5229009E-03 ( -31.42%)
   displ. norm   :     0.2757014 α      lambda       -0.7320393E-03
   maximum displ.:     0.1658200 α      in ANC's #4, #2, #10, ...

........................................................................
.............................. CYCLE    3 ..............................
........................................................................

 iter      E             dE          RMSdq      gap      omega  full diag
   1    -42.6340072 -0.426340E+02  0.118E-01    1.77       0.0  T
   2    -42.6340127 -0.545894E-05  0.696E-02    1.75       1.0  T
   3    -42.6339246  0.880771E-04  0.570E-02    1.79       1.0  T
   4    -42.6340239 -0.992926E-04  0.858E-03    1.76       2.3  T
   5    -42.6340250 -0.115328E-05  0.374E-03    1.76       5.3  T
   6    -42.6340250 -0.137234E-07  0.183E-03    1.76      11.0  T
   7    -42.6340251 -0.634392E-07  0.673E-04    1.76      29.7  T
   8    -42.6340251 -0.775501E-08  0.309E-04    1.76      64.8  T
     SCC iter.                  ...        0 min,  0.024 sec
     gradient                   ...        0 min,  0.024 sec
 * total energy  :   -42.1280586 Eh     change       -0.4396909E-03 Eh
   gradient norm :     0.0060578 Eh/α   predicted    -0.3938799E-03 ( -10.42%)
   displ. norm   :     0.1341907 α      lambda       -0.1650360E-03
   maximum displ.:     0.0748562 α      in ANC's #2, #4, #3, ...

   *** GEOMETRY OPTIMIZATION CONVERGED AFTER 3 ITERATIONS ***

------------------------------------------------------------------------
 total energy gain   :        -0.0012022 Eh       -0.7544 kcal/mol
 total RMSD          :         0.0912067 a0        0.0483 Å
 total power (kW/mol):        -1.0521236 (step)  -19.2728 (real)
------------------------------------------------------------------------

 ANCopt (total)                0 d,  0 h,  0 min,  0.164 sec
 optimizer setup                ...        0 min,  0.000 sec (  0.291%)
 model hessian                  ...        0 min,  0.005 sec (  3.150%)
 ANC generation                 ...        0 min,  0.001 sec (  0.495%)
 coordinate transformation      ...        0 min,  0.000 sec (  0.019%)
 single point calculation       ...        0 min,  0.154 sec ( 94.297%)
 optimization log               ...        0 min,  0.002 sec (  1.337%)
 hessian update                 ...        0 min,  0.000 sec (  0.020%)
 rational function              ...        0 min,  0.000 sec (  0.152%)

================
 final structure:
================
25
 xtb: 6.6.1 (8d0f1dd)
C            3.06556118970635        1.02674607136295        0.19509468419757
N            2.29023230397480        1.93426371916714       -0.62568339486953
C            2.39632867621109       -0.30585055871582        0.17418153341406
N            0.75404655074014       -2.79741307925489       -0.28832155029288
C            0.28205963907558       -1.63497154794866       -0.10114498723173
C            1.05029512133185       -0.37550991336412       -0.03147933728476
C            0.30968946468735        0.84690147584871       -0.11016121294577
O            0.92620951994453        2.01431076405828       -0.22756480857130
N           -1.01283067485306        0.85341733322494        0.01283188020947
C           -1.78655377870871        2.08086053862043        0.02233347172717
C           -1.77750012621214       -0.34534086643512        0.14272208139174
O           -2.96164741928296       -0.26776048501104        0.30433412796266
N           -1.08334945792101       -1.51972831901413        0.04228319876496
C           -1.84501381701627       -2.75730317728963        0.03773172443012
H            3.19218716606943        1.36776186245709        1.23938571322923
H            4.05849045449315        0.96752882230791       -0.25735058171767
H            2.62788231079477        2.89420331293962       -0.64271801668269
H            2.98435951746436       -1.18507761214173        0.37676561567131
H           -1.12319137378979        2.93597980974934       -0.05547321307328
H           -2.48972963174734        2.07039507522279       -0.81115060559507
H           -2.36632503929334        2.13205188225853        0.94460834584454
H           -1.54696790221317       -3.37403350901011        0.88480774956602
H           -1.62747177830261       -3.30741102047507       -0.87749322067624
H           -2.90394569637920       -2.51964733158320        0.09903009617814
H            1.74761629532717       -2.91613470537575       -0.41639767574753

 Bond Distances (Angstroems)
 ---------------------------
C1-N2=1.4486         C1-C3=1.4913         C1-H15=1.1058        C1-H16=1.0928        N2-C1=1.4486         N2-O8=1.4232         
N2-H17=1.0177        C3-C1=1.4913         C3-C6=1.3634         C3-H18=1.0770        N4-C5=1.2685         N4-H25=1.0088        
C5-N4=1.2685         C5-C6=1.4769         C5-N13=1.3777        C6-C3=1.3634         C6-C5=1.4769         C6-C7=1.4314         
C7-C6=1.4314         C7-O8=1.3254         C7-N9=1.3282         O8-N2=1.4232         O8-C7=1.3254         N9-C7=1.3282         
N9-C10=1.4510        N9-C11=1.4278        C10-N9=1.4510        C10-H19=1.0850       C10-H20=1.0905       C10-H21=1.0906       
C11-N9=1.4278        C11-O12=1.1976       C11-N13=1.3679       O12-C11=1.1976       N13-C5=1.3777        N13-C11=1.3679       
N13-C14=1.4532       C14-N13=1.4532       C14-H22=1.0894       C14-H23=1.0898       C14-H24=1.0870       H15-C1=1.1058        
H16-C1=1.0928        H17-N2=1.0177        H18-C3=1.0770        H19-C10=1.0850       H20-C10=1.0905       H21-C10=1.0906       
H22-C14=1.0894       H23-C14=1.0898       H24-C14=1.0870       H25-N4=1.0088        
 C  H  Rav=1.0898 sigma=0.0072  Rmin=1.0770  Rmax=1.1058     9
 C  C  Rav=1.4408 sigma=0.0498  Rmin=1.3634  Rmax=1.4913     4
 N  H  Rav=1.0133 sigma=0.0045  Rmin=1.0088  Rmax=1.0177     2
 N  C  Rav=1.3904 sigma=0.0630  Rmin=1.2685  Rmax=1.4532     8
 O  C  Rav=1.2615 sigma=0.0639  Rmin=1.1976  Rmax=1.3254     2
 O  N  Rav=1.4232 sigma=0.0000  Rmin=1.4232  Rmax=1.4232     1

 selected bond angles (degree)
 --------------------
C3-C1-N2=108.16                H15-C1-N2=113.78               H15-C1-C3=109.89               H16-C1-N2=106.60               
H16-C1-C3=110.70               H16-C1-H15=107.68              O8-N2-C1=112.94                H17-N2-C1=115.01               
H17-N2-O8=105.64               C6-C3-C1=119.39                H18-C3-C1=118.81               H18-C3-C6=121.72               
H25-N4-C5=119.54               C6-C5-N4=126.50                N13-C5-N4=117.44               N13-C5-C6=116.06               
C5-C6-C3=124.35                C7-C6-C3=118.39                C7-C6-C5=117.16                O8-C7-C6=121.09                
N9-C7-C6=120.95                N9-C7-O8=117.84                C7-O8-N2=114.90                C10-N9-C7=122.39               
C11-N9-C7=122.52               C11-N9-C10=115.09              H19-C10-N9=109.89              H20-C10-N9=109.31              
H20-C10-H19=110.30             H21-C10-N9=109.19              H21-C10-H19=110.41             H21-C10-H20=107.70             

 selected dihedral angles (degree)
 ---------------------------------
O8-N2-C1-C3= 55.36            O8-N2-C1-H15=292.97           O8-N2-C1-H16=174.44           H17-N2-C1-C3=176.73           
H17-N2-C1-H15= 54.34          H17-N2-C1-H16=295.81          C6-C3-C1-N2=332.57            C6-C3-C1-H15= 97.31           
C6-C3-C1-H16=216.12           H18-C3-C1-N2=155.91           H18-C3-C1-H15=280.65          H18-C3-C1-H16= 39.46          
C6-C5-N4-H25=359.32           N13-C5-N4-H25=178.75          C5-C6-C3-C1=178.67            C5-C6-C3-H18=355.23           
C7-C6-C3-C1=354.90            C7-C6-C3-H18=171.46           C3-C6-C5-N4=342.78            C3-C6-C5-N13=163.34           
C7-C6-C5-N4=166.50            C7-C6-C5-N13=347.07           O8-C7-C6-C3= 12.20            O8-C7-C6-C5=188.70            
N9-C7-C6-C3=196.28            N9-C7-C6-C5= 12.78            C7-O8-N2-C1=308.25            C7-O8-N2-H17=181.72           
N2-O8-C7-C6= 16.19            N2-O8-C7-N9=192.23            C10-N9-C7-C6=176.04           C10-N9-C7-O8=  0.00           
C11-N9-C7-C6=355.91           C11-N9-C7-O8=179.86           H19-C10-N9-C7=358.45          H19-C10-N9-C11=178.57         
H20-C10-N9-C7=119.63          H20-C10-N9-C11=299.75         H21-C10-N9-C7=237.22          H21-C10-N9-C11= 57.33         
           -------------------------------------------------
          |                Final Singlepoint                |
           -------------------------------------------------

          ...................................................
          :                      SETUP                      :
          :.................................................:
          :  # basis functions                  67          :
          :  # atomic orbitals                  67          :
          :  # shells                           39          :
          :  # electrons                        74          :
          :  max. iterations                   250          :
          :  Hamiltonian                  GFN2-xTB          :
          :  restarted?                      false          :
          :  GBSA solvation                  false          :
          :  PC potential                    false          :
          :  electronic temp.         5000.0000000     K    :
          :  accuracy                    1.0000000          :
          :  -> integral cutoff          0.2500000E+02      :
          :  -> integral neglect         0.1000000E-07      :
          :  -> SCF convergence          0.1000000E-05 Eh   :
          :  -> wf. convergence          0.1000000E-03 e    :
          :  Broyden damping             0.4000000          :
          ...................................................

 iter      E             dE          RMSdq      gap      omega  full diag
   1    -42.6340251 -0.426340E+02  0.110E-04    1.76       0.0  T
   2    -42.6340251 -0.736335E-10  0.707E-05    1.76     282.7  T
   3    -42.6340251 -0.463700E-10  0.509E-05    1.76     392.7  T

   *** convergence criteria satisfied after 3 iterations ***

         #    Occupation            Energy/Eh            Energy/eV
      -------------------------------------------------------------
         1        2.0000           -0.9423545             -25.6428
       ...           ...                  ...                  ...
        31        1.9975           -0.6158777             -16.7589
        32        1.9961           -0.6083893             -16.5551
        33        1.9878           -0.5903962             -16.0655
        34        1.9868           -0.5891879             -16.0326
        35        1.9301           -0.5623181             -15.3015
        36        1.9075           -0.5576958             -15.1757
        37        1.8495           -0.5495021             -14.9527 (HOMO)
        38        0.3438           -0.4848875             -13.1945 (LUMO)
        39        0.0035           -0.4093720             -11.1396
        40        0.0005           -0.3792224             -10.3192
        41        0.0000           -0.2992908              -8.1441
        42        0.0000           -0.2828340              -7.6963
       ...           ...                  ...                  ...
        67                          0.5340332              14.5318
      -------------------------------------------------------------
                  HL-Gap            0.0646146 Eh            1.7583 eV
             Fermi-level           -0.5097825 Eh          -13.8719 eV

 SCC (total)                   0 d,  0 h,  0 min,  0.034 sec
 SCC setup                      ...        0 min,  0.000 sec (  0.466%)
 Dispersion                     ...        0 min,  0.000 sec (  0.431%)
 classical contributions        ...        0 min,  0.000 sec (  0.165%)
 integral evaluation            ...        0 min,  0.004 sec ( 10.895%)
 iterations                     ...        0 min,  0.005 sec ( 13.856%)
 molecular gradient             ...        0 min,  0.025 sec ( 73.724%)
 printout                       ...        0 min,  0.000 sec (  0.431%)

         :::::::::::::::::::::::::::::::::::::::::::::::::::::
         ::                     SUMMARY                     ::
         :::::::::::::::::::::::::::::::::::::::::::::::::::::
         :: total energy             -42.128058576326 Eh    ::
         :: gradient norm              0.006056821754 Eh/a0 ::
         :: HOMO-LUMO gap              1.758252741809 eV    ::
         ::.................................................::
         :: SCC energy               -42.634025115041 Eh    ::
         :: -> isotropic ES            0.120585838734 Eh    ::
         :: -> anisotropic ES         -0.003770475617 Eh    ::
         :: -> anisotropic XC          0.022410500427 Eh    ::
         :: -> dispersion             -0.022477552348 Eh    ::
         :: repulsion energy           0.505827206723 Eh    ::
         :: add. restraining           0.000000000000 Eh    ::
         :: total charge               1.000000000422 e     ::
         :::::::::::::::::::::::::::::::::::::::::::::::::::::

           -------------------------------------------------
          |                Property Printout                |
           -------------------------------------------------

    * Orbital Energies and Occupations

         #    Occupation            Energy/Eh            Energy/eV
      -------------------------------------------------------------
         1        2.0000           -0.9423545             -25.6428
       ...           ...                  ...                  ...
        25        1.9999           -0.6703193             -18.2403
        26        1.9999           -0.6640747             -18.0704
        27        1.9997           -0.6491388             -17.6640
        28        1.9994           -0.6383189             -17.3695
        29        1.9992           -0.6332672             -17.2321
        30        1.9991           -0.6309759             -17.1697
        31        1.9975           -0.6158777             -16.7589
        32        1.9961           -0.6083893             -16.5551
        33        1.9878           -0.5903962             -16.0655
        34        1.9868           -0.5891879             -16.0326
        35        1.9301           -0.5623181             -15.3015
        36        1.9075           -0.5576958             -15.1757
        37        1.8495           -0.5495021             -14.9527 (HOMO)
        38        0.3438           -0.4848875             -13.1945 (LUMO)
        39        0.0035           -0.4093720             -11.1396
        40        0.0005           -0.3792224             -10.3192
        41        0.0000           -0.2992908              -8.1441
        42        0.0000           -0.2828340              -7.6963
        43                         -0.1912115              -5.2031
        44                         -0.1480378              -4.0283
        45                         -0.1304211              -3.5489
        46                         -0.1026762              -2.7940
        47                         -0.0849452              -2.3115
        48                         -0.0565689              -1.5393
       ...                                ...                  ...
        67                          0.5340332              14.5318
      -------------------------------------------------------------
                  HL-Gap            0.0646146 Eh            1.7583 eV
             Fermi-level           -0.5097825 Eh          -13.8719 eV

     #   Z          covCN         q      C6AA      α(0)
     1   6 C        3.739    -0.005    20.744     6.499
     2   7 N        2.704    -0.078    22.759     7.085
     3   6 C        2.912    -0.007    28.196     8.707
     4   7 N        1.792    -0.269    27.809     7.811
     5   6 C        2.831     0.162    24.502     8.111
     6   6 C        2.958    -0.035    28.873     8.813
     7   6 C        2.809     0.224    23.283     7.905
     8   8 O        1.766    -0.138    16.369     5.463
     9   7 N        2.739    -0.031    21.851     6.943
    10   6 C        3.703    -0.072    22.046     6.713
    11   6 C        2.721     0.317    21.614     7.611
    12   8 O        0.859    -0.337    20.457     6.064
    13   7 N        2.755    -0.038    21.972     6.962
    14   6 C        3.710    -0.076    22.100     6.719
    15   1 H        0.922     0.089     1.891     2.151
    16   1 H        0.924     0.118     1.631     1.997
    17   1 H        0.860     0.211     1.050     1.605
    18   1 H        0.926     0.098     1.805     2.101
    19   1 H        0.925     0.104     1.752     2.070
    20   1 H        0.924     0.117     1.637     2.001
    21   1 H        0.924     0.119     1.622     1.992
    22   1 H        0.925     0.108     1.712     2.046
    23   1 H        0.925     0.112     1.679     2.027
    24   1 H        0.925     0.117     1.634     1.999
    25   1 H        0.860     0.190     1.159     1.687

 Mol. C6AA /au·bohr⁶  :       6515.727335
 Mol. C8AA /au·bohr⁸  :     149845.298657
 Mol. α(0) /au        :        123.082203


Wiberg/Mayer (AO) data.
largest (>0.10) Wiberg bond orders for each atom

 ---------------------------------------------------------------------------
     #   Z sym  total        # sym  WBO       # sym  WBO       # sym  WBO
 ---------------------------------------------------------------------------
     1   6 C    3.953 --     3 C    1.044     2 N    1.007    16 H    0.935
                            15 H    0.922
     2   7 N    2.994 --     1 C    1.007     8 O    0.948    17 H    0.932
     3   6 C    3.741 --     6 C    1.587     1 C    1.044    18 H    0.957
     4   7 N    2.907 --     5 C    1.722    25 H    0.929
     5   6 C    3.951 --     4 N    1.722    13 N    1.128     6 C    1.018
     6   6 C    3.922 --     3 C    1.587     7 C    1.143     5 C    1.018
     7   6 C    3.801 --     9 N    1.323     8 O    1.173     6 C    1.143
     8   8 O    2.319 --     7 C    1.173     2 N    0.948
     9   7 N    3.576 --     7 C    1.323    11 C    0.989    10 C    0.972
    10   6 C    3.911 --    19 H    0.972     9 N    0.972    21 H    0.956
                            20 H    0.955
    11   6 C    3.941 --    12 O    1.714    13 N    1.154     9 N    0.989
    12   8 O    2.040 --    11 C    1.714    13 N    0.140
    13   7 N    3.554 --    11 C    1.154     5 C    1.128    14 C    0.969
                            12 O    0.140
    14   6 C    3.895 --    13 N    0.969    24 H    0.967    22 H    0.957
                            23 H    0.955
    15   1 H    0.967 --     1 C    0.922
    16   1 H    0.978 --     1 C    0.935
    17   1 H    0.953 --     2 N    0.932
    18   1 H    0.988 --     3 C    0.957
    19   1 H    0.988 --    10 C    0.972
    20   1 H    0.977 --    10 C    0.955
    21   1 H    0.978 --    10 C    0.956
    22   1 H    0.976 --    14 C    0.957
    23   1 H    0.975 --    14 C    0.955
    24   1 H    0.983 --    14 C    0.967
    25   1 H    0.956 --     4 N    0.929
 ---------------------------------------------------------------------------

Topologies differ in total number of bonds
Writing topology from bond orders to xtbtopo.mol

molecular dipole:
                 x           y           z       tot (Debye)
 q only:        1.653       0.523      -0.049
   full:        2.234       1.008       0.167       6.245
molecular quadrupole (traceless):
                xx          xy          yy          xz          yz          zz
 q only:        8.817       7.249       9.049       1.146      -0.657     -17.865
  q+dip:        8.697       6.964       6.784       3.294       0.472     -15.481
   full:        7.820       7.173       6.157       3.245       0.201     -13.977

           -------------------------------------------------
          |                Geometry Summary                 |
           -------------------------------------------------

      molecular mass/u    :      195.1988581
   center of mass at/Å    :        0.0186667      -0.0615274      -0.0325782
  moments of inertia/u·Å² :        0.4551230E+03   0.7661296E+03   0.1193680E+04
rotational constants/cm⁻¹ :        0.3703973E-01   0.2200363E-01   0.1412241E-01

 * 21 selected distances

     #   Z          #   Z                                           value/Å
     1   6 C        2   7 N                                       1.4485856
     4   7 N        5   6 C                                       1.2684941
     3   6 C        6   6 C                                       1.3634352
     6   6 C        7   6 C                                       1.4314250
     7   6 C        8   8 O                                       1.3254152
     7   6 C        9   7 N                                       1.3282431
     9   7 N       10   6 C                                       1.4509841
    11   6 C       12   8 O                                       1.1976403
     5   6 C       13   7 N                                       1.3777500
    11   6 C       13   7 N                                       1.3678886
    13   7 N       14   6 C                                       1.4531845 (max)
     1   6 C       15   1 H                                       1.1058345
     1   6 C       16   1 H                                       1.0927590
     2   7 N       17   1 H                                       1.0177337 (min)
     3   6 C       18   1 H                                       1.0769684
    10   6 C       19   1 H                                       1.0850497
    10   6 C       20   1 H                                       1.0905328
    10   6 C       21   1 H                                       1.0905716
    14   6 C       22   1 H                                       1.0893694
    14   6 C       23   1 H                                       1.0897615
    14   6 C       24   1 H                                       1.0870026

 * 5 distinct bonds (by element types)

   Z      Z             #   av. dist./Å        max./Å        min./Å
   1 H    6 C           9     1.0897610     1.1058345     1.0769684
   6 C    6 C           2     1.3974301     1.4314250     1.3634352
   1 H    7 N           1     1.0177337     1.0177337     1.0177337
   6 C    7 N           7     1.3850186     1.4531845     1.2684941
   6 C    8 O           2     1.2615277     1.3254152     1.1976403


optimized geometry written to: xtbopt.xyz


           -------------------------------------------------
          | TOTAL ENERGY              -42.128058576326 Eh   |
          | GRADIENT NORM               0.006056821754 Eh/α |
          | HOMO-LUMO GAP               1.758252741809 eV   |
           -------------------------------------------------

------------------------------------------------------------------------
 * finished run on 2024/06/05 at 19:57:51.497     
------------------------------------------------------------------------
 total:
 * wall-time:     0 d,  0 h,  0 min,  0.293 sec
 *  cpu-time:     0 d,  0 h,  0 min,  0.139 sec
 * ratio c/w:     0.475 speedup
 SCF:
 * wall-time:     0 d,  0 h,  0 min,  0.023 sec
 *  cpu-time:     0 d,  0 h,  0 min,  0.023 sec
 * ratio c/w:     0.976 speedup
 ANC optimizer:
 * wall-time:     0 d,  0 h,  0 min,  0.240 sec
 *  cpu-time:     0 d,  0 h,  0 min,  0.107 sec
 * ratio c/w:     0.445 speedup

