25
 energy: -43.624291277206 gnorm: 3.322175391516 xtb: 6.6.1 (8d0f1dd)
C            3.21786164340000        1.13591514650000        0.01837059260000
N            2.27034809790000        0.05199982890000        0.00038279530000
C            2.54167221030000       -1.23971668410000       -0.00834188300000
N            1.39367826450000       -1.95088267900000       -0.00850347120000
C            0.35269634020000       -1.06748964300000        0.00059917290000
C            0.90759959010000        0.20069750900000        0.00663590170000
C            0.07590235260000        1.39864294500000       -0.00284827040000
O            0.48715076820000        2.53168346660000       -0.01725767220000
N           -1.27221500230000        1.06666939660000        0.00165480230000
C           -2.23229981500000        2.16656245330000       -0.00245172030000
C           -1.84872931540000       -0.19179276200000        0.00496135950000
O           -3.03273030250000       -0.36103538130000        0.00858583760000
N           -0.96599111670000       -1.30060631840000        0.00174701630000
C           -1.52030655580000       -2.64076660390000       -0.00239033190000
H            3.71480285180000        1.18589984860000        0.98803183970000
H            3.97079415090000        0.99383197990000       -0.75543416370000
H            2.68321036910000        2.07051068580000       -0.15067179540000
H            3.52469367910000       -1.66989040330000       -0.01523639120000
H           -1.67672429040000        3.10039111610000        0.00486339690000
H           -2.85755792270000        2.10547813320000       -0.89185337000000
H           -2.87119733260000        2.09858159720000        0.87661144540000
H           -1.20589108080000       -3.18768007210000        0.88663215920000
H           -1.21982032550000       -3.17678505510000       -0.90288069810000
H           -2.60531402170000       -2.54255916880000        0.00649952960000
H            1.32879827740000       -2.95942079410000       -0.01653446370000
25
 energy: -48.628161883823 gnorm: 6.749025400674 xtb: 6.6.1 (8d0f1dd)
C            3.23394812272007        1.13777612197212        0.02068020684111
N            2.33706670524261        0.39024131949510       -0.02866828088976
C            2.54200077959960       -1.21163015110734       -0.00858746108967
N            1.39463020802330       -1.94696300996429       -0.00850253454497
C            0.35528160162920       -1.06670375778805        0.00057267702695
C            0.91026985881844        0.21184334394684        0.00625207895190
C            0.07477976861314        1.39832785009414       -0.00274219798445
O            0.48691601261403        2.53174472111317       -0.01727598864182
N           -1.27249233074097        1.06655339256860        0.00167997067142
C           -2.23226544693871        2.16651690498194       -0.00243901537397
C           -1.84856494976587       -0.19185545797233        0.00496038163659
O           -3.03283395203366       -0.36105630976127        0.00858444594349
N           -0.96586059185625       -1.30068125065395        0.00176807587214
C           -1.52028958768364       -2.64072204405983       -0.00240212185423
H            3.71480860894879        1.18637343653811        0.98870440871818
H            3.97098583267270        0.99420651435281       -0.75612000031426
H            2.59561001985110        1.68587834710496       -0.12345216455773
H            3.52389927783399       -1.66975419397337       -0.01519776896993
H           -1.67673062759188        3.10039389703771        0.00487915208509
H           -2.85758779368811        2.10546601186533       -0.89184887832054
H           -2.87122800533433        2.09856069185309        0.87662838445745
H           -1.20586772151797       -3.18769411138897        0.88661599719496
H           -1.21979619782041       -3.17679040028204       -0.90289537514948
H           -2.60530328394690       -2.54258091397179        0.00648644965631
H            1.32905520645175       -2.95921241040068       -0.01650882346477
25
 energy: -56.720541950078 gnorm: 7.799669274307 xtb: 6.6.1 (8d0f1dd)
C            3.26524729005584        1.14007437046386        0.02516044578880
N            2.39420903986077        0.73185073823511       -0.05850661491003
C            2.54213287217860       -1.18981676181287       -0.00872820206209
N            1.39622892551210       -1.94307079212766       -0.00854335000295
C            0.35791839304177       -1.06566442731422        0.00054385660947
C            0.91290014148285        0.22194515023821        0.00589782444279
C            0.07340748658395        1.39779920627623       -0.00264496944480
O            0.48691652901403        2.53192422282200       -0.01727835735749
N           -1.27289509620043        1.06660235452971        0.00170747976254
C           -2.23227210318845        2.16645625697672       -0.00241486077931
C           -1.84834782229278       -0.19196226610569        0.00495767088312
O           -3.03298480515563       -0.36109111720211        0.00858141677662
N           -0.96578970701189       -1.30045000453119        0.00177828686499
C           -1.52020063262770       -2.64064429920162       -0.00242324432302
H            3.71596502384024        1.18717903199629        0.99017041864767
H            3.97233725124420        0.99471993773071       -0.75721360035622
H            2.49969484041739        1.30357656004802       -0.09796775913802
H            3.52311661256321       -1.66947039321299       -0.01523038186766
H           -1.67674566795745        3.10038592919535        0.00491128102364
H           -2.85763179060908        2.10545201255739       -0.89183312677708
H           -2.87127262447877        2.09852880502975        0.87665674713515
H           -1.20583147795335       -3.18772312520809        0.88658985478215
H           -1.21975876018714       -3.17680053749496       -0.90293161677325
H           -2.60527785994899       -2.54259877920270        0.00646150918023
H            1.32936545591670       -2.95896353108525       -0.01652909020527
25
 energy: -48.273421712356 gnorm: 107.107538056896 xtb: 6.6.1 (8d0f1dd)
C            3.34643558501980        1.15858722420172        0.03584122491855
N            2.40971582989377        1.06410954386029       -0.09198782735020
C            2.54118778462379       -1.17478245001273       -0.00882367435608
N            1.39847618030403       -1.94040508308951       -0.00863546708336
C            0.36031065137154       -1.06465387806311        0.00047389994540
C            0.91386231936487        0.23143810708341        0.00581626193976
C            0.07153862839753        1.39720782599705       -0.00251903963908
O            0.48684734768993        2.53222721970329       -0.01729696892138
N           -1.27339189854666        1.06650479624205        0.00175132563016
C           -2.23254198125394        2.16618075154621       -0.00235764759339
C           -1.84818582581268       -0.19222042140896        0.00498641387530
O           -3.03309652463888       -0.36144672674561        0.00862653079858
N           -0.96531438576746       -1.30018722382025        0.00178891515235
C           -1.51982179992080       -2.64073905461698       -0.00241421163066
H            3.71907047892746        1.18921907690139        0.99377836608742
H            3.97599932605007        0.99609107596732       -0.76000406453702
H            2.39348703952042        0.92323346499286       -0.07600890592501
H            3.52248052104663       -1.66919084813421       -0.01532530797869
H           -1.67708612222167        3.10018304385274        0.00496510663318
H           -2.85790524881480        2.10513813581100       -0.89177482997808
H           -2.87151963725753        2.09820035265578        0.87672507460104
H           -1.20547065660209       -3.18788525151271        0.88658414899499
H           -1.21942407379377       -3.17694848121788       -0.90293644096025
H           -2.60500335719948       -2.54287472093921        0.00648329376772
H            1.32978133371991       -2.95874793765394       -0.01656455849128
25
 energy: -53.047948277891 gnorm: 9.266173912832 xtb: 6.6.1 (8d0f1dd)
C            3.35369802436620        1.16057502486636        0.03636630188508
N            2.44747147037006        1.43192314675094       -0.13453137833855
C            2.54128187255316       -1.17217258809311       -0.00871911301066
N            1.39927255350448       -1.93977177441506       -0.00820727755745
C            0.36079919768319       -1.06451044176160        0.00073466770397
C            0.91370433982060        0.23233203772679        0.00570300310156
C            0.07095636237760        1.39716666762459       -0.00293388970955
O            0.48602326001056        2.53232700866613       -0.01807185848463
N           -1.27379233624214        1.06605854811020        0.00153792540744
C           -2.23323553500771        2.16544868694877       -0.00280623848554
C           -1.84813932695470       -0.19282457227325        0.00517604665865
O           -3.03302380557384       -0.36242254788829        0.00896054165784
N           -0.96490323034442       -1.30050897818176        0.00222124541286
C           -1.51902786042761       -2.64123989001650       -0.00155522299463
H            3.71908334984565        1.19069883338007        0.99349369765718
H            3.97598789773696        0.99711748421612       -0.76089319235158
H            2.34680258759584        0.55286600285116       -0.03573788208544
H            3.52288633971626       -1.66815856850479       -0.01514670971478
H           -1.67807053820957        3.09962700388718        0.00420482000000
H           -2.85865830336065        2.10396152809330       -0.89215779651140
H           -2.87212774580076        2.09752258884084        0.87634788686136
H           -1.20443917645112       -3.18804622214163        0.88757346326503
H           -1.21854092407620       -3.17762265404294       -0.90194884532744
H           -2.60424481466455       -2.54371690789193        0.00740275218759
H            1.33066785563270       -2.95839087515160       -0.01584132932691
25
 energy: -53.904382615606 gnorm: 9.405007279241 xtb: 6.6.1 (8d0f1dd)
C            3.45088299026651        1.14275910163296        0.05371125441000
N            2.33669135107469        1.43636020379312       -0.15643658729204
C            2.53536401623853       -1.19005823569014       -0.00881521842313
N            1.40219771003608       -1.94155574945646       -0.00787131954693
C            0.35852521460563       -1.06340397465219        0.00102339843702
C            0.90189157471128        0.22330524675721        0.00601644306624
C            0.06909818446823        1.39771239861826       -0.00343282196522
O            0.48329084033369        2.53293966760859       -0.01874052516284
N           -1.27530225905078        1.06507710172521        0.00140086891854
C           -2.23475622059290        2.16375893709632       -0.00314234769668
C           -1.84753735167672       -0.19425382620142        0.00548502807528
O           -3.03322796521629       -0.36466038368232        0.00951602447438
N           -0.96369386116350       -1.30116087837089        0.00272849714704
C           -1.51718161729199       -2.64217008262348       -0.00052280445460
H            3.72915467679356        1.19204586380350        1.00424597376960
H            3.98873219115500        0.99691265984522       -0.76907619788045
H            2.35622956359300        0.60459982050059       -0.03833565562128
H            3.52271075019634       -1.66476418488134       -0.01516742709724
H           -1.68030046943667        3.09838599022830        0.00347477408810
H           -2.86041373863664        2.10157878700709       -0.89243741609577
H           -2.87363190971931        2.09568335422218        0.87615070658480
H           -1.20210025940159       -3.18871937776799        0.88871997229016
H           -1.21647004993832       -3.17886123314986       -0.90077957553642
H           -2.60255132831321       -2.54564437342076        0.00856706705595
H            1.33282948106540       -2.95762829134169       -0.01511049364451
25
 energy: -56.936100748688 gnorm: 8.379610167018 xtb: 6.6.1 (8d0f1dd)
C            3.64884433297776        1.12045792510534        0.08847269754965
N            2.25843303574961        1.29393779505854       -0.14791317871853
C            2.52631860916515       -1.15399696084909       -0.00924746640399
N            1.41228147120832       -1.93472426843776       -0.00856153190295
C            0.36231853378774       -1.05612343435605        0.00066286359085
C            0.89458891228663        0.23553239888609        0.00678458111353
C            0.06613218217508        1.39706008340407       -0.00278523592094
O            0.48071620683976        2.53383248626716       -0.01724398244109
N           -1.27720538236232        1.06516098865953        0.00180001788476
C           -2.23403589483434        2.16437103324352       -0.00242177443308
C           -1.84669652283422       -0.19391771727959        0.00525499602671
O           -3.03383800130883       -0.36377185259701        0.00918030117146
N           -0.96215761104324       -1.30014388467456        0.00215604247333
C           -1.51776651648344       -2.64126542893318       -0.00163269487486
H            3.74722188156477        1.19059882070538        1.02858581650663
H            4.01284129923855        0.99371513020407       -0.78491551282142
H            2.20730845871649        0.70310750213015       -0.08770219915996
H            3.51847856157162       -1.66494466147310       -0.01552688351543
H           -1.67939381929709        3.09894277399756        0.00454667783952
H           -2.85992430270403        2.10274847299401       -0.89190409430221
H           -2.87331237946008        2.09618551607041        0.87684405595026
H           -1.20298013308954       -3.18870913555024        0.88739673881339
H           -1.21720156195405       -3.17815710675993       -0.90204183154375
H           -2.60329487690586       -2.54488723057383        0.00741317798391
H            1.33275503109557       -2.95677070364148       -0.01602996296579
25
 energy: -41.308662799651 gnorm: 202.777370784155 xtb: 6.6.1 (8d0f1dd)
C            3.73735922640483        1.10681958809875        0.10337046704043
N            2.13977649829000        1.06888381390187       -0.14900762419680
C            2.52243091355159       -1.20931764912552       -0.00810947308023
N            1.42034995718442       -1.94012753766656       -0.00817550763748
C            0.36037280189535       -1.05239635123553        0.00100593786727
C            0.88486886602648        0.21439092212740        0.00937863877147
C            0.06649850284010        1.39608868237525       -0.00351081753416
O            0.47838611883490        2.53501777262853       -0.01754589409477
N           -1.27947508652659        1.06543368005615        0.00154993632742
C           -2.23423874885370        2.16403413340244       -0.00285472423620
C           -1.84641288257158       -0.19428779622093        0.00536037580199
O           -3.03394656674105       -0.36405455891346        0.00943851693476
N           -0.96119685990475       -1.29891089719414        0.00239539547117
C           -1.51734466585498       -2.64119308709851       -0.00086319713452
H            3.75617255277619        1.19124754008457        1.04615876479472
H            4.02596074284822        0.99197719146211       -0.79903706990669
H            2.22657613071398        1.02179483972405       -0.11073005242735
H            3.51820167839586       -1.66559666073455       -0.01551610419641
H           -1.67969811495778        3.09879203797013        0.00378651598283
H           -2.86039315369105        2.10219414369088       -0.89238237811416
H           -2.87371016846477        2.09610798714310        0.87649355156850
H           -1.20255057996215       -3.18862942040371        0.88826988529432
H           -1.21686609742291       -3.17855416863525       -0.90111577916695
H           -2.60305412623579       -2.54514142337677        0.00822137260760
H            1.33236457552516       -2.95633424046031       -0.01540911883676
25
 energy: -57.401056464230 gnorm: 15.832003504268 xtb: 6.6.1 (8d0f1dd)
C            3.73065950564188        1.11016982677618        0.10091256026570
N            2.05322608823492        1.05355899512991       -0.18118704829911
C            2.52298773720107       -1.21247301105036       -0.00777497415127
N            1.42219443838920       -1.93960542965495       -0.00715871260004
C            0.36081348617856       -1.05204684017241        0.00163070642812
C            0.88349317388330        0.21348136639237        0.00916441377831
C            0.06509810899457        1.39604948343455       -0.00451974620404
O            0.47622267890909        2.53536898727248       -0.01937198356891
N           -1.28049277978736        1.06444642902905        0.00103865250354
C           -2.23599055118902        2.16219297358921       -0.00392470280657
C           -1.84631717073560       -0.19584306752724        0.00581675572048
O           -3.03375104457275       -0.36649108376760        0.01024830686975
N           -0.96018375120039       -1.29965866632001        0.00343378596497
C           -1.51533032027457       -2.64243103385298        0.00120338251792
H            3.75601018558971        1.19473334751998        1.04613705561576
H            4.02597795487859        0.99431474132427       -0.80172946991845
H            2.31741713321627        1.04616365409852       -0.08054747566395
H            3.51929315577443       -1.66287326735830       -0.01511774331519
H           -1.68215245550529        3.09741315315621        0.00196580981332
H           -2.86228155633530        2.09927824982788       -0.89330033953850
H           -2.87524634709167        2.09438860587725        0.87560172338616
H           -1.19997730597083       -3.18906003008336        0.89064916872592
H           -1.21465288362815       -3.18021547334446       -0.89874420165038
H           -2.60117164093099       -2.54724681250610        0.01043507307664
H            1.33458567443035       -2.95537655619007       -0.01368937905017
25
 energy: -53.643904494480 gnorm: 9.598182273264 xtb: 6.6.1 (8d0f1dd)
C            3.73828621467734        1.10797363819353        0.09981554849174
N            1.87695509521865        0.78344665862565       -0.21629496151345
C            2.52362730919838       -1.24944675687163       -0.00677437956159
N            1.42791000133406       -1.94156727857153       -0.00540920371791
C            0.36018534124995       -1.04980823998293        0.00272793358313
C            0.87875580447223        0.20360539041540        0.00906768921568
C            0.06148391492752        1.39571394051118       -0.00616556516329
O            0.47242566833317        2.53637450531190       -0.02227975391439
N           -1.28285086252913        1.06394676966769        0.00011355282910
C           -2.23830016036712        2.15981560413242       -0.00584402618153
C           -1.84600177952165       -0.19809768700689        0.00648877314058
O           -3.03359233583287       -0.36953492394107        0.01149450031768
N           -0.95897400333823       -1.29992541903360        0.00517263771997
C           -1.51270991826417       -2.64390273644461        0.00466468322679
H            3.75771154906974        1.19963151274558        1.05282511374173
H            4.02973552990269        0.99650592985152       -0.81148175329646
H            2.48268807996270        1.37527366262976       -0.05346224570615
H            3.52056983043114       -1.65948455788823       -0.01441340556679
H           -1.68521906729852        3.09567999211632       -0.00121653647317
H           -2.86478695083922        2.09535483869945       -0.89500235715105
H           -2.87724627863369        2.09250597968356        0.87396604783930
H           -1.19667977582297       -3.18933529989302        0.89461993358114
H           -1.21188390031867       -3.18257468795180       -0.89473907431580
H           -2.59879869634417       -2.54988372207827        0.01408514950092
H            1.33714090443282       -2.95402857132037       -0.01078668272616
25
 energy: -57.260349446207 gnorm: 7.958106795375 xtb: 6.6.1 (8d0f1dd)
C            3.73106372647947        1.10707186392478        0.09915931307081
N            1.96157160829812        0.91529400479422       -0.20437866779515
C            2.52533997111473       -1.24515217882844       -0.00696301300764
N            1.42670771399914       -1.94107013152257       -0.00607648905434
C            0.36065999281892       -1.05156566550712        0.00248717866724
C            0.87375976798605        0.20671343939570        0.01045053281457
C            0.05733211992350        1.39671723093495       -0.00496701959022
O            0.47296556012324        2.53566592344147       -0.02091346928809
N           -1.28292953857701        1.06520032026845        0.00043777313708
C           -2.23769200283130        2.16097407187320       -0.00514976374000
C           -1.84620133811449       -0.19749049719547        0.00614416576327
O           -3.03365524603826       -0.36821826513174        0.01091283432252
N           -0.96026195674155       -1.29943523401577        0.00450545699315
C           -1.51375274088572       -2.64302574574254        0.00323723314099
H            3.75878551912923        1.19828157254313        1.05928006324444
H            4.03236318756300        0.99479277634614       -0.81492127613134
H            2.41359571590086        1.23235689350224       -0.06455657014674
H            3.51999620592514       -1.66165669550584       -0.01476748394592
H           -1.68381807456614        3.09642674016576        0.00001065783478
H           -2.86372880449051        2.09710992516369       -0.89439465023357
H           -2.87644526663548        2.09343425567135        0.87453811831780
H           -1.19814953448453       -3.18913780152035        0.89296857381965
H           -1.21309002518528       -3.18153623148500       -0.89637065974267
H           -2.59979725757486       -2.54866349151407        0.01253933334284
H            1.33581221096372       -2.95484853845616       -0.01204055389349
25
 energy: -56.737773883057 gnorm: 22.700798840464 xtb: 6.6.1 (8d0f1dd)
C            3.72412002790528        1.10233900772380        0.09922675966229
N            2.08867698298000        1.14088532395508       -0.17352964667890
C            2.52618325267317       -1.25021987328164       -0.00703735448781
N            1.42633020714206       -1.94214368678492       -0.00759473829041
C            0.36193077965626       -1.05168702969501        0.00148897958366
C            0.88299986271703        0.21763801272095        0.00829399136833
C            0.05333794390147        1.39672673423067       -0.00345002252738
O            0.47324405379602        2.53531054702805       -0.01818829240126
N           -1.28333841783144        1.06719164290936        0.00126074588609
C           -2.23649759180288        2.16280271666980       -0.00357866003573
C           -1.84632077236954       -0.19618944217297        0.00560313303472
O           -3.03390479409993       -0.36598690721706        0.00999052333265
N           -0.96133638604240       -1.29810575694644        0.00327539470910
C           -1.51544332641555       -2.64150281425449        0.00056347046223
H            3.76167573739989        1.19613106621355        1.07028960501219
H            4.03806526649154        0.99233945362126       -0.82083382020282
H            2.28423574735071        0.99674663662131       -0.08988438773613
H            3.51889247338961       -1.66537309680524       -0.01562609616580
H           -1.68140357772247        3.09772273895872        0.00256601602313
H           -2.86203566350835        2.10021177212783       -0.89300745819685
H           -2.87514273868666        2.09491111609575        0.87592934303201
H           -1.20061581395981       -3.18894978795079        0.88980751249654
H           -1.21516706290842       -3.17966828059436       -0.89948665975203
H           -2.60155367886353       -2.54660724423952        0.00969367358834
H            1.33349900290795       -2.95628430733369       -0.01460039381617
25
 energy: -58.296314943852 gnorm: 2.917415063562 xtb: 6.6.1 (8d0f1dd)
C            3.70126853809663        1.10130359193265        0.09757138739918
N            2.13634593144398        1.22472900044839       -0.12171088286628
C            2.53035840550406       -1.19390190050372       -0.00770253443462
N            1.42589137682770       -1.93389084972818       -0.00977485258022
C            0.36856565074442       -1.05064290206315        0.00010760767181
C            0.89638997920313        0.25426907057727        0.00621417347551
C            0.04415091464578        1.39744171384024       -0.00118939688787
O            0.47147155060703        2.53491432193929       -0.01467843777893
N           -1.28448147095924        1.06820790345736        0.00252082356414
C           -2.23713081625583        2.16301874140826       -0.00115090921246
C           -1.84667713716368       -0.19638258079431        0.00509606456546
O           -3.03382933496195       -0.36608417436453        0.00905620531796
N           -0.96089118608353       -1.29782309559761        0.00170435428820
C           -1.51513978426415       -2.64109642236557       -0.00296000923296
H            3.76229524530547        1.19783263381261        1.08087249866404
H            4.04131855263940        0.99342283641196       -0.82639508657453
H            2.24505171251968        0.80586943074837       -0.13292091822146
H            3.51728671304151       -1.66517384291519       -0.01703457158970
H           -1.68123754212472        3.09774456783364        0.00630806523884
H           -2.86192967940427        2.10153884956318       -0.89075000395269
H           -2.87536806298203        2.09397300514648        0.87817889184249
H           -1.20086182285062       -3.19001083976403        0.88559272460980
H           -1.21508403978138       -3.17841642809090       -0.90365719016860
H           -2.60152672205627       -2.54646161078021        0.00605879006713
H            1.33419454240891       -2.95614247855231       -0.01818517530423
25
 energy: -58.296314944244 gnorm: 2.917414127453 xtb: 6.6.1 (8d0f1dd)
C            3.70126853809663        1.10130359193265        0.09757138739918
N            2.13634593144398        1.22472900044839       -0.12171088286628
C            2.53035840550406       -1.19390190050372       -0.00770253443462
N            1.42589137682770       -1.93389084972818       -0.00977485258022
C            0.36856565074442       -1.05064290206315        0.00010760767181
C            0.89638997920313        0.25426907057727        0.00621417347551
C            0.04415091464578        1.39744171384024       -0.00118939688787
O            0.47147155060703        2.53491432193929       -0.01467843777893
N           -1.28448147095924        1.06820790345736        0.00252082356414
C           -2.23713081625583        2.16301874140826       -0.00115090921246
C           -1.84667713716368       -0.19638258079431        0.00509606456546
O           -3.03382933496195       -0.36608417436453        0.00905620531796
N           -0.96089118608353       -1.29782309559761        0.00170435428820
C           -1.51513978426415       -2.64109642236557       -0.00296000923296
H            3.76229524530547        1.19783263381261        1.08087249866404
H            4.04131855263940        0.99342283641196       -0.82639508657453
H            2.24505171251968        0.80586943074837       -0.13292091822146
H            3.51728671304151       -1.66517384291519       -0.01703457158970
H           -1.68123754212472        3.09774456783364        0.00630806523884
H           -2.86192967940427        2.10153884956318       -0.89075000395269
H           -2.87536806298203        2.09397300514648        0.87817889184249
H           -1.20086182285062       -3.19001083976403        0.88559272460980
H           -1.21508403978138       -3.17841642809090       -0.90365719016860
H           -2.60152672205627       -2.54646161078021        0.00605879006713
H            1.33419454240891       -2.95614247855231       -0.01818517530423
25
 energy: -57.963957380837 gnorm: 10.549604609444 xtb: 6.6.1 (8d0f1dd)
C            3.69583526362245        1.09582320284078        0.09814028263134
N            2.23063844294516        0.87394112932784       -0.13206674153452
C            2.53180821654429       -1.20085819815010       -0.00763598552605
N            1.42819225495374       -1.93389625536583       -0.00968861777397
C            0.36952277074445       -1.04869790446810        0.00045247052177
C            0.89105950479009        0.24755663452235        0.00859676569126
C            0.04172720302133        1.39694129495844       -0.00142317344774
O            0.47242607929868        2.53276769491799       -0.01483253044783
N           -1.28665992242997        1.06896418988794        0.00252035303484
C           -2.23781653695871        2.16338704753362       -0.00114370563306
C           -1.84706354930648       -0.19641293097701        0.00509558156637
O           -3.03381221620251       -0.36626830974718        0.00905723906566
N           -0.95974890199132       -1.29668623904119        0.00164945542088
C           -1.51473356712574       -2.64069065550047       -0.00295243599617
H            3.76641400325617        1.19922830196385        1.09002774942249
H            4.04774251388961        0.99326300881938       -0.83374540681499
H            2.15021997805630        1.17275332828878       -0.12738233823071
H            3.51669503391012       -1.66619983059138       -0.01705169434770
H           -1.68119967419766        3.09773845706242        0.00628202723849
H           -2.86217131655584        2.10164285395704       -0.89083266882643