25
 energy: 0.000000000000 xtb: 6.6.1 (8d0f1dd)
C            3.23720163006194        1.16630919979326        0.08434469647475
N            2.29877817382611        0.07527477071623        0.03981603040599
C            2.58028210190900       -1.21425402444508        0.03006176031096
N            1.43813958087363       -1.93419271955128        0.00098261760884
C            0.39035688448383       -1.05887472636071       -0.00790371836672
C            0.93510056364412        0.21347819449412        0.01709077491437
C            0.09450143893243        1.40504303904423       -0.00410947031874
O            0.49712751527797        2.54126714362870       -0.00342325688240
N           -1.25076640035757        1.06271879480407       -0.03085478223738
C           -2.21907211982101        2.15522099834493       -0.05001256985998
C           -1.81739487048744       -0.20012725993278       -0.04692818574614
O           -2.99983886758376       -0.37846417018721       -0.07008878229737
N           -0.92618586207120       -1.30210215599479       -0.03682761578324
C           -1.46982264913417       -2.64643102187190       -0.06029820460571
H            3.71247264356769        1.21471455160235        1.06488849150277
H            4.00791497605742        1.03430808813993       -0.67357694370751
H            2.69910007168542        2.09770118228144       -0.09130154882931
H            3.56654120610678       -1.63682992603973        0.04233140067262
H           -1.67107961066214        3.09322851271934       -0.02552706933167
H           -2.82428953597071        2.09428624779827       -0.95318082946668
H           -2.87644029173232        2.07745725625962        0.81450067533302
H           -1.17061996399332       -3.19584890659852        0.83242232437030
H           -1.14560257411436       -3.17511610292205       -0.95688275822323
H           -2.55549792440841       -2.55659984320617       -0.07459039797972
H            1.38130855184625       -2.94313852034425       -0.01389874181052
25
 energy: -3.915147144053 xtb: 6.6.1 (8d0f1dd)
C            3.25507150548423        1.17923440414950        0.06977924089710
N            2.31578064645959        0.08446245237394        0.03397486636714
C            2.59590683555317       -1.24709783875550        0.04141187739322
N            1.42052978440855       -1.95219123564891        0.01714042939889
C            0.39202557329862       -1.06585035293680        0.00196657347543
C            0.93339531745117        0.21092459071616        0.02814199265959
C            0.10473448661589        1.38521021260314        0.00582872440795
O            0.50453369807779        2.54919080658068        0.00758310519313
N           -1.25860360793314        1.04608554155054       -0.03142065263282
C           -2.21569921537659        2.14593340488972       -0.06006580053456
C           -1.82591204827769       -0.20323204519001       -0.05134930900932
O           -3.02283481315623       -0.38119333539778       -0.08337771231029
N           -0.94044305465457       -1.30676586630613       -0.03428615598469
C           -1.48707597517028       -2.64634885559351       -0.06071403357379
H            3.79806598318789        1.16126048929478        1.01459968128526
H            4.01772800365721        1.24743508400328       -0.74875572084765
H            2.67945346691956        2.10052310023259       -0.00023895356542
H            3.56919790613715       -1.68025446630207        0.07388104008199
H           -1.65392307157629        3.07727222357723       -0.03851594933346
H           -2.81865511761797        2.08951262390095       -0.96596962550776
H           -2.87726022952940        2.08224409898346        0.80326735231394
H           -1.19272923361546       -3.19961238279219        0.83304651805930
H           -1.15893902479115       -3.18019685861830       -0.95476470547538
H           -2.57224944971406       -2.55104539255635       -0.08052127148545
H            1.35011630209813       -2.95647180058637        0.00639238487495
25
 energy: 4.813239411768 xtb: 6.6.1 (8d0f1dd)
C            3.27549908297224        1.19478091774986        0.04885555725118
N            2.34080525869062        0.09120288195150        0.01919848483094
C            2.60899540925981       -1.28740445134535        0.06250872021085
N            1.39676191056838       -1.96961669407029        0.04415645619750
C            0.39411323439706       -1.07450630568584        0.01755444717622
C            0.93379633491971        0.20743532407979        0.03554358233838
C            0.12103613575448        1.35372682233790        0.01631093670347
O            0.50399174600067        2.54178637713897        0.02755136190746
N           -1.26885668151578        1.02590369522814       -0.03430344312817
C           -2.20919064101214        2.13627486739073       -0.07594072102877
C           -1.83045795727045       -0.20681961976452       -0.05961430455257
O           -3.03700863707848       -0.38548745323076       -0.10504739832784
N           -0.95696199608781       -1.31126772170912       -0.02986398561212
C           -1.51001445550218       -2.64555628819196       -0.06081358334143
H            3.94520730261997        1.05653109473544        0.92080723276052
H            4.00122027184618        1.57145616856723       -0.86580745698759
H            2.64651334976467        2.10350727913856        0.15946681105803
H            3.56410380671649       -1.73733862550445        0.13362748230769
H           -1.63058846053923        3.05895843142249       -0.05971415950009
H           -2.80955062022945        2.08217119339339       -0.98460429689754
H           -2.87693596804026        2.09117836205224        0.78492703114470
H           -1.22800240212070       -3.20603589315035        0.83453278333915
H           -1.17998524346295       -3.18815713678986       -0.95124426587125
H           -2.59492830234767       -2.54261995929246       -0.08982780022721
H            1.31265218963287       -2.97107466427923        0.03877442439577
25
 energy: 19.184491166778 xtb: 6.6.1 (8d0f1dd)
C            3.28929069192917        1.21375772489224        0.02809463969248
N            2.35809964350771        0.09637913313779        0.00391370841413
C            2.61136013423672       -1.30961397587239        0.07951406039714
N            1.38348516172628       -1.97955618560637        0.06989263482883
C            0.39319541474083       -1.08294335274568        0.02910324525972
C            0.93589869387991        0.20250964410983        0.03391400072168
C            0.12887413409761        1.33600285658945        0.02617170511788
O            0.49548864562902        2.53225416170623        0.05438582972447
N           -1.27660649307272        1.01429752230844       -0.03508857307707
C           -2.20499677412427        2.12991833516257       -0.08845879077599
C           -1.83420784816683       -0.21305162246600       -0.06809154891357
O           -3.04341853503053       -0.39329819463100       -0.12561940969382
N           -0.96661385452702       -1.31738198328226       -0.02625690112708
C           -1.52997213525600       -2.64761187321193       -0.06273262702825
H            4.08194254051185        0.96595353323208        0.79872446127112
H            3.96589069086574        1.82943474634283       -0.94163328542085
H            2.65066412065969        2.10089045597614        0.30555263895608
H            3.55405474220115       -1.77820293091401        0.19836404441742
H           -1.61371134658508        3.04470865678002       -0.07726014148958
H           -2.80196120829341        2.07338715009517       -0.99943211273003
H           -2.87673496906547        2.09824156013012        0.77010410031999
H           -1.26376012233205       -3.21462832325639        0.83398364587971
H           -1.20131292588648       -3.19565175133762       -0.95100348943005
H           -2.61483473310862       -2.53497758610083       -0.10098985807146
H            1.29210099939876       -2.98178909886634        0.07188191890437
25
 energy: 30.031518049402 xtb: 6.6.1 (8d0f1dd)
C            3.30021744595411        1.22247324961508        0.01655638997849
N            2.36716550442103        0.09689250714215       -0.00423967187685
C            2.60533014112741       -1.31753253043177        0.09031161521802
N            1.37852819548968       -1.98404097085578        0.08965372739094
C            0.38885887056367       -1.09034571743103        0.03473720920486
C            0.93857433024058        0.19526207136304        0.02452081573320
C            0.12980167753020        1.32959815246834        0.03519319202286
O            0.48381890382688        2.51935174798363        0.08366692497346
N           -1.28103905836529        1.00953213872419       -0.03234905888925
C           -2.20311012645862        2.12641503648220       -0.09443099508367
C           -1.83754413405003       -0.22007699325211       -0.07409508361626
O           -3.04375636566463       -0.40011668742290       -0.14127706438915
N           -0.97124397945970       -1.32390045901122       -0.02394815379917
C           -1.54591803565141       -2.65160032754321       -0.06608175177714
H            4.15992631099454        0.91897229649375        0.67139915798780
H            3.94587806833564        2.02869077881354       -0.96839302700841
H            2.69978647689145        2.06959984788680        0.39469712887875
H            3.53781844089499       -1.80177985280009        0.25962101212700
H           -1.60535790118410        3.03600699863081       -0.08755217532053
H           -2.79791832917919        2.06513800797523       -1.00630630551252
H           -2.87653490937233        2.10364104306847        0.76253471158298
H           -1.29463264414625       -3.22364492094964        0.83114438648822
H           -1.22067945478465       -3.20172420521670       -0.95368694096558
H           -2.63058972974462       -2.52912947390044       -0.11133148797906
H            1.28483496972652       -2.98865313566025        0.09668934077824
25
 energy: 37.820461114070 xtb: 6.6.1 (8d0f1dd)
C            3.30398419958396        1.21187152487835        0.01860947577695
N            2.36502001946168        0.09055082372927        0.00514650484969
C            2.59390096423679       -1.31138603987313        0.08765972442132
N            1.38083922733654       -1.98369429722489        0.10251441258346
C            0.38136939477190       -1.09474903969006        0.03732626834708
C            0.93948047181180        0.18686298283522        0.01789629805812
C            0.12709220431368        1.33367471830288        0.03972863548753
O            0.47765070074410        2.50727015632712        0.09944817669199
N           -1.27906152645611        1.01067385729118       -0.03167184608706
C           -2.20235788562326        2.12590598040629       -0.10322197291303
C           -1.84015583726373       -0.22486071591925       -0.07704293019613
O           -3.04120146082879       -0.40025551992074       -0.15261659454538
N           -0.97159177707838       -1.32845047449079       -0.02095040430446
C           -1.55328687541213       -2.65582464838027       -0.06437605473140
H            4.20624834872239        0.86461008097504        0.54385528639156
H            3.92011479350950        2.18647766606624       -0.98611071043076
H            2.75382288336342        2.01757703295905        0.49813369411496
H            3.51792221248934       -1.79960016623556        0.29708762216318
H           -1.60759308011404        3.03604656818789       -0.10080667077906
H           -2.79613838120491        2.05748831724429       -1.01503836296678
H           -2.87679934772728        2.10932622107778        0.75256349069715
H           -1.31035840467167       -3.22608370135416        0.83439430104123
H           -1.22897209947365       -3.20650316361463       -0.95061726846894
H           -2.63732907279218       -2.52767506712877       -0.11360647999212
H            1.28961499623687       -2.99022449427621        0.10872930093818
25
 energy: 43.961673999590 xtb: 6.6.1 (8d0f1dd)
C            3.29682215045582        1.18784794197695        0.02968690402073
N            2.35304429994480        0.08218035797309        0.03381861859897
C            2.58087078059982       -1.29789432357350        0.08684547479903
N            1.38127367563890       -1.98047292656233        0.10903888433625
C            0.37213031759763       -1.09538785002895        0.03965885604633
C            0.93520690210357        0.18137090704035        0.02038453226261
C            0.12177877017908        1.33903881587574        0.03724540157929
O            0.47417655780166        2.50109608937958        0.10679632109375
N           -1.27523297452873        1.01168725562369       -0.03643907510167
C           -2.20311398716276        2.12554122503286       -0.11205963266960
C           -1.84276529171737       -0.22718984196970       -0.08017612372104
O           -3.03973221990216       -0.39626998759926       -0.15963702010083
N           -0.97282916426248       -1.33015859849573       -0.01979825938225
C           -1.55466338301901       -2.65907537727099       -0.06042963806594
H            4.24650903493222        0.80238296275092        0.43068904314732
H            3.89938445254850        2.30686558959363       -0.99714841203732
H            2.81037115737635        1.96944665764792        0.58274381949621
H            3.50173592209123       -1.78078718830236        0.31789689863482
H           -1.61474796589872        3.03975231221970       -0.11282299756370
H           -2.79673253425925        2.05190865853219       -1.02337515569893
H           -2.87785555558806        2.11100574514589        0.74341785773833
H           -1.31215385048466       -3.22409246219054        0.84056382200062
H           -1.22751503907838       -3.21015226746604       -0.94447726499281
H           -2.63810903962895       -2.53187906091360       -0.11163723926788
H            1.29436165219676       -2.98773603224737        0.10624828099497
25
 energy: 51.910224470701 xtb: 6.6.1 (8d0f1dd)
C            3.28544071217423        1.14710702376642        0.04146422926317
N            2.34150767396516        0.06397502988979        0.06488411548509
C            2.56799440509769       -1.28970190632912        0.09051084586064
N            1.37854622664122       -1.98279863460330        0.11326235441393
C            0.36362791931003       -1.09806555409468        0.04130090405597
C            0.93320303905300        0.17276376570561        0.02480782112517
C            0.11831752460791        1.34153819804216        0.03443194622637
O            0.47543664853500        2.49348360226707        0.10955445466423
N           -1.26815294472955        1.01273183995107       -0.04289551450669
C           -2.20121794997851        2.12632188060568       -0.11862435697154
C           -1.84349161685425       -0.22799760324987       -0.08235027788702
O           -3.03692470985289       -0.38974716900371       -0.16253737570044
N           -0.97472899317627       -1.33109053200604       -0.01970028887170
C           -1.55694270239149       -2.66111751756388       -0.05564662199945
H            4.23449218890118        0.75898588666232        0.32204790183177
H            3.91315042381767        2.46540797485736       -1.00275106808395
H            2.86862544574281        1.90939936108479        0.64606645020598
H            3.48888066414086       -1.76743847804394        0.33316350201033
H           -1.61878342416801        3.04475574589888       -0.12108722477053
H           -2.79553450693200        2.04964743374868       -1.02893217087924
H           -2.87539468812788        2.11106536527060        0.73724916247763
H           -1.31226731843381       -3.22123908324266        0.84741900012216
H           -1.22779237651501       -3.21307882058709       -0.93779471495786
H           -2.63990534227559       -2.53549136034704       -0.10731725348643
H            1.29412836938425       -2.99038784650698        0.10050807651968
25
 energy: 60.147470079705 xtb: 6.6.1 (8d0f1dd)
C            3.26009076399271        1.08830169428576        0.06524481428804
N            2.32165940858645        0.03912666282973        0.11600200825491
C            2.55081066652816       -1.28416737322445        0.10643239257497
N            1.36950346665033       -1.99139664273099        0.12191193509885
C            0.35195349883950       -1.10343861093767        0.04897262782757
C            0.92611111466832        0.16122865703223        0.04542444121283
C            0.11110449125168        1.34282258168885        0.03530581553910
O            0.47696309650872        2.48657070447634        0.10741627866971
N           -1.26274496838038        1.01384511182403       -0.05358420655432
C           -2.20108661170763        2.12815981715030       -0.13147404566221
C           -1.84648448183883       -0.22843243833557       -0.08584578536436
O           -3.03820932514732       -0.38233538775184       -0.16774988463271
N           -0.98089934672573       -1.33250473772980       -0.01951141638332
C           -1.56020621414642       -2.66394970275336       -0.05021510575378
H            4.26931540058369        0.67685293529448        0.17688883123414
H            3.93701816457080        2.70720307093792       -1.02808205171386
H            2.93644277436506        1.84951606343602        0.73270677956332
H            3.47520365030811       -1.75445721052257        0.34168671900039
H           -1.62440689196817        3.05102962347088       -0.13461330945465
H           -2.79391820749521        2.04831589739300       -1.04207007342472
H           -2.87564239596359        2.11116097214685        0.72413430786158
H           -1.31109629056965       -3.21740658131401        0.85597989738479
H           -1.22558810112573       -3.21679059025814       -0.92952399290368
H           -2.64258081546651       -2.54201497647683       -0.10330807357287
H            1.28890182161732       -2.99821093775903        0.09490499305753
25
 energy: 63.467476737132 xtb: 6.6.1 (8d0f1dd)
C            3.22790849454285        1.02674765988101        0.09339243355072
N            2.30523079909295        0.01131581338444        0.15441953626502
C            2.53972546264495       -1.29094086051975        0.13445409149106
N            1.35755409027655       -2.00738344300498        0.12406202857696
C            0.34608140076260       -1.11017882433198        0.05527248335617
C            0.92115801332282        0.15074882524559        0.07227030301942
C            0.10547987214443        1.34018214285338        0.04124685447398
O            0.48387181510419        2.48260488487614        0.09903866491672
N           -1.25820642028290        1.01516914886816       -0.06054100820593
C           -2.19998484582555        2.13124797833224       -0.13461435546604
C           -1.84718482726927       -0.22687411611675       -0.08645120335338
O           -3.04034221493059       -0.37667156473976       -0.16504412722924
N           -0.98691256805279       -1.33256323710687       -0.02195355700120
C           -1.56290651453029       -2.66405079461483       -0.04955106415071
H            4.24625892500323        0.65651134080737        0.12225171724741
H            4.01594904285339        2.89103687299152       -1.03586445838281
H            2.97296948946765        1.82055161192850        0.70234829066309
H            3.47501934848220       -1.75735581462380        0.32473087646726
H           -1.62457174600447        3.05565215272260       -0.13556063189273
H           -2.79153870154756        2.05266258742997       -1.04563789758768
H           -2.87406760900257        2.10905224598095        0.72146172725132
H           -1.30806681507297       -3.21519433619143        0.85768865691471
H           -1.22504610141088       -3.21651668160514       -0.92820360308444
H           -2.64492999546653       -2.54500900128295       -0.10178351833183
H            1.27876627363425       -3.01171598899146        0.08960165663937
25
 energy: 64.811078714561 xtb: 6.6.1 (8d0f1dd)
C            3.17410367940722        0.92192837802122        0.14102613801720
N            2.28502826940481       -0.02261778867941        0.17980542066143
C            2.53561185098283       -1.32250908808480        0.18743215202881
N            1.33149328359570       -2.04077268698771        0.11014951820937
C            0.34796196338535       -1.11948742588569        0.05891306229089
C            0.91140641326926        0.14490154557043        0.12081719841438
C            0.09577226573934        1.33053976636757        0.05686053730769
O            0.49893551061924        2.49009564821752        0.07584498708015
N           -1.25938125814200        1.01634360863823       -0.06723374168843
C           -2.20195270404340        2.13569101194166       -0.13057670642562
C           -1.84662989284574       -0.22212075042255       -0.08499760039172
O           -3.05044385755686       -0.37539658788271       -0.15198158019764
N           -0.99817956102928       -1.33047900698013       -0.02955732172307
C           -1.56525683975057       -2.66027807018835       -0.05165155719517
H            4.17142424358045        0.67960857112665        0.18550846475617
H            4.21223506115480        3.04847860948714       -1.07806395337983
H            2.96988956849084        1.88931362624956        0.56293711648414
H            3.50175749725612       -1.78807222034125        0.27114470249069
H           -1.62008841339405        3.05692077897019       -0.12793554591168
H           -2.79132894787571        2.06134341988538       -1.04254779758668
H           -2.87354121706701        2.10473844622588        0.72776468837523
H           -1.30078755244902       -3.21328327746096        0.85551947231448
H           -1.22502942462689       -3.21372331526303       -0.93079432144329
H           -2.64723763056905       -2.54568798475901       -0.09994233568255
H            1.25645236039935       -3.03644660559370        0.08859289934229
25
 energy: 62.494498390232 xtb: 6.6.1 (8d0f1dd)
C            3.16794503924976        0.91428040485624        0.19187245557498
N            2.28466432897275       -0.02667523581655        0.20382095828890
C            2.53299764255826       -1.35511919743796        0.22810649737302
N            1.31182201012547       -2.05788668611743        0.10355452587947
C            0.34566822920225       -1.13016166270081        0.06196973636188
C            0.90173375043207        0.14022558680158        0.14670189360615
C            0.09577213115206        1.31575769704655        0.06449482500443
O            0.50515953173237        2.48009719897114        0.07720714520878
N           -1.26675279683617        1.01412931777671       -0.06373423907229
C           -2.20104535863367        2.13688183361356       -0.12266075295985
C           -1.84920878112510       -0.22219729813701       -0.08546673701929
O           -3.05699789272934       -0.37666543702266       -0.14850503956845
N           -1.00912090269079       -1.33347923347244       -0.03592072474798
C           -1.57390147834093       -2.66111607406794       -0.06239628803249
H            4.21906386334433        0.73034943520013        0.26786757061900
H            4.33362654124487        3.10959385500590       -1.11316450527349
H            2.89943869151902        1.93689320371217        0.39256617520188
H            3.50570784647812       -1.82290738210769        0.25741953734830
H           -1.61289482569627        3.05311081454006       -0.11703830021386
H           -2.79125026401045        2.06740658386799       -1.03435809915247
H           -2.87220317216645        2.10555508982102        0.73553017716665
H           -1.30848178705076       -3.21751610405731        0.84243877954130
H           -1.23282593385372       -3.21242754016321       -0.94294603189432
H           -2.65612087018811       -2.54726974238251       -0.10948459167396
H            1.23941912524617       -3.05183082555742        0.08915892858094
25
 energy: 60.283624219410 xtb: 6.6.1 (8d0f1dd)
C            3.19457390062501        0.93988848980183        0.23424369816828
N            2.29561860186225       -0.02885744002705        0.19121627505959
C            2.52471055548349       -1.37744895946630        0.22835026042548
N            1.30467866780415       -2.06162988052389        0.10532614135481
C            0.33708197787468       -1.14283800720117        0.05668714097781
C            0.89860791725751        0.12743629816630        0.12624198565699
C            0.10469614826426        1.30557211238435        0.05288170106391
O            0.50712604668717        2.45712395418189        0.07931751117818
N           -1.26900147990078        1.01325742120451       -0.05676726191077
C           -2.19487391269320        2.13708055964380       -0.11872841046461
C           -1.85315939858410       -0.22526622041354       -0.08312847374037
O           -3.05720758745279       -0.37349213138495       -0.14452103495553
N           -1.01480132030606       -1.33929344319973       -0.03491636998466
C           -1.58461466145828       -2.66567818939698       -0.06191432663436
H            4.22475990655455        0.70713460171552        0.34374745290308
H            4.44384940276829        3.21869507512685       -1.15096602211088
H            2.82837994183784        1.95152862910918        0.31138471800749
H            3.48345131233191       -1.84195412487241        0.25695571880993
H           -1.60673721096420        3.05137826656508       -0.11525547964511
H           -2.79004502829816        2.06877056344114       -1.02801609980060
H           -2.86623842171243        2.11276971986952        0.73897337126612
H           -1.32001515426414       -3.21921528719241        0.84156556493931
H           -1.24653870796513       -3.21543759020242       -0.94313983089730
H           -2.66690715445880       -2.54929795918885       -0.10673805074372
H            1.23482032664272       -3.06119785596815        0.10423371722416
25
 energy: 60.084690716936 xtb: 6.6.1 (8d0f1dd)
C            3.18708413016593        0.92233942202686        0.26229762362555
N            2.29181409768803       -0.04029995854363        0.21471238782639
C            2.51344318028528       -1.38011376220400        0.23782893406081
N            1.30546194073051       -2.06150000030560        0.11693435872752
C            0.32810165308353       -1.14877194170648        0.06103988283677
C            0.89659798878689        0.11702654357058        0.12703368372268
C            0.10723535773496        1.30762740313069        0.05382682589249
O            0.50709997936405        2.44994623969296        0.08220332415717
N           -1.26744902963982        1.01383058976682       -0.05123432377136
C           -2.19292103566091        2.13634480482486       -0.11832316688118
C           -1.85744448457584       -0.22755260472219       -0.08226612447962
O           -3.05764878922244       -0.37011772300076       -0.15048412272787
N           -1.01642213102363       -1.34145113892636       -0.03401579830123
C           -1.58925595694301       -2.66851526095631       -0.06538309108210
H            4.23751803830598        0.68442717262270        0.33934158983484
H            4.49786763036164        3.30848203098617       -1.20504470808039
H            2.82094128747244        1.94496436549534        0.28758989037294
H            3.47071431815064       -1.84169297689912        0.26591464650500
H           -1.60652256359862        3.05154804142710       -0.11399650353577
H           -2.78762320890365        2.06901722892260       -1.02860202155501
H           -2.86686397742199        2.11465696496088        0.73777490892775
H           -1.32667393914852       -3.22138830081401        0.83799479446751
H           -1.24968419358693       -3.21526568036400       -0.94699484732111
H           -2.67126035030013       -2.55075416283613       -0.11200667805375
H            1.23810472583135       -3.06375869397684        0.11089243097922
25
 energy: 60.263948287181 xtb: 6.6.1 (8d0f1dd)
C            3.19251376358736        0.94092626095196        0.27937822843499
N            2.29576440597194       -0.03412181922413        0.21296560017205
C            2.51223631058127       -1.37378098590145        0.23020588846140
N            1.31745199732705       -2.04865443782635        0.12279898349332
C            0.32624150194583       -1.14569172276095        0.05854539079634
C            0.89987382835656        0.11813450412441        0.11053951080781
C            0.11319890453849        1.31545873343676        0.05558611328253
O            0.50217190231798        2.45669146082076        0.09056106262304
N           -1.26890666372433        1.01371764807939       -0.03995304529042
C           -2.19348179613952        2.13316505939877       -0.11258217274021
C           -1.86045684086689       -0.22936721332870       -0.08133312484340
O           -3.05729080121977       -0.37185987137297       -0.15786018121833
N           -1.01148117974723       -1.34055257752875       -0.03379976342760
C           -1.58764342691510       -2.66896595966799       -0.06957304120008
H            4.23626183468757        0.69524201897608        0.41309551389629
H            4.50287835923369        3.21351975197302       -1.26826602455350
H            2.78840151341681        1.95870249944211        0.24923088132033
H            3.46753950249960       -1.83462565499822        0.28153233584143
H           -1.60711031831978        3.04855956874647       -0.10753185445244
H           -2.78723904167742        2.06735880867176       -1.02451195378852
H           -2.87022069541470        2.11466412111964        0.74194150824529
H           -1.32882989719707       -3.22374794033345        0.83318503562828
H           -1.24915092476761       -3.21372709400381       -0.95222785343510
H           -2.66958781800837       -2.54842766173028       -0.11730489414527
H            1.24908024746939       -3.05358889489200        0.11241175223902
25