25
 energy: -42.485116013775 xtb: 6.6.1 (8d0f1dd)
C            3.20457352336236        0.93495222713070        0.20859401763526
N            2.29188919883939       -0.01302231302588        0.17345289699933
C            2.52773122072487       -1.34093849907578        0.18508944725962
N            1.32998060095436       -2.03558497619414        0.11047607886169
C            0.34101039026823       -1.12780558746037        0.06810470852092
C            0.90179087526459        0.14144774999745        0.13409541883252
C            0.10809333028249        1.33106658709902        0.06016850695220
O            0.49129648322263        2.48000123934467        0.08104310199081
N           -1.26600175772818        1.01667061274673       -0.05981536380228
C           -2.20054071208875        2.13019331304181       -0.13446169687207
C           -1.84817906333115       -0.22478513827026       -0.08605770497700
O           -3.04545882141168       -0.37668300330117       -0.16525548883186
N           -0.99882788104201       -1.33222195290098       -0.02600120528584
C           -1.56647681647197       -2.66203350432294       -0.05322870668445
H            4.23848485356051        0.65240175625429        0.13122506836767
H            4.15050832518922        2.99554736762824       -1.06501590627371
H            2.94782132364153        1.92083459225197        0.50995741635126
H            3.49074321319366       -1.77891656599625        0.29032557634071
H           -1.62110725854539        3.04938438702578       -0.13189605544801
H           -2.79152371538465        2.05225784135892       -1.04597598933113
H           -2.87446925272679        2.10746803042511        0.72170360983081
H           -1.30881622841101       -3.21400943477070        0.85380260935725
H           -1.22356868631857       -3.21062051125984       -0.93336000975809
H           -2.64835940071646       -2.54519730221934       -0.10380781906672
H            1.25120625037495       -3.03757162514874        0.08910947112466
