72
 energy: 0.000000000000 xtb: 6.6.1 (8d0f1dd)
N           -1.47310921155849        2.74401293103706        2.22063921685122
C           -1.55658879776851        2.16490285539332        1.13274273951491
C           -2.74549199786261        2.05621232186130        0.23826248438941
C           -3.31377553111525        0.64333411542669        0.32332512650568
C           -4.30230156009016        0.24487110156316       -0.58026161703006
C           -4.85238763031941       -1.02286490450319       -0.53363588718165
O           -5.81419972815119       -1.48606034185536       -1.36157882725342
C           -6.39655633239252       -0.60827000183299       -2.29568474302620
C           -4.39972501531283       -1.94646102182611        0.44396929121966
O           -4.98748311285188       -3.16145997157803        0.41085992006324
C           -4.66362127904578       -4.10093827755394        1.40909127743729
C           -3.42072513477031       -1.54561384810496        1.33436546260297
C           -2.88302799614223       -0.26315800396994        1.27400150770375
C           -2.19303798107274        2.30467000305896       -1.18742977106749
C           -1.26651538239283        1.17243369445008       -1.65249429687285
C            0.01082524939134        1.09745454476277       -0.89354803499847
N            0.61779393476578       -0.02034948052406       -0.57705522512502
C            2.00145210352228       -0.02376006389122       -0.15611399603240
C            2.92554934655222       -0.53865282675074       -1.27700088804721
C            4.35756843073516       -0.43050757231754       -0.83075544324989
C            5.07346135469827        0.73206409086248       -1.03980965825901
C            6.38627986649936        0.84224441421807       -0.60344822702769
C            7.00047264773336       -0.20824756335880        0.05722314418200
O            8.26703657141718       -0.21011313101264        0.52410943644933
C            9.06912227848686        0.92943601033931        0.31863058007678
C            6.27039964270142       -1.40439753960823        0.28033466008274
O            6.94829939911432       -2.38012925705718        0.92751999079483
C            6.31537317745639       -3.61583200086742        1.15217711710877
C            4.96302794628964       -1.49347471867959       -0.16064430359178
C           -0.05511211367372       -1.29906247805359       -0.62085686319744
C           -3.86758037025447        3.07992600430699        0.58498060215443
C           -4.49286159663096        2.77383493050346        1.94313289484366
C           -3.39165179876499        4.52917666589254        0.54797523472093
H           -4.66030026466202        0.94509067363451       -1.31640568823548
H           -6.85037928558380        0.25803162192116       -1.80468845313260
H           -7.17287442604349       -1.18600110843259       -2.79318157561361
H           -5.66836817451085       -0.26952966318766       -3.04040255244073
H           -4.88416720672258       -3.71589460520039        2.40913542187496
H           -5.29223570620378       -4.96637458756866        1.20969236903657
H           -3.61139813139015       -4.39919835331056        1.35529357841967
H           -3.07077796610445       -2.21868765711333        2.10002662693138
H           -2.14562754426994        0.02067850696302        2.01001344383370
H           -3.02188875377605        2.38238012313952       -1.88813545054866
H           -1.65198530896729        3.25146700677685       -1.20556284570283
H           -1.81103374245520        0.23006524641044       -1.62116301628650
H           -0.99335688527853        1.37490212198123       -2.69443256973690
H           -0.67628064361333        1.65183887049447        0.61785727145403
H            0.63525841192517        1.98466369793744       -0.92314021190751
H            2.11132552493482       -0.65949692842762        0.72532613231274
H            2.30680473056284        0.98978251704176        0.11078972794250
H            2.76694198818247        0.06750735147374       -2.17075252200790
H            2.67954581369920       -1.57455627803457       -1.51167743520200
H            4.62169998552446        1.56295612048703       -1.56123579000624
H            6.92357674630170        1.75715815945204       -0.79119596719031
H            8.65159112996149        1.81001823324363        0.81701555159939
H            9.20136171144928        1.14042857828877       -0.74698991949293
H           10.03428838009630        0.69003240176163        0.76064937965836
H            7.05567174969094       -4.23621171795340        1.65347565939075
H            5.43848001056755       -3.50813558175093        1.79970565785717
H            6.02060041905269       -4.09420497120334        0.21253282636366
H            4.40102758497114       -2.40127266373392       -0.00490198249042
H           -0.22071299714579       -1.61775583601871       -1.65116008982042
H           -1.01972258008625       -1.24102717432227       -0.10935206830928
H            0.55899954147532       -2.04486085926761       -0.12333730421426
H           -4.63991875734388        2.95501092798550       -0.18098088071825
H           -3.76095216473977        2.90314704960906        2.73380821053058
H           -4.87457614030224        1.75695641518947        1.97884603101694
H           -5.31925552549014        3.45579210326349        2.12325564252114
H           -2.60025590131176        4.69225046143352        1.27368918226171
H           -3.03987406413880        4.81897652321898       -0.43870975059559
H           -4.22191740670577        5.18069648090034        0.80616693961239
H           -0.59832433787845        2.77744694953323        2.72958984441332
72
 energy: -6.416785762919 xtb: 6.6.1 (8d0f1dd)
N           -1.52106788282567        2.79957793300340        2.25007445223414
C           -1.57094149275569        2.15726860469632        1.17206115369441
C           -2.75846883210221        2.06514720801757        0.25559005154546
C           -3.32848664329820        0.65467171490509        0.33356519111951
C           -4.30883206153367        0.24849183635423       -0.57418745138944
C           -4.85447478671235       -1.01999888606376       -0.52933966799669
O           -5.81665347851598       -1.49237842739741       -1.37148844822537
C           -6.38414678905180       -0.61387641115351       -2.30834032824088
C           -4.41116355922380       -1.93737300017767        0.44902733861739
O           -5.00271193180303       -3.16495862698184        0.41291348066640
C           -4.67951784254752       -4.09408298240631        1.41503344584481
C           -3.44388286382909       -1.53367627851532        1.34894182514024
C           -2.90978470867030       -0.25092759695372        1.29081641332533
C           -2.19879216720717        2.30566326077974       -1.17176529556708
C           -1.26441512860037        1.18728911448136       -1.66493901783314
C            0.00081001652829        1.12104443966254       -0.87789630214402
N            0.62720079541956       -0.07273489006780       -0.55754465040479
C            2.00435225465379       -0.08483699383768       -0.17018286686327
C            2.97644080027595       -0.54885539569117       -1.29964412092134
C            4.40146119232114       -0.43913010957257       -0.86450266755853
C            5.12293435591997        0.72210692414236       -1.07319340458181
C            6.43070808515380        0.83517217054933       -0.62407128526288
C            7.03494803458141       -0.21284182094937        0.04622816285212
O            8.30777363450145       -0.21224339234648        0.53097825491237
C            9.10018917558872        0.92885070951277        0.32829427583539
C            6.30731287210764       -1.40434274208971        0.26445263478750
O            6.98512910560908       -2.38469134466162        0.92567233070028
C            6.34488788546707       -3.61423094626948        1.14554046035944
C            5.00659318213182       -1.49910390734099       -0.18925412872055
C           -0.08089735338588       -1.31969893289153       -0.61912680986472
C           -3.88760153791013        3.08110322452775        0.58179542724089
C           -4.52259862803878        2.78408684099148        1.93883180422499
C           -3.41584842609354        4.53319711714748        0.54558955417243
H           -4.65699307534432        0.94491845513546       -1.31911325410981
H           -6.84125907478254        0.25497959485248       -1.82308547181855
H           -7.15682074385474       -1.19053837217836       -2.81460859684558
H           -5.64873950050455       -0.27305263504155       -3.04521394385685
H           -4.90859843773065       -3.70744903188151        2.41383480525818
H           -5.30189565497293       -4.96522435215422        1.21533209646581
H           -3.62461083849646       -4.38678405914423        1.37295590470619
H           -3.09816440786393       -2.20663717472478        2.11747392191430
H           -2.17605061022682        0.03808413784189        2.02695802415842
H           -3.02868192597124        2.39886974032644       -1.87423834516674
H           -1.64967059472146        3.24813775638497       -1.18134198330112
H           -1.80749229311248        0.24468151737557       -1.62439978950220
H           -1.02354931030116        1.38840523645435       -2.71917912448672
H           -0.70226156801466        1.64806740686907        0.68156264822166
H            0.66382179769348        1.96763286521996       -0.95053204635419
H            2.11517502427479       -0.73710765533384        0.70603578640044
H            2.28258544722741        0.93016190279487        0.13402203270494
H            2.81887373140812        0.06985716970450       -2.18554527975506
H            2.72885288058361       -1.58097540895041       -1.54993788152606
H            4.67402534816370        1.55210735729987       -1.59838233345434
H            6.97126856072685        1.75041399110549       -0.80716082059547
H            8.67613893303904        1.81111028592271        0.81968257218505
H            9.24336316328256        1.14046302830143       -0.73680320243477
H           10.06300049071352        0.69584192143863        0.77901608476682
H            7.07749741381116       -4.23573202955846        1.65849557546260
H            5.45932463276911       -3.50267836424019        1.78022704200683
H            6.05855237812529       -4.09635358864316        0.20447652709434
H            4.44205670745735       -2.40560071785080       -0.03502530245440
H           -0.25394656027836       -1.63193817572893       -1.65500041719659
H           -1.05008809479345       -1.24518386264295       -0.11299619915661
H            0.51843759832320       -2.07955568087962       -0.12114118399930
H           -4.65724013838857        2.95798916208238       -0.18810403712821
H           -3.78834889135385        2.91702089719954        2.72496313243921
H           -4.89984153533952        1.76504956366060        1.97643201818144
H           -5.35177027260922        3.46540731647237        2.11650515410811
H           -2.62697736378561        4.68931337579474        1.27378154433681
H           -3.05509497202874        4.81560315703637       -0.44010214962755
H           -4.24708723919001        5.18880925318462        0.79684795170547
H           -0.63391526127892        2.79025591139118        2.74948772924642
72
 energy: -5.839703993766 xtb: 6.6.1 (8d0f1dd)
N           -1.55333678713901        2.83153313702597        2.26284127347629
C           -1.59484742473660        2.16526929169860        1.19888860687283
C           -2.77268358491858        2.07113801647092        0.26841839800983
C           -3.34328688485770        0.66136605247382        0.34328985093387
C           -4.31528489258695        0.25107158526618       -0.57131008297191
C           -4.86072438974694       -1.01785104593058       -0.52772920822614
O           -5.81364714521208       -1.49531236808254       -1.37892496619742
C           -6.37293617402469       -0.61817602177710       -2.32135020222278
C           -4.42482624711441       -1.93236985325531        0.45600406467915
O           -5.01425495879701       -3.16204702732092        0.41657975274216
C           -4.69522385544317       -4.08812218393219        1.42255369996808
C           -3.46605470908313       -1.52449924744815        1.36342378280662
C           -2.93324694729509       -0.24129768513951        1.30665896359441
C           -2.20286809989323        2.31203628047240       -1.15470034753868
C           -1.27003956141446        1.19600836057028       -1.65412019829315
C           -0.00704502851860        1.10804965061779       -0.85389511239467
N            0.61932257732053       -0.10285884788059       -0.55388287855669
C            2.00577387000729       -0.13944418108759       -0.18419808371551
C            3.01946375354700       -0.55630157856777       -1.32251473140524
C            4.44561832876802       -0.44569592212245       -0.89156263142035
C            5.17080590721295        0.71239777012125       -1.10442058451831
C            6.47476813702975        0.82746033363753       -0.64527554794074
C            7.07300199625780       -0.21680367345122        0.03556092212740
O            8.34024677464897       -0.21231627514734        0.53458709262659
C            9.13107497555795        0.93063215906903        0.33711864138638
C            6.34525459795626       -1.40848587509448        0.24911225554141
O            7.01780039471311       -2.38661902189986        0.92001314215535
C            6.37322268568737       -3.61386547917027        1.13865500315681
C            5.04923692967452       -1.50559201589413       -0.21573030205490
C           -0.11185975892447       -1.33644999991113       -0.62045943275457
C           -3.90726930943146        3.08539365619148        0.58030050843181
C           -4.54983156738316        2.79250408655458        1.93440931826964
C           -3.43782990145459        4.53775155744941        0.54192401124725
H           -4.65513493817176        0.94443415518604       -1.32283542118566
H           -6.83355832597479        0.25138107906368       -1.84088262297243
H           -7.14112748250460       -1.19520376014246       -2.83393501910702
H           -5.63102516266496       -0.27706588797006       -3.05134919050758
H           -4.93352824253227       -3.70034768096969        2.41877961924617
H           -5.31230805532401       -4.96256456081240        1.22022198092634
H           -3.63858411051574       -4.37593408830301        1.39016926741581
H           -3.12630970641550       -2.19487056608090        2.13672726654343
H           -2.20603251676319        0.05173947976264        2.04728635852493
H           -3.03097055542300        2.41280304306417       -1.85974336491818
H           -1.64883248783955        3.25093998603524       -1.15712244359548
H           -1.82055498616133        0.25765571005814       -1.62103989269464
H           -1.03951619608778        1.40143039532370       -2.71407080839777
H           -0.72365711176062        1.64092622797139        0.72721399663729
H            0.67657862620429        1.93725384568769       -0.93537234602815
H            2.11267187381326       -0.81247247802674        0.67814080729184
H            2.26615052112606        0.87070471777234        0.15968381893354
H            2.87311510348769        0.07801183712658       -2.20000661107605
H            2.77639784997666       -1.58487827176706       -1.58998045289721
H            4.72668357665195        1.54097389964932       -1.63553529764046
H            7.01776518175246        1.74188069248389       -0.82660943165194
H            8.70047932299207        1.81320986703524        0.82203475285703
H            9.28618273373594        1.14076122161699       -0.72661390157065
H           10.08944149672493        0.70173175766071        0.79802546686335
H            7.09841453793183       -4.23432099827889        1.66353290147155
H            5.48021380627129       -3.49714055160749        1.76135688705446
H            6.09650053548989       -4.09989014261407        0.19669152498196
H            4.48404587115246       -2.41188723578818       -0.06437199980328
H           -0.28621606676873       -1.63920822250462       -1.65882022537678
H           -1.08282735368990       -1.24773193064315       -0.11751130982904
H            0.47829829379639       -2.10595720259546       -0.12488964067128
H           -4.67130914829498        2.95900395578968       -0.19401036533377
H           -3.81841508223837        2.93120178833268        2.72098666636657
H           -4.92414256569945        1.77243615019606        1.97460831006477
H           -5.38107373701327        3.47272217872396        2.10791922235806
H           -2.65404022134320        4.69275151081370        1.27464564193819
H           -3.07047331844868        4.81567602716550       -0.44247758133016
H           -4.27008334211217        5.19514628099138        0.78643803609134
H           -0.67429497816899        2.81348855795787        2.77405675835280
72
 energy: -4.046573628794 xtb: 6.6.1 (8d0f1dd)
N           -1.58626183383044        2.86190793326057        2.27490326038090
C           -1.61939011036616        2.17355692718472        1.22487031286001
C           -2.78749838032006        2.07736850810876        0.28111131246780
C           -3.35835951755190        0.66790588888144        0.35287975372598
C           -4.32207818368851        0.25365173989884       -0.56855324657750
C           -4.86705922410157       -1.01581018641282       -0.52647280776973
O           -5.81038926818081       -1.49823453644840       -1.38678860607825
C           -6.36123828479479       -0.62265019289884       -2.33503186843782
C           -4.43846100873582       -1.92754440922916        0.46262719438745
O           -5.02580953470098       -3.15915694702539        0.42023575920736
C           -4.71115570130691       -4.08203574776128        1.43028784090350
C           -3.48838968607237       -1.51565659014927        1.37766878629958
C           -2.95703908525722       -0.23187593701840        1.32240777073488
C           -2.20698356674255        2.31848317882744       -1.13731234419834
C           -1.27743098558387        1.20186411059540       -1.63996363731353
C           -0.01682967597154        1.09281097109127       -0.82941291147729
N            0.61120754697575       -0.13321133578348       -0.54956448051840
C            2.00740913088699       -0.19234523796927       -0.19801891360210
C            3.06370123175679       -0.56523211355388       -1.34522266480782
C            4.49003246560157       -0.45109416640901       -0.91754578239912
C            5.21876719150939        0.70384294942715       -1.13526061147988
C            6.51914737814276        0.82010011455200       -0.66698932583606
C            7.11119669879923       -0.22074828752455        0.02399252447962
O            8.37279236609593       -0.21321283331198        0.53705753484454
C            9.16228021263067        0.93138211678429        0.34582394771917
C            6.38306918096121       -1.41222894294762        0.23354088500105
O            7.05084155481742       -2.38855542451767        0.91264010764489
C            6.40273658020133       -3.61374700567741        1.13096562059044
C            5.09151880453535       -1.51085900757812       -0.24090984733379
C           -0.14321055530847       -1.35287782225024       -0.62191874666901
C           -3.92706909422078        3.08994392723919        0.57938544732057
C           -4.57794808547430        2.80161346133969        1.93036584333752
C           -3.46013649051043        4.54275447593984        0.53838079625367
H           -4.65457809466370        0.94448386373552       -1.32566201154326
H           -6.82614516078723        0.24751553118492       -1.85995822271296
H           -7.12431183168907       -1.20027442752998       -2.85449661185964
H           -5.61238112286578       -0.28136750426809       -3.05761015012019
H           -4.95919140574848       -3.69313884103190        2.42372999379480
H           -5.32263766353379       -4.95991850324092        1.22526306239483
H           -3.65284803167870       -4.36482937135542        1.40806968360775
H           -3.15461994679409       -2.18342721663930        2.15573670529714
H           -2.23711056998402        0.06519220655419        2.06826123473385
H           -3.03210926387791        2.42716007625584       -1.84607458209080
H           -1.64721567157494        3.25353688198091       -1.13366379310686
H           -1.83440671495747        0.26749609555699       -1.61391016814469
H           -1.05739860951732        1.41357352515538       -2.70521683359859
H           -0.74574739882664        1.63483553686277        0.77217039603448
H            0.67994977299861        1.91074789273620       -0.90880380333340
H            2.11087529447449       -0.88570456523876        0.64908323784260
H            2.25202988139929        0.81192241898973        0.18516883129532
H            2.92558049335337        0.08327475244529       -2.21418374518562
H            2.82548205537709       -1.59047690048647       -1.62813413199558
H            4.77990700752958        1.53091671810655       -1.67293187819491
H            7.06446006805763        1.73373481612028       -0.84629676426444
H            8.72519139428412        1.81382241010738        0.82494885272708
H            9.32853540589549        1.14056243245849       -0.71640810881572
H           10.11622979609826        0.70612788565780        0.81651952583936
H            7.12154317784067       -4.23218044225320        1.66715810871325
H            5.50304537030858       -3.49252494234588        1.74263719402548
H            6.13526279200008       -4.10429608802091        0.18863930811715
H            4.52547202182695       -2.41701406173493       -0.09349003789973
H           -0.31818777538876       -1.64807836386394       -1.66221070045032
H           -1.11648175386629       -1.24854212084351       -0.12379230454598
H            0.43517058969657       -2.13227028580262       -0.12671022885572
H           -4.68534005019141        2.95978553521471       -0.19950802688172
H           -3.85064356548626        2.94606646104404        2.71873732145642
H           -4.94988000707951        1.78075866622339        1.97322857968769
H           -5.41134143712154        3.48093560719811        2.09805697693780
H           -2.68166453372815        4.69823249948933        1.27561368028183
H           -3.08636238098236        4.81629117919771       -0.44470404924340
H           -4.29398026263594        5.20122510188463        0.77557520591069
H           -0.71468356984819        2.83625109091478        2.79621711976451
72
 energy: -1.082831451059 xtb: 6.6.1 (8d0f1dd)
N           -1.62084734649712        2.89082488707431        2.28786060613987
C           -1.64461520776854        2.18345164469013        1.25031788370433
C           -2.80278080266053        2.08388076411675        0.29367243972253
C           -3.37358296636065        0.67450980303196        0.36241924131200
C           -4.32879647033658        0.25627586291005       -0.56604428023958
C           -4.87321288501453       -1.01377019290127       -0.52558393838691
O           -5.80678516310669       -1.50104123950328       -1.39489859038792
C           -6.34942611089025       -0.62700175799321       -2.34875512605251
C           -4.45199243699441       -1.92262344682672        0.46913867126833
O           -5.03726589131263       -3.15606935999215        0.42406692451581
C           -4.72691026969370       -4.07588672963211        1.43806145406003
C           -3.51075731299205       -1.50678610189170        1.39185248136836
C           -2.98096883936514       -0.22236080671900        1.33811111256095
C           -2.21132145131620        2.32524317001567       -1.11975660528512
C           -1.28599022906521        1.20694093325333       -1.62496290143258
C           -0.02802840996877        1.07651540865098       -0.80580813749741
N            0.60231207928858       -0.16333643365652       -0.54349821117082
C            2.00775160194479       -0.24559584071972       -0.20999046865174
C            3.10843497307009       -0.57486641217177       -1.36874594208517
C            4.53432108061668       -0.45672306066214       -0.94407952322611
C            5.26654586074631        0.69529776582949       -1.16655193480220
C            6.56329910085250        0.81267015026967       -0.68938220776782
C            7.14912078658911       -0.22457158126535        0.01196049343074
O            8.40495366421862       -0.21401055584884        0.53923787315425
C            9.19341305097667        0.93203034658048        0.35472413619912
C            6.42063323366199       -1.41588286887201        0.21754834456584
O            7.08366365131842       -2.39038658780294        0.90457642142912
C            6.43217421379360       -3.61348114971486        1.12328129381625
C            5.13362727626183       -1.51612458571843       -0.26624789709224
C           -0.17439892709083       -1.36921660996062       -0.62307640463249
C           -3.94704346755730        3.09471261053616        0.57856546512532
C           -4.60594512543789        2.81067421641277        1.92646656404030
C           -3.48242404047480        4.54801114582039        0.53474919493644
H           -4.65393220099772        0.94449067690569       -1.32875176410024
H           -6.81866287247912        0.24370834587308       -1.87904990564672
H           -7.10741768317262       -1.20522475113463       -2.87491091277515
H           -5.59383587413905       -0.28565272657354       -3.06406283240237
H           -4.98461493214317       -3.68603231583191        2.42870086301385
H           -5.33285611515225       -4.95707684863940        1.23025917674171
H           -3.66709446664087       -4.35383075132089        1.42588780926792
H           -3.18288170643819       -2.17193197835518        2.17466080232291
H           -2.26833594187475        0.07850407407812        2.08926953035316
H           -3.03321796377793        2.44166569064221       -1.83230217073723
H           -1.64583094708056        3.25660563503713       -1.11023610741042
H           -1.84937017686973        0.27650200346923       -1.60629684272343
H           -1.07454424508433        1.42608463771902       -2.69349840307386
H           -0.76884514986393        1.63046788748619        0.81772944407380
H            0.67603269290486        1.88869728500426       -0.87634518369535
H            2.10667432701031       -0.95970900395344        0.62045402043773
H            2.24137843221202        0.75073740054492        0.21102200204869
H            2.97848635323081        0.08545644052291       -2.23061282514534
H            2.87353859121608       -1.59596635072108       -1.66523439457900
H            4.83298074792506        1.52104272772205       -1.71056311146957
H            7.11066019169027        1.72559890638303       -0.86671708301281
H            8.75001266234097        1.81439329681870        0.82799146961724
H            9.37111440619576        1.14028872076574       -0.70585266438524
H           10.14265859844484        0.71011793019380        0.83551843001475
H            7.14475445430465       -4.22934937108940        1.67088874587311
H            5.52600161856375       -3.48781323749250        1.72402372687477
H            6.17406675709795       -4.10907831295671        0.18093684244296
H            4.56678538628458       -2.42227124437224       -0.12317541439376
H           -0.35026351588969       -1.65663638043761       -1.66532719838636
H           -1.14938304500640       -1.24909739424268       -0.12907629520622
H            0.39230813085593       -2.15822832419992       -0.12872583137631
H           -4.69958919530957        2.96041950236340       -0.20485466770521
H           -3.88293965910423        2.96069452165987        2.71693814021503
H           -4.97553297474953        1.78904859511115        1.97179883902974
H           -5.44151270646576        3.48901603280976        2.08804829537538
H           -2.70925968445583        4.70474925073123        1.27641579356294
H           -3.10239226592927        4.81738207303877       -0.44699521698061
H           -4.31794681709949        5.20728067477803        0.76456743400431
H           -0.75568239286491        2.86001582864781        2.81735613087867
72
 energy: 3.133058983752 xtb: 6.6.1 (8d0f1dd)
N           -1.65628996511857        2.91837472884917        2.30159720308741
C           -1.67023412885303        2.19395868890344        1.27557575081680
C           -2.81827480265430        2.09041486448489        0.30621717792409
C           -3.38883170611128        0.68105109898853        0.37192877319290
C           -4.33536674402439        0.25891275458248       -0.56372187493722
C           -4.87917483710585       -1.01170795233945       -0.52501483607391
O           -5.80284541565893       -1.50370705481755       -1.40315074967862
C           -6.33759674413808       -0.63128139500512       -2.36247322582948
C           -4.46547645695762       -1.91761284033618        0.47556505662629
O           -5.04867993068925       -3.15276253508728        0.42803603654442
C           -4.74255512168414       -4.06978566259122        1.44577097444084
C           -3.53316662290009       -1.49789164448688        1.40592669948994
C           -3.00490611562623       -0.21282711216281        1.35373737864268
C           -2.21593494352079        2.33199556318318       -1.10208236776012
C           -1.29582475994964        1.21139326951308       -1.61015768526255
C           -0.04077080239154        1.06012820380673       -0.78378559331220
N            0.59104387134144       -0.19265927596558       -0.53526205940858
C            2.00453291865342       -0.29824879821710       -0.22036448876915
C            3.15459306605313       -0.58548166496914       -1.39405456089196
C            4.57907053040532       -0.46299741489964       -0.97111184236560